-4.000000000000000083e-02 0.000000000000000000e+00
-3.985000000000000347e-02 0.000000000000000000e+00
-3.969999999999999918e-02 0.000000000000000000e+00
-3.955000000000000182e-02 0.000000000000000000e+00
-3.939999999999999752e-02 0.000000000000000000e+00
-3.925000000000000017e-02 0.000000000000000000e+00
-3.910000000000000281e-02 0.000000000000000000e+00
-3.894999999999999851e-02 0.000000000000000000e+00
-3.880000000000000115e-02 0.000000000000000000e+00
-3.865000000000000380e-02 0.000000000000000000e+00
-3.849999999999999950e-02 0.000000000000000000e+00
-3.835000000000000214e-02 0.000000000000000000e+00
-3.819999999999999785e-02 0.000000000000000000e+00
-3.805000000000000049e-02 0.000000000000000000e+00
-3.790000000000000313e-02 0.000000000000000000e+00
-3.774999999999999883e-02 0.000000000000000000e+00
-3.760000000000000148e-02 0.000000000000000000e+00
-3.744999999999999718e-02 0.000000000000000000e+00
-3.729999999999999982e-02 0.000000000000000000e+00
-3.715000000000000246e-02 0.000000000000000000e+00
-3.699999999999999817e-02 0.000000000000000000e+00
-3.685000000000000081e-02 0.000000000000000000e+00
-3.670000000000000345e-02 0.000000000000000000e+00
-3.654999999999999916e-02 0.000000000000000000e+00
-3.640000000000000180e-02 0.000000000000000000e+00
-3.624999999999999750e-02 0.000000000000000000e+00
-3.610000000000000014e-02 0.000000000000000000e+00
-3.595000000000000279e-02 0.000000000000000000e+00
-3.579999999999999849e-02 0.000000000000000000e+00
-3.565000000000000113e-02 0.000000000000000000e+00
-3.550000000000000377e-02 0.000000000000000000e+00
-3.534999999999999948e-02 0.000000000000000000e+00
-3.520000000000000212e-02 0.000000000000000000e+00
-3.504999999999999782e-02 0.000000000000000000e+00
-3.490000000000000047e-02 0.000000000000000000e+00
-3.475000000000000311e-02 0.000000000000000000e+00
-3.459999999999999881e-02 0.000000000000000000e+00
-3.445000000000000145e-02 0.000000000000000000e+00
-3.429999999999999716e-02 0.000000000000000000e+00
-3.414999999999999980e-02 0.000000000000000000e+00
-3.400000000000000244e-02 0.000000000000000000e+00
-3.384999999999999815e-02 0.000000000000000000e+00
-3.370000000000000079e-02 0.000000000000000000e+00
-3.354999999999999649e-02 0.000000000000000000e+00
-3.339999999999999913e-02 0.000000000000000000e+00
-3.325000000000000178e-02 -0.000000000000000000e+00
-3.309999999999999748e-02 0.000000000000000000e+00
-3.295000000000000012e-02 4.203895392974451213e-45
-3.280000000000000276e-02 -5.184804318001823162e-44
-3.264999999999999847e-02 1.681558157189780485e-44
-3.250000000000000111e-02 4.352433030192881822e-42
-3.235000000000000375e-02 -2.442323093471723673e-41
-3.219999999999999946e-02 -1.921544532190048657e-40
-3.205000000000000210e-02 2.354669071931277715e-39
-3.189999999999999780e-02 3.151675790396053647e-39
-3.175000000000000044e-02 -1.376112870973568561e-37
-3.160000000000000309e-02 1.847607316849431177e-37
-3.144999999999999879e-02 5.989926830283745848e-36
-3.130000000000000143e-02 -1.766888112895717247e-35
-3.115000000000000061e-02 -2.146057562379277232e-34
-3.099999999999999978e-02 8.365614932558049270e-34
-3.085000000000000242e-02 6.800675629888491591e-33
-3.069999999999999812e-02 -2.788761311926820335e-32
-3.055000000000000077e-02 -1.991358665250614869e-31
-3.039999999999999994e-02 6.877724347508619084e-31
-3.024999999999999911e-02 5.380075143374552251e-30
-3.010000000000000175e-02 -1.154931287084031134e-29
-2.994999999999999746e-02 -1.279154400442770849e-28
-2.980000000000000010e-02 6.942800504702344673e-29
-2.964999999999999927e-02 2.469451641410613090e-27
-2.949999999999999845e-02 2.887635936176207844e-27
-2.935000000000000109e-02 -3.393664823118819893e-26
-2.920000000000000026e-02 -1.104017616130210265e-25
-2.904999999999999943e-02 2.218901791229839967e-25
-2.890000000000000208e-02 1.899081457908491327e-24
-2.874999999999999778e-02 2.124677138570428009e-24
-2.860000000000000042e-02 -1.465097874497611242e-23
-2.844999999999999959e-02 -6.107674779316989272e-23
-2.829999999999999877e-02 -4.491798291244322027e-23
-2.815000000000000141e-02 3.663112847628494750e-22
-2.800000000000000058e-02 1.494340752616649654e-21
-2.784999999999999976e-02 2.395199408617283873e-21
-2.769999999999999893e-02 -1.245235089003074460e-21
-2.754999999999999810e-02 -1.854783533235959392e-20
-2.740000000000000074e-02 -6.291056232816989162e-20
-2.724999999999999992e-02 -1.506560076267197519e-19
-2.709999999999999909e-02 -3.011059438833372308e-19
-2.695000000000000173e-02 -5.377520290758898203e-19
-2.679999999999999744e-02 -8.883901167255734785e-19
-2.665000000000000008e-02 -1.384584850320740611e-18
-2.649999999999999925e-02 -2.062317604230470516e-18
-2.634999999999999842e-02 -2.962947926070297421e-18
-2.620000000000000107e-02 -4.133106365114096588e-18
-2.605000000000000024e-02 -5.624934458069301253e-18
-2.589999999999999941e-02 -7.497205248614182278e-18
-2.575000000000000205e-02 -9.815721368067639290e-18
-2.559999999999999776e-02 -1.265352989555331133e-17
-2.545000000000000040e-02 -1.609207586136378207e-17
-2.529999999999999957e-02 -2.022196201235320972e-17
-2.514999999999999875e-02 -2.514334585863135254e-17
-2.500000000000000139e-02 -3.096719698809464940e-17
-2.484999999999999709e-02 -3.781633517809497385e-17
-2.469999999999999973e-02 -4.582610372045825228e-17
-2.454999999999999891e-02 -5.514584842041970873e-17
-2.439999999999999808e-02 -6.594020468965699740e-17
-2.425000000000000072e-02 -7.839013979386201948e-17
-2.409999999999999989e-02 -9.269475279775383852e-17
-2.394999999999999907e-02 -1.090728164297404793e-16
-2.379999999999999824e-02 -1.277643321814705274e-16
-2.365000000000000088e-02 -1.490326280378665639e-16
-2.350000000000000006e-02 -1.731664231199340977e-16
-2.334999999999999923e-02 -2.004817533612275886e-16
-2.319999999999999840e-02 -2.313247508347086260e-16
-2.304999999999999757e-02 -2.660740127980202804e-16
-2.290000000000000022e-02 -3.051433280807860785e-16
-2.274999999999999939e-02 -3.489850122768398165e-16
-2.259999999999999856e-02 -3.980928326548715483e-16
-2.244999999999999774e-02 -4.530057139275718223e-16
-2.230000000000000038e-02 -5.143115763696739281e-16
-2.214999999999999955e-02 -5.826513062848941507e-16
-2.199999999999999872e-02 -6.587232823382436608e-16
-2.184999999999999790e-02 -7.432881401163568200e-16
-2.170000000000000054e-02 -8.371736955064970967e-16
-2.154999999999999971e-02 -9.412808209876286428e-16
-2.139999999999999888e-02 -1.056589004284132650e-15
-2.124999999999999806e-02 -1.184162965810707773e-15
-2.110000000000000070e-02 -1.325159540815066574e-15
-2.094999999999999987e-02 -1.480834561520631958e-15
-2.079999999999999905e-02 -1.652551750972483351e-15
-2.064999999999999822e-02 -1.841789711059171539e-15
-2.049999999999999739e-02 -2.050152828061914574e-15
-2.035000000000000003e-02 -2.279378366555531027e-15
-2.019999999999999921e-02 -2.531350974847661715e-15
-2.004999999999999838e-02 -2.808108402451163672e-15
-1.989999999999999755e-02 -3.111860134808949740e-15
-1.975000000000000019e-02 -3.444991840216961657e-15
-1.959999999999999937e-02 -3.810088451471982732e-15
-1.944999999999999854e-02 -4.209939671585795004e-15
-1.929999999999999771e-02 -4.647562631916518291e-15
-1.915000000000000036e-02 -5.126213327113398124e-15
-1.899999999999999953e-02 -5.649408637973434358e-15
-1.884999999999999870e-02 -6.220942425067379003e-15
-1.869999999999999787e-02 -6.844904163464575822e-15
-1.855000000000000052e-02 -7.525708165369640601e-15
-1.839999999999999969e-02 -8.268101203418986439e-15
-1.824999999999999886e-02 -9.077209944525869989e-15
-1.809999999999999803e-02 -9.958539255814496949e-15
-1.794999999999999721e-02 -1.091802853231101447e-14
-1.779999999999999985e-02 -1.196205339100940568e-14
-1.764999999999999902e-02 -1.309748411614485020e-14
-1.749999999999999820e-02 -1.433167549479835712e-14
-1.734999999999999737e-02 -1.567251170964296947e-14
-1.720000000000000001e-02 -1.712839871564723893e-14
-1.704999999999999918e-02 -1.870831336798616656e-14
-1.689999999999999836e-02 -2.042191353632434592e-14
-1.674999999999999753e-02 -2.227985489513823608e-14
-1.660000000000000017e-02 -2.429437876458155621e-14
-1.644999999999999934e-02 -2.648013203837822765e-14
-1.629999999999999852e-02 -2.885459747655957918e-14
-1.614999999999999769e-02 -3.143674692307821261e-14
-1.600000000000000033e-02 -3.424118830814247560e-14
-1.584999999999999951e-02 -3.726503155533633649e-14
-1.569999999999999868e-02 -4.046697195001988656e-14
-1.554999999999999785e-02 -4.374762881055767327e-14
-1.539999999999999702e-02 -4.695847999184633859e-14
-1.524999999999999967e-02 -4.999391403789042732e-14
-1.509999999999999884e-02 -5.304213489330626696e-14
-1.494999999999999801e-02 -5.705145015265367103e-14
-1.479999999999999719e-02 -6.434719564910734713e-14
-1.464999999999999983e-02 -7.903803344233226169e-14
-1.449999999999999900e-02 -1.063446544908620839e-13
-1.434999999999999817e-02 -1.493786919246758993e-13
-1.419999999999999735e-02 -2.015964299792102898e-13
-1.404999999999999999e-02 -2.339770358798093364e-13
-1.389999999999999916e-02 -1.791540819775366833e-13
-1.374999999999999833e-02 7.852304418666522512e-14
-1.359999999999999751e-02 6.875192147363928807e-13
-1.344999999999999668e-02 1.757080050034109941e-12
-1.329999999999999932e-02 3.192041899899300539e-12
-1.314999999999999850e-02 4.412330310149537027e-12
-1.299999999999999767e-02 3.987876435324055890e-12
-1.284999999999999684e-02 -6.717739971066893911e-13
-1.269999999999999948e-02 -1.326724494155051559e-11
-1.254999999999999866e-02 -3.769990916668852776e-11
-1.239999999999999783e-02 -7.567357157567400350e-11
-1.224999999999999700e-02 -1.222618534191255435e-10
-1.209999999999999964e-02 -1.593986886927467594e-10
-1.194999999999999882e-02 -1.483614342490113813e-10
-1.179999999999999799e-02 -2.410163561783473796e-11
-1.164999999999999716e-02 3.034754392228222741e-10
-1.149999999999999981e-02 9.341036832921645328e-10
-1.134999999999999898e-02 1.939616467439009284e-09
-1.119999999999999815e-02 3.298074258140104575e-09
-1.104999999999999732e-02 4.799044717174183461e-09
-1.089999999999999650e-02 5.929526203374280158e-09
-1.074999999999999914e-02 5.763195254360198305e-09
-1.059999999999999831e-02 2.888748129592499936e-09
-1.044999999999999749e-02 -4.579114420977248301e-09
-1.029999999999999666e-02 -1.886627032376964053e-08
-1.014999999999999930e-02 -4.226365746262672474e-08
-9.999999999999998473e-03 -7.672719704032715526e-08
-9.849999999999997646e-03 -1.234191699950315524e-07
-9.699999999999996819e-03 -1.823033386472161510e-07
-9.549999999999999462e-03 -2.519318229587952374e-07
-9.399999999999998634e-03 -3.295481576515157940e-07
-9.249999999999997807e-03 -4.115683793770585908e-07
-9.099999999999996980e-03 -4.943962039760663174e-07
-8.949999999999999623e-03 -5.754050107498187572e-07
-8.799999999999998795e-03 -6.538186312354810070e-07
-8.649999999999997968e-03 -7.311953140742843971e-07
-8.500000000000000611e-03 -8.112896807688230183e-07
-8.349999999999996314e-03 -8.992412858788156882e-07
-8.199999999999998956e-03 -1.000268412099103443e-06
-8.049999999999994660e-03 -1.118256591325916816e-06
-7.899999999999997302e-03 -1.254729227184725460e-06
-7.749999999999999944e-03 -1.408615730724704918e-06
-7.599999999999995648e-03 -1.576978661432804074e-06
-7.449999999999998290e-03 -1.756506208039354533e-06
-7.300000000000000933e-03 -1.945248413903755136e-06
-7.149999999999996636e-03 -2.143923666153568774e-06
-6.999999999999999278e-03 -2.356233835598686710e-06
-6.849999999999994982e-03 -2.587999460956780240e-06
-6.699999999999997624e-03 -2.845418521246756427e-06
-6.550000000000000266e-03 -3.133162181256921031e-06
-6.399999999999995970e-03 -3.453147428444935940e-06
-6.249999999999998612e-03 -3.804578000199398957e-06
-6.099999999999994316e-03 -4.185296347714029253e-06
-5.949999999999996958e-03 -4.593881385517306626e-06
-5.799999999999999600e-03 -5.031534328736597672e-06
-5.649999999999995304e-03 -5.502841759152943268e-06
-5.499999999999997946e-03 -6.015016424498753622e-06
-5.350000000000000588e-03 -6.575934094144031405e-06
-5.199999999999996292e-03 -7.191923486971063539e-06
-5.049999999999998934e-03 -7.866427040426060557e-06
-4.899999999999994638e-03 -8.600253750046249479e-06
-4.749999999999997280e-03 -9.393352229380980134e-06
-4.599999999999999922e-03 -1.024722223519347608e-05
-4.449999999999995626e-03 -1.116671228373888880e-05
-4.299999999999998268e-03 -1.216023611050331965e-05
-4.150000000000000910e-03 -1.323826018051477149e-05
-3.999999999999996614e-03 -1.441086078557418659e-05
-3.849999999999999256e-03 -1.568569678056519479e-05
-3.699999999999994960e-03 -1.706755574559792876e-05
-3.549999999999997602e-03 -1.855977097875438631e-05
-3.400000000000000244e-03 -2.016675898630637676e-05
-3.249999999999995948e-03 -2.189626502513419837e-05
-3.099999999999998590e-03 -2.376003067183773965e-05
-2.949999999999994293e-03 -2.577246777946129441e-05
-2.799999999999996936e-03 -2.794813190121203661e-05
-2.649999999999999578e-03 -3.029945582966320217e-05
-2.499999999999995282e-03 -3.283615296822972596e-05
-2.349999999999997924e-03 -3.556668525561690331e-05
-2.200000000000000566e-03 -3.850094071822240949e-05
-2.049999999999996270e-03 -4.165257269050925970e-05
-1.899999999999998912e-03 -4.503955278778448701e-05
-1.749999999999994615e-03 -4.868259929935447872e-05
-1.599999999999997258e-03 -5.260248872218653560e-05
-1.449999999999999900e-03 -5.681788752553984523e-05
-1.299999999999995604e-03 -6.134518480394035578e-05
-1.149999999999998246e-03 -6.620040221605449915e-05
-9.999999999999939493e-04 -7.140207890188321471e-05
-8.499999999999965916e-04 -7.697333785472437739e-05
-6.999999999999992339e-04 -8.294171857414767146e-05
-5.499999999999949374e-04 -8.933704521041363478e-05
-3.999999999999975797e-04 -9.618864714866504073e-05
-2.500000000000002220e-04 -1.035237728501670063e-04
-9.999999999999592548e-05 -1.113683465518988669e-04
5.000000000000143219e-05 -1.197495730593800545e-04
2.000000000000057288e-04 -1.286987389903515577e-04
3.500000000000030864e-04 -1.382523769279941916e-04
5.000000000000004441e-04 -1.484510867157950997e-04
6.500000000000047407e-04 -1.593366905581206083e-04
8.000000000000020983e-04 -1.709498174022883177e-04
9.500000000000063949e-04 -1.833295973483473063e-04
1.100000000000003753e-03 -1.965156116057187319e-04
1.250000000000001110e-03 -2.105509629473090172e-04
1.400000000000005407e-03 -2.254842838738113642e-04
1.550000000000002764e-03 -2.413694019196555018e-04
1.700000000000000122e-03 -2.582629094831645489e-04
1.850000000000004419e-03 -2.762212825473397970e-04
2.000000000000001776e-03 -2.952998329419642687e-04
2.150000000000006073e-03 -3.155537706334143877e-04
2.300000000000003431e-03 -3.370415070094168186e-04
2.450000000000000788e-03 -3.598269540816545486e-04
2.600000000000005085e-03 -3.839799901470541954e-04
2.750000000000002442e-03 -4.095743352081626654e-04
2.899999999999999800e-03 -4.366845241747796535e-04
3.050000000000004097e-03 -4.653841897379606962e-04
3.200000000000001454e-03 -4.957469063811004162e-04
3.350000000000005751e-03 -5.278490134514868259e-04
3.500000000000003109e-03 -5.617723800241947174e-04
3.650000000000000466e-03 -5.976050160825252533e-04
3.800000000000004763e-03 -6.354394718073308468e-04
3.950000000000002121e-03 -6.753695779480040073e-04
4.100000000000006417e-03 -7.174886413849890232e-04
4.250000000000003775e-03 -7.618896779604256153e-04
4.400000000000001132e-03 -8.086680900305509567e-04
4.550000000000005429e-03 -8.579244604334235191e-04
4.700000000000002787e-03 -9.097657748498022556e-04
4.850000000000000144e-03 -9.643033263273537159e-04
5.000000000000004441e-03 -1.021649921312928200e-03
5.150000000000001799e-03 -1.081917434930801392e-03
5.300000000000006095e-03 -1.145216869190335274e-03
5.450000000000003453e-03 -1.211661263369023800e-03
5.600000000000000810e-03 -1.281368662603199482e-03
5.750000000000005107e-03 -1.354462816379964352e-03
5.900000000000002465e-03 -1.431070966646075249e-03
6.050000000000006761e-03 -1.511320821009576321e-03
6.200000000000004119e-03 -1.595338573679327965e-03
6.350000000000001477e-03 -1.683249138295650482e-03
6.500000000000005773e-03 -1.775178243406116962e-03
6.650000000000003131e-03 -1.871255459263920784e-03
6.800000000000000488e-03 -1.971614547073841095e-03
6.950000000000004785e-03 -2.076392062008380890e-03
7.100000000000002143e-03 -2.185723045840859413e-03
7.250000000000006439e-03 -2.299739746376872063e-03
7.400000000000003797e-03 -2.418570453301072121e-03
7.550000000000001155e-03 -2.542343921959400177e-03
7.700000000000005451e-03 -2.671191003173589706e-03
7.850000000000002809e-03 -2.805245108902454376e-03
8.000000000000000167e-03 -2.944639185443520546e-03
8.150000000000004463e-03 -3.089501988142728806e-03
8.300000000000001821e-03 -3.239956451579928398e-03
8.450000000000006117e-03 -3.396121086552739143e-03
8.600000000000003475e-03 -3.558112774044275284e-03
8.750000000000000833e-03 -3.726047230884432793e-03
8.900000000000005129e-03 -3.900038776919245720e-03
9.050000000000002487e-03 -4.080197773873806000e-03
9.200000000000006783e-03 -4.266628529876470566e-03
9.350000000000004141e-03 -4.459427669644355774e-03
9.500000000000001499e-03 -4.658681806176900864e-03
9.650000000000005795e-03 -4.864472430199384689e-03
9.800000000000003153e-03 -5.076877307146787643e-03
9.950000000000000511e-03 -5.295970942825078964e-03
1.010000000000000481e-02 -5.521819926798343658e-03
1.025000000000000216e-02 -5.754478275775909424e-03
1.040000000000000646e-02 -5.993985570967197418e-03
1.055000000000000382e-02 -6.240372080355882645e-03
1.070000000000000118e-02 -6.493661087006330490e-03
1.085000000000000547e-02 -6.753868889063596725e-03
1.100000000000000283e-02 -7.020999677479267120e-03
1.115000000000000713e-02 -7.295043207705020905e-03
1.130000000000000449e-02 -7.575975265353918076e-03
1.145000000000000184e-02 -7.863756269216537476e-03
1.160000000000000614e-02 -8.158333599567413330e-03
1.175000000000000350e-02 -8.459638804197311401e-03
1.190000000000000085e-02 -8.767591789364814758e-03
1.205000000000000515e-02 -9.082099422812461853e-03
1.220000000000000251e-02 -9.403053671121597290e-03
1.235000000000000681e-02 -9.730322286486625671e-03
1.250000000000000416e-02 -1.006375346332788467e-02
1.265000000000000152e-02 -1.040317863225936890e-02
1.280000000000000582e-02 -1.074841432273387909e-02
1.295000000000000318e-02 -1.109926402568817139e-02
1.310000000000000747e-02 -1.145551074296236038e-02
1.325000000000000483e-02 -1.181691419333219528e-02
1.340000000000000219e-02 -1.218320615589618683e-02
1.355000000000000648e-02 -1.255410537123680115e-02
1.370000000000000384e-02 -1.292930915951728821e-02
1.385000000000000120e-02 -1.330849900841712952e-02
1.400000000000000550e-02 -1.369133312255144119e-02
1.415000000000000285e-02 -1.407744735479354858e-02
1.430000000000000715e-02 -1.446645800024271011e-02
1.445000000000000451e-02 -1.485795620828866959e-02
1.460000000000000187e-02 -1.525151170790195465e-02
1.475000000000000616e-02 -1.564667560160160065e-02
1.490000000000000352e-02 -1.604297757148742676e-02
1.505000000000000088e-02 -1.643993146717548370e-02
1.520000000000000517e-02 -1.683703064918518066e-02
1.535000000000000253e-02 -1.723374240100383759e-02
1.550000000000000683e-02 -1.762950792908668518e-02
1.565000000000000419e-02 -1.802375353872776031e-02
1.580000000000000154e-02 -1.841589063405990601e-02
1.595000000000000584e-02 -1.880531944334506989e-02
1.610000000000000320e-02 -1.919141411781311035e-02
1.625000000000000749e-02 -1.957353018224239349e-02
1.640000000000000485e-02 -1.995100826025009155e-02
1.655000000000000221e-02 -2.032316848635673523e-02
1.670000000000000651e-02 -2.068932540714740753e-02
1.685000000000000386e-02 -2.104877494275569916e-02
1.700000000000000122e-02 -2.140080556273460388e-02
1.715000000000000552e-02 -2.174469828605651855e-02
1.730000000000000288e-02 -2.207971177995204926e-02
1.745000000000000717e-02 -2.240509726107120514e-02
1.760000000000000453e-02 -2.272010222077369690e-02
1.775000000000000189e-02 -2.302397042512893677e-02
1.790000000000000618e-02 -2.331594377756118774e-02
1.805000000000000354e-02 -2.359525859355926514e-02
1.820000000000000784e-02 -2.386114746332168579e-02
1.835000000000000520e-02 -2.411283925175666809e-02
1.850000000000000255e-02 -2.434957027435302734e-02
1.865000000000000685e-02 -2.457057870924472809e-02
1.880000000000000421e-02 -2.477511391043663025e-02
1.895000000000000157e-02 -2.496242709457874298e-02
1.910000000000000586e-02 -2.513178251683712006e-02
1.925000000000000322e-02 -2.528245188295841217e-02
1.940000000000000752e-02 -2.541371807456016541e-02
1.955000000000000487e-02 -2.552487514913082123e-02
1.970000000000000223e-02 -2.561524510383605957e-02
1.985000000000000653e-02 -2.568416483700275421e-02
2.000000000000000389e-02 -2.573099546134471893e-02
2.015000000000000818e-02 -2.575511857867240906e-02
2.030000000000000554e-02 -2.575592882931232452e-02
2.045000000000000290e-02 -2.573285810649394989e-02
2.060000000000000719e-02 -2.568536438047885895e-02
2.075000000000000455e-02 -2.561293914914131165e-02
2.090000000000000191e-02 -2.551510930061340332e-02
2.105000000000000621e-02 -2.539143152534961700e-02
2.120000000000000356e-02 -2.524149231612682343e-02
2.135000000000000786e-02 -2.506492100656032562e-02
2.150000000000000522e-02 -2.486138418316841125e-02
2.165000000000000258e-02 -2.463059313595294952e-02
2.180000000000000687e-02 -2.437230013310909271e-02
2.195000000000000423e-02 -2.408630773425102234e-02
2.210000000000000159e-02 -2.377245202660560608e-02
2.225000000000000588e-02 -2.343061938881874084e-02
2.240000000000000324e-02 -2.306074090301990509e-02
2.255000000000000754e-02 -2.266279794275760651e-02
2.270000000000000490e-02 -2.223683148622512817e-02
2.285000000000000225e-02 -2.178292348980903625e-02
2.299999999999999961e-02 -2.130120992660522461e-02
2.315000000000001085e-02 -2.079187706112861633e-02
2.330000000000000820e-02 -2.025516144931316376e-02
2.345000000000000556e-02 -1.969135738909244537e-02
2.360000000000000292e-02 -1.910080574452877045e-02
2.375000000000000028e-02 -1.848390884697437286e-02
2.390000000000001151e-02 -1.784111931920051575e-02
2.405000000000000887e-02 -1.717293821275234222e-02
2.420000000000000623e-02 -1.647992059588432312e-02
2.435000000000000359e-02 -1.576267182826995850e-02
2.450000000000000094e-02 -1.502185314893722534e-02
2.464999999999999830e-02 -1.425818074494600296e-02
2.480000000000000954e-02 -1.347241923213005066e-02
2.495000000000000689e-02 -1.266537420451641083e-02
2.510000000000000425e-02 -1.183789875358343124e-02
2.525000000000000161e-02 -1.099089346826076508e-02
2.539999999999999897e-02 -1.012530550360679626e-02
2.555000000000001020e-02 -9.242130443453788757e-03
2.570000000000000756e-02 -8.342404849827289581e-03
2.585000000000000492e-02 -7.427204400300979614e-03
2.600000000000000228e-02 -6.497638765722513199e-03
2.614999999999999963e-02 -5.554849281907081604e-03
2.630000000000001087e-02 -4.600010812282562256e-03
2.645000000000000823e-02 -3.634333377704024315e-03
2.660000000000000558e-02 -2.659059828147292137e-03
2.675000000000000294e-02 -1.675458508543670177e-03
2.690000000000000030e-02 -6.848181365057826042e-04
2.705000000000001154e-02 3.115527797490358353e-04
2.720000000000000889e-02 1.312326407060027122e-03
2.735000000000000625e-02 2.316158497706055641e-03
2.750000000000000361e-02 3.321694443002343178e-03
2.765000000000000097e-02 4.327571485191583633e-03
2.780000000000001220e-02 5.332421511411666870e-03
2.795000000000000956e-02 6.334872450679540634e-03
2.810000000000000692e-02 7.333549205213785172e-03
2.825000000000000427e-02 8.327078074216842651e-03
2.840000000000000163e-02 9.314089082181453705e-03
2.854999999999999899e-02 1.029321923851966858e-02
2.870000000000001023e-02 1.126312743872404099e-02
2.885000000000000758e-02 1.222248934209346771e-02
2.900000000000000494e-02 1.317000109702348709e-02
2.915000000000000230e-02 1.410437561571598053e-02
2.929999999999999966e-02 1.502434164285659790e-02
2.945000000000001089e-02 1.592865586280822754e-02
2.960000000000000825e-02 1.681610010564327240e-02
2.975000000000000561e-02 1.768549717962741852e-02
2.990000000000000296e-02 1.853570900857448578e-02
3.005000000000000032e-02 1.936563663184642792e-02
3.020000000000001156e-02 2.017422020435333252e-02
3.035000000000000892e-02 2.096044085919857025e-02
3.050000000000000627e-02 2.172331698238849640e-02
3.065000000000000363e-02 2.246191352605819702e-02
3.080000000000000099e-02 2.317534759640693665e-02
3.095000000000001222e-02 2.386278659105300903e-02
3.110000000000000958e-02 2.452345378696918488e-02
3.125000000000000694e-02 2.515662461519241333e-02
3.140000000000000430e-02 2.576163038611412048e-02
3.155000000000000165e-02 2.633786574006080627e-02
3.169999999999999901e-02 2.688477933406829834e-02
3.185000000000001025e-02 2.740187570452690125e-02
3.200000000000000761e-02 2.788870967924594879e-02
3.215000000000000496e-02 2.834490314126014709e-02
3.230000000000000232e-02 2.877013757824897766e-02
3.244999999999999968e-02 2.916415780782699585e-02
3.260000000000001091e-02 2.952677384018898010e-02
3.275000000000000827e-02 2.985786274075508118e-02
3.290000000000000563e-02 3.015735745429992676e-02
3.305000000000000299e-02 3.042524494230747223e-02
3.320000000000000034e-02 3.066156990826129913e-02
3.335000000000001158e-02 3.086643479764461517e-02
3.350000000000000894e-02 3.104000352323055267e-02
3.365000000000000629e-02 3.118250519037246704e-02
3.380000000000000365e-02 3.129422664642333984e-02
3.395000000000000101e-02 3.137550875544548035e-02
3.410000000000001225e-02 3.142674267292022705e-02
3.425000000000000960e-02 3.144836798310279846e-02
3.440000000000000696e-02 3.144088387489318848e-02
3.455000000000000432e-02 3.140482679009437561e-02
3.470000000000000168e-02 3.134078904986381531e-02
3.485000000000001291e-02 3.124940767884254456e-02
3.500000000000001027e-02 3.113136254251003265e-02
3.515000000000000763e-02 3.098737262189388275e-02
3.530000000000000498e-02 3.081819415092468262e-02
3.545000000000000234e-02 3.062462806701660156e-02
3.559999999999999970e-02 3.040750510990619659e-02
3.575000000000001094e-02 3.016768582165241241e-02
3.590000000000000829e-02 2.990605868399143219e-02
3.605000000000000565e-02 2.962353453040122986e-02
3.620000000000000301e-02 2.932105585932731628e-02
3.635000000000000037e-02 2.899958565831184387e-02
3.650000000000001160e-02 2.866010554134845734e-02
3.665000000000000896e-02 2.830361202359199524e-02
3.680000000000000632e-02 2.793111465871334076e-02
3.695000000000000367e-02 2.754363045096397400e-02
3.710000000000000103e-02 2.714218571782112122e-02
3.725000000000001227e-02 2.672781981527805328e-02
3.740000000000000963e-02 2.630157209932804108e-02
3.755000000000000698e-02 2.586448192596435547e-02
3.770000000000000434e-02 2.541758120059967041e-02
3.785000000000000170e-02 2.496189437806606293e-02
3.800000000000001293e-02 2.449844032526016235e-02
3.815000000000001029e-02 2.402823418378829956e-02
3.830000000000000765e-02 2.355228550732135773e-02
3.845000000000000501e-02 2.307158522307872772e-02
3.860000000000000236e-02 2.258710749447345734e-02
3.874999999999999972e-02 2.209980785846710205e-02
3.890000000000001096e-02 2.161061577498912811e-02
3.905000000000000832e-02 2.112044207751750946e-02
3.920000000000000567e-02 2.063017152249813080e-02
3.935000000000000303e-02 2.014067023992538452e-02
3.950000000000000039e-02 1.965278014540672302e-02
3.965000000000001162e-02 1.916730962693691254e-02
3.980000000000000898e-02 1.868503727018833160e-02
3.995000000000000634e-02 1.820671558380126953e-02
4.010000000000000370e-02 1.773306168615818024e-02
4.025000000000000105e-02 1.726475916802883148e-02
4.040000000000001229e-02 1.680245436728000641e-02
4.055000000000000965e-02 1.634675823152065277e-02
4.070000000000000701e-02 1.589825190603733063e-02
4.085000000000000436e-02 1.545747835189104080e-02
4.100000000000000172e-02 1.502495072782039642e-02
4.115000000000001296e-02 1.460114214569330215e-02
4.130000000000001031e-02 1.418648753315210342e-02
4.145000000000000767e-02 1.378138177096843719e-02
4.160000000000000503e-02 1.338618155568838120e-02
4.175000000000000239e-02 1.300120446830987930e-02
4.190000000000001362e-02 1.262673828750848770e-02
4.205000000000001098e-02 1.226303540170192719e-02
4.220000000000000834e-02 1.191031187772750854e-02
4.235000000000000570e-02 1.156874373555183411e-02
4.250000000000000305e-02 1.123846881091594696e-02
4.265000000000000041e-02 1.091959327459335327e-02
4.280000000000001165e-02 1.061219163239002228e-02
4.295000000000000900e-02 1.031630579382181168e-02
4.310000000000000636e-02 1.003194600343704224e-02
4.325000000000000372e-02 9.759089909493923187e-03
4.340000000000000108e-02 9.497679769992828369e-03
4.355000000000001231e-02 9.247629903256893158e-03
4.370000000000000967e-02 9.008824825286865234e-03
4.385000000000000703e-02 8.781127631664276123e-03
4.400000000000000439e-02 8.564379066228866577e-03
4.415000000000000174e-02 8.358391933143138885e-03
4.430000000000001298e-02 8.162952959537506104e-03
4.445000000000001034e-02 7.977823726832866669e-03
4.460000000000000769e-02 7.802748121321201324e-03
4.475000000000000505e-02 7.637447677552700043e-03
4.490000000000000241e-02 7.481629494577646255e-03
4.505000000000001364e-02 7.334982976317405701e-03
4.520000000000001100e-02 7.197183091193437576e-03
4.535000000000000836e-02 7.067889906466007233e-03
4.550000000000000572e-02 6.946751847863197327e-03
4.565000000000000308e-02 6.833406630903482437e-03
4.580000000000000043e-02 6.727482657879590988e-03
4.595000000000001167e-02 6.628597155213356018e-03
4.610000000000000903e-02 6.536356639117002487e-03
4.625000000000000638e-02 6.450361572206020355e-03
4.640000000000000374e-02 6.370210554450750351e-03
4.655000000000000110e-02 6.295503582805395126e-03
4.670000000000001233e-02 6.225841119885444641e-03
4.685000000000000969e-02 6.160818971693515778e-03
4.700000000000000705e-02 6.100032012909650803e-03
4.715000000000000441e-02 6.043072789907455444e-03
4.730000000000000177e-02 5.989536643028259277e-03
4.745000000000001300e-02 5.939025897532701492e-03
4.760000000000001036e-02 5.891149397939443588e-03
4.775000000000000772e-02 5.845522973686456680e-03
4.790000000000000507e-02 5.801768042147159576e-03