-4.000000000000000083e-02 -0.000000000000000000e+00
-3.985000000000000347e-02 -0.000000000000000000e+00
-3.969999999999999918e-02 -0.000000000000000000e+00
-3.955000000000000182e-02 -0.000000000000000000e+00
-3.939999999999999752e-02 -0.000000000000000000e+00
-3.925000000000000017e-02 -0.000000000000000000e+00
-3.910000000000000281e-02 -0.000000000000000000e+00
-3.894999999999999851e-02 -0.000000000000000000e+00
-3.880000000000000115e-02 -0.000000000000000000e+00
-3.865000000000000380e-02 -0.000000000000000000e+00
-3.849999999999999950e-02 -0.000000000000000000e+00
-3.835000000000000214e-02 -0.000000000000000000e+00
-3.819999999999999785e-02 -0.000000000000000000e+00
-3.805000000000000049e-02 -0.000000000000000000e+00
-3.790000000000000313e-02 -0.000000000000000000e+00
-3.774999999999999883e-02 -0.000000000000000000e+00
-3.760000000000000148e-02 -0.000000000000000000e+00
-3.744999999999999718e-02 -0.000000000000000000e+00
-3.729999999999999982e-02 -0.000000000000000000e+00
-3.715000000000000246e-02 -0.000000000000000000e+00
-3.699999999999999817e-02 -0.000000000000000000e+00
-3.685000000000000081e-02 -0.000000000000000000e+00
-3.670000000000000345e-02 -0.000000000000000000e+00
-3.654999999999999916e-02 -0.000000000000000000e+00
-3.640000000000000180e-02 -0.000000000000000000e+00
-3.624999999999999750e-02 -0.000000000000000000e+00
-3.610000000000000014e-02 -0.000000000000000000e+00
-3.595000000000000279e-02 -0.000000000000000000e+00
-3.579999999999999849e-02 -0.000000000000000000e+00
-3.565000000000000113e-02 -0.000000000000000000e+00
-3.550000000000000377e-02 -0.000000000000000000e+00
-3.534999999999999948e-02 -0.000000000000000000e+00
-3.520000000000000212e-02 -0.000000000000000000e+00
-3.504999999999999782e-02 -0.000000000000000000e+00
-3.490000000000000047e-02 -0.000000000000000000e+00
-3.475000000000000311e-02 -0.000000000000000000e+00
-3.459999999999999881e-02 -0.000000000000000000e+00
-3.445000000000000145e-02 -0.000000000000000000e+00
-3.429999999999999716e-02 -0.000000000000000000e+00
-3.414999999999999980e-02 -0.000000000000000000e+00
-3.400000000000000244e-02 -0.000000000000000000e+00
-3.384999999999999815e-02 -0.000000000000000000e+00
-3.370000000000000079e-02 -0.000000000000000000e+00
-3.354999999999999649e-02 -0.000000000000000000e+00
-3.339999999999999913e-02 -0.000000000000000000e+00
-3.325000000000000178e-02 -0.000000000000000000e+00
-3.309999999999999748e-02 -0.000000000000000000e+00
-3.295000000000000012e-02 1.961817850054743899e-44
-3.280000000000000276e-02 -5.044674471569341455e-44
-3.264999999999999847e-02 -1.423719239754014144e-42
-3.250000000000000111e-02 1.195027330376203998e-41
-3.235000000000000375e-02 4.356496795739423792e-41
-3.219999999999999946e-02 -9.828735454743553432e-40
-3.205000000000000210e-02 1.052408777871081416e-39
-3.189999999999999780e-02 5.146553914600227226e-38
-3.175000000000000044e-02 -1.944829852719795569e-37
-3.160000000000000309e-02 -1.989546788908354238e-36
-3.144999999999999879e-02 1.213304889999048199e-35
-3.130000000000000143e-02 6.234795060084416532e-35
-3.115000000000000061e-02 -5.173303801865846747e-34
-3.099999999999999978e-02 -1.755571425594315836e-33
-3.085000000000000242e-02 1.713236143486245004e-32
-3.069999999999999812e-02 4.940548683765936571e-32
-3.055000000000000077e-02 -4.571379980912793890e-31
-3.039999999999999994e-02 -1.431448653679937903e-30
-3.024999999999999911e-02 9.679491434727428782e-30
-3.010000000000000175e-02 3.938885440724039442e-29
-2.994999999999999746e-02 -1.490795082772727245e-28
-2.980000000000000010e-02 -9.186304500598126346e-28
-2.964999999999999927e-02 1.159282041069305890e-27
-2.949999999999999845e-02 1.632736230415038329e-26
-2.935000000000000109e-02 1.330222864404753196e-26
-2.920000000000000026e-02 -1.901231079223315296e-25
-2.904999999999999943e-02 -5.702290914151399098e-25
-2.890000000000000208e-02 8.154560194377606580e-25
-2.874999999999999778e-02 7.781140164509143953e-24
-2.860000000000000042e-02 1.229170955876538100e-23
-2.844999999999999959e-02 -3.245382599321381043e-23
-2.829999999999999877e-02 -1.836326192391575701e-22
-2.815000000000000141e-02 -3.133268425293922491e-22
-2.800000000000000058e-02 1.667061002155899792e-22
-2.784999999999999976e-02 2.214267987957122367e-21
-2.769999999999999893e-02 6.453701105436368396e-21
-2.754999999999999810e-02 1.261226675325323075e-20
-2.740000000000000074e-02 2.008552854817872673e-20
-2.724999999999999992e-02 2.895153469685764245e-20
-2.709999999999999909e-02 3.975751525769495639e-20
-2.695000000000000173e-02 5.254096477689404877e-20
-2.679999999999999744e-02 6.706129648082416436e-20
-2.665000000000000008e-02 8.364913704526216255e-20
-2.649999999999999925e-02 1.027449763022638695e-19
-2.634999999999999842e-02 1.242837836385158390e-19
-2.620000000000000107e-02 1.483984378646064723e-19
-2.605000000000000024e-02 1.756236660101115527e-19
-2.589999999999999941e-02 2.061269462996789260e-19
-2.575000000000000205e-02 2.400199998147915357e-19
-2.559999999999999776e-02 2.778590667433000793e-19
-2.545000000000000040e-02 3.199882283706324741e-19
-2.529999999999999957e-02 3.665951512982616882e-19
-2.514999999999999875e-02 4.182900104749162910e-19
-2.500000000000000139e-02 4.755497013731272452e-19
-2.484999999999999709e-02 5.386923783359977591e-19
-2.469999999999999973e-02 6.084255651305962364e-19
-2.454999999999999891e-02 6.853567225192663068e-19
-2.439999999999999808e-02 7.699700096542929144e-19
-2.425000000000000072e-02 8.631290547939697046e-19
-2.409999999999999989e-02 9.655552111312312021e-19
-2.394999999999999907e-02 1.077974639846322396e-18
-2.379999999999999824e-02 1.201403945912070957e-18
-2.365000000000000088e-02 1.336799039923858479e-18
-2.350000000000000006e-02 1.485085536987131799e-18
-2.334999999999999923e-02 1.647585788708633500e-18
-2.319999999999999840e-02 1.825412870000130251e-18
-2.304999999999999757e-02 2.019888822275634929e-18
-2.290000000000000022e-02 2.232517046298462661e-18
-2.274999999999999939e-02 2.464730632479861567e-18
-2.259999999999999856e-02 2.718268521262571250e-18
-2.244999999999999774e-02 2.994990628253917193e-18
-2.230000000000000038e-02 3.296761004964287643e-18
-2.214999999999999955e-02 3.625688134775080268e-18
-2.199999999999999872e-02 3.984103012652469501e-18
-2.184999999999999790e-02 4.374269631933012977e-18
-2.170000000000000054e-02 4.799036389056037048e-18
-2.154999999999999971e-02 5.260947277995448550e-18
-2.139999999999999888e-02 5.763314743514216082e-18
-2.124999999999999806e-02 6.309111672733855227e-18
-2.110000000000000070e-02 6.902100083080257154e-18
-2.094999999999999987e-02 7.546078387926265365e-18
-2.079999999999999905e-02 8.244518264302764919e-18
-2.064999999999999822e-02 9.002648320861703502e-18
-2.049999999999999739e-02 9.823448062169497122e-18
-2.035000000000000003e-02 1.071491218884647079e-17
-2.019999999999999921e-02 1.167807136793586558e-17
-2.004999999999999838e-02 1.272410908131939842e-17
-1.989999999999999755e-02 1.385214190010286269e-17
-1.975000000000000019e-02 1.507665210245083678e-17
-1.959999999999999937e-02 1.639545758590740582e-17
-1.944999999999999854e-02 1.782534846254617115e-17
-1.929999999999999771e-02 1.936696497016124883e-17
-1.915000000000000036e-02 2.103313502569211120e-17
-1.899999999999999953e-02 2.283133303315378743e-17
-1.884999999999999870e-02 2.476833194740186170e-17
-1.869999999999999787e-02 2.686306758701889792e-17
-1.855000000000000052e-02 2.911183087413820832e-17
-1.839999999999999969e-02 3.154708699344127413e-17
-1.824999999999999886e-02 3.415443638482477224e-17
-1.809999999999999803e-02 3.697546307204296846e-17
-1.794999999999999721e-02 3.999539360935566571e-17
-1.779999999999999985e-02 4.325943507160011207e-17
-1.764999999999999902e-02 4.675238057039513267e-17
-1.749999999999999820e-02 5.051505312333144453e-17
-1.734999999999999737e-02 5.454849166925841426e-17
-1.720000000000000001e-02 5.889054799300646841e-17
-1.704999999999999918e-02 6.355957226928448333e-17
-1.689999999999999836e-02 6.859758527321015284e-17
-1.674999999999999753e-02 7.403071929469525218e-17
-1.660000000000000017e-02 7.986168086870405487e-17
-1.644999999999999934e-02 8.598159979173478160e-17
-1.629999999999999852e-02 9.218393237355539159e-17
-1.614999999999999769e-02 9.810661173388407399e-17
-1.600000000000000033e-02 1.035928904553644803e-16
-1.584999999999999951e-02 1.091621254661166046e-16
-1.569999999999999868e-02 1.171607237614879669e-16
-1.554999999999999785e-02 1.327691454643307686e-16
-1.539999999999999702e-02 1.639777302987806425e-16
-1.524999999999999967e-02 2.180780422772680255e-16
-1.509999999999999884e-02 2.917750570605246851e-16
-1.494999999999999801e-02 3.530109598751395060e-16
-1.479999999999999719e-02 3.180362283291805975e-16
-1.464999999999999983e-02 3.854455190216215729e-17
-1.449999999999999900e-02 -6.693326347003997895e-16
-1.434999999999999817e-02 -1.906843747232433127e-15
-1.419999999999999735e-02 -3.439716519021461874e-15
-1.404999999999999999e-02 -4.311822912063910385e-15
-1.389999999999999916e-02 -2.447207780658603588e-15
-1.374999999999999833e-02 5.433173408517146669e-15
-1.359999999999999751e-02 2.300476432612330591e-14
-1.344999999999999668e-02 5.191407335481193486e-14
-1.329999999999999932e-02 8.718932964935782737e-14
-1.314999999999999850e-02 1.107912115457139468e-13
-1.299999999999999767e-02 8.537131234147982140e-14
-1.284999999999999684e-02 -4.705495704453860339e-14
-1.269999999999999948e-02 -3.540618861465338885e-13
-1.254999999999999866e-02 -8.806390404229869073e-13
-1.239999999999999783e-02 -1.589744069892262690e-12
-1.224999999999999700e-02 -2.278790437598710028e-12
-1.209999999999999964e-02 -2.492373278248360968e-12
-1.194999999999999882e-02 -1.475287123367530207e-12
-1.179999999999999799e-02 1.767447733308502578e-12
-1.164999999999999716e-02 8.226638988084733484e-12
-1.149999999999999981e-02 1.840405779163223343e-11
-1.134999999999999898e-02 3.159252026652126233e-11
-1.119999999999999815e-02 4.503324796401031449e-11
-1.104999999999999732e-02 5.320199836233996393e-11
-1.089999999999999650e-02 4.758716684594155311e-11
-1.074999999999999914e-02 1.736772531346630899e-11
-1.059999999999999831e-02 -4.873779158032220948e-11
-1.044999999999999749e-02 -1.594619436495747777e-10
-1.029999999999999666e-02 -3.173236395870304705e-10
-1.014999999999999930e-02 -5.153013571401743320e-10
-9.999999999999998473e-03 -7.352110031888514641e-10
-9.849999999999997646e-03 -9.490577213000506163e-10
-9.699999999999996819e-03 -1.124108139904933523e-09
-9.549999999999999462e-03 -1.231189816763844647e-09
-9.399999999999998634e-03 -1.254542358886112652e-09
-9.249999999999997807e-03 -1.199708221655271245e-09
-9.099999999999996980e-03 -1.096550072965385425e-09
-8.949999999999999623e-03 -9.948494250622275104e-10
-8.799999999999998795e-03 -9.517848731377398508e-10
-8.649999999999997968e-03 -1.014385908604253927e-09
-8.500000000000000611e-03 -1.202896893204297157e-09
-8.349999999999996314e-03 -1.500647606178517890e-09
-8.199999999999998956e-03 -1.856247155984647179e-09
-8.049999999999994660e-03 -2.199900261956599934e-09
-7.899999999999997302e-03 -2.467798632110884682e-09
-7.749999999999999944e-03 -2.627989159620369719e-09
-7.599999999999995648e-03 -2.696186829354019210e-09
-7.449999999999998290e-03 -2.733142601130111871e-09
-7.300000000000000933e-03 -2.823228539838851248e-09
-7.149999999999996636e-03 -3.040510510032845559e-09
-6.999999999999999278e-03 -3.417300220576180436e-09
-6.849999999999994982e-03 -3.928069869374439804e-09
-6.699999999999997624e-03 -4.499811190328273369e-09
-6.550000000000000266e-03 -5.042500639262925688e-09
-6.399999999999995970e-03 -5.491834098592107694e-09
-6.249999999999998612e-03 -5.842382133636192520e-09
-6.099999999999994316e-03 -6.152435894080099388e-09
-5.949999999999996958e-03 -6.520043172031364520e-09
-5.799999999999999600e-03 -7.040426908133667894e-09
-5.649999999999995304e-03 -7.755091679939596361e-09
-5.499999999999997946e-03 -8.636210857559944998e-09
-5.350000000000000588e-03 -9.596536010292311403e-09
-5.199999999999996292e-03 -1.053699172359756631e-08
-5.049999999999998934e-03 -1.140039085356647774e-08
-4.899999999999994638e-03 -1.220293999182331390e-08
-4.749999999999997280e-03 -1.303230501292773624e-08
-4.599999999999999922e-03 -1.400560734055034118e-08
-4.449999999999995626e-03 -1.520635173335449508e-08
-4.299999999999998268e-03 -1.664280979696286522e-08
-4.150000000000000910e-03 -1.824678186324035778e-08
-3.999999999999996614e-03 -1.991116249655533466e-08
-3.849999999999999256e-03 -2.155389644542538008e-08
-3.699999999999994960e-03 -2.317291958320311096e-08
-3.549999999999997602e-03 -2.484844507932848501e-08
-3.400000000000000244e-03 -2.670878629373873991e-08
-3.249999999999995948e-03 -2.885279215547598142e-08
-3.099999999999998590e-03 -3.130965353648207383e-08
-2.949999999999994293e-03 -3.400922921059645887e-08
-2.799999999999996936e-03 -3.684647253976436332e-08
-2.649999999999999578e-03 -3.973759632458495616e-08
-2.499999999999995282e-03 -4.268417441721794603e-08
-2.349999999999997924e-03 -4.578493673079719883e-08
-2.200000000000000566e-03 -4.917943030591231945e-08
-2.049999999999996270e-03 -5.296119809372612508e-08
-1.899999999999998912e-03 -5.715563489161468169e-08
-1.749999999999994615e-03 -6.167591237726810505e-08
-1.599999999999997258e-03 -6.643021066565779620e-08
-1.449999999999999900e-03 -7.133953516813562601e-08
-1.299999999999995604e-03 -7.645392230415382073e-08
-1.149999999999998246e-03 -8.188621336557844188e-08
-9.999999999999939493e-04 -8.776280679967385367e-08
-8.499999999999965916e-04 -9.420993052344783791e-08
-6.999999999999992339e-04 -1.011879007251081930e-07
-5.499999999999949374e-04 -1.086211582901341899e-07
-3.999999999999975797e-04 -1.163936005355026282e-07
-2.500000000000002220e-04 -1.244982712478304165e-07
-9.999999999999592548e-05 -1.330221834905387368e-07
5.000000000000143219e-05 -1.421249464783613803e-07
2.000000000000057288e-04 -1.519481287459711893e-07
3.500000000000030864e-04 -1.624992052029483602e-07
5.000000000000004441e-04 -1.737612080887629418e-07
6.500000000000047407e-04 -1.856112135101284366e-07
8.000000000000020983e-04 -1.980207429141955799e-07
9.500000000000063949e-04 -2.110145942424423993e-07
1.100000000000003753e-03 -2.247678310141054681e-07
1.250000000000001110e-03 -2.394331488630996319e-07
1.400000000000005407e-03 -2.551080626744806068e-07
1.550000000000002764e-03 -2.717366101023799274e-07
1.700000000000000122e-03 -2.892921884267707355e-07
1.850000000000004419e-03 -3.076516748024005210e-07
2.000000000000001776e-03 -3.269567514507798478e-07
2.150000000000006073e-03 -3.472113689895195421e-07
2.300000000000003431e-03 -3.686357388232863741e-07
2.450000000000000788e-03 -3.913274042588454904e-07
2.600000000000005085e-03 -4.153458803557441570e-07
2.750000000000002442e-03 -4.406367395404231502e-07
2.899999999999999800e-03 -4.670680766594159650e-07
3.050000000000004097e-03 -4.947011689182545524e-07
3.200000000000001454e-03 -5.236940410213719588e-07
3.350000000000005751e-03 -5.542333383345976472e-07
3.500000000000003109e-03 -5.864319518877891824e-07
3.650000000000000466e-03 -6.202715781000733841e-07
3.800000000000004763e-03 -6.556846301464247517e-07
3.950000000000002121e-03 -6.926175046828575432e-07
4.100000000000006417e-03 -7.311599006243341137e-07
4.250000000000003775e-03 -7.713942409282026347e-07
4.400000000000001132e-03 -8.136152018778375350e-07
4.550000000000005429e-03 -8.577218864047608804e-07
4.700000000000002787e-03 -9.040012400873820297e-07
4.850000000000000144e-03 -9.523025141788821202e-07
5.000000000000004441e-03 -1.002535441330110189e-06
5.150000000000001799e-03 -1.054823314916575328e-06
5.300000000000006095e-03 -1.108981791730911937e-06
5.450000000000003453e-03 -1.165543380921008065e-06
5.600000000000000810e-03 -1.224312086378631648e-06
5.750000000000005107e-03 -1.285784037463599816e-06
5.900000000000002465e-03 -1.349584977106133010e-06
6.050000000000006761e-03 -1.415566998730355408e-06
6.200000000000004119e-03 -1.484082531533204019e-06
6.350000000000001477e-03 -1.555224116600584239e-06
6.500000000000005773e-03 -1.628790187169215642e-06
6.650000000000003131e-03 -1.704725946183316410e-06
6.800000000000000488e-03 -1.783507514119264670e-06
6.950000000000004785e-03 -1.865273020484892186e-06
7.100000000000002143e-03 -1.949359784703119658e-06
7.250000000000006439e-03 -2.036704472629935481e-06
7.400000000000003797e-03 -2.125960691046202555e-06
7.550000000000001155e-03 -2.217799874415504746e-06
7.700000000000005451e-03 -2.313059894731850363e-06
7.850000000000002809e-03 -2.411364903309731744e-06
8.000000000000000167e-03 -2.512304718038649298e-06
8.150000000000004463e-03 -2.615375251480145380e-06
8.300000000000001821e-03 -2.720943484746385366e-06
8.450000000000006117e-03 -2.829855247910018079e-06
8.600000000000003475e-03 -2.942215132861747406e-06
8.750000000000000833e-03 -3.057016556340386160e-06
8.900000000000005129e-03 -3.173906634401646443e-06
9.050000000000002487e-03 -3.293361942269257270e-06
9.200000000000006783e-03 -3.415328592382138595e-06
9.350000000000004141e-03 -3.541269052220741287e-06
9.500000000000001499e-03 -3.668666977318935096e-06
9.650000000000005795e-03 -3.797573299380019307e-06
9.800000000000003153e-03 -3.929630111088044941e-06
9.950000000000000511e-03 -4.065130724484333768e-06
1.010000000000000481e-02 -4.203128355584340170e-06
1.025000000000000216e-02 -4.342562988313147798e-06
1.040000000000000646e-02 -4.481813448364846408e-06
1.055000000000000382e-02 -4.623639597411965951e-06
1.070000000000000118e-02 -4.768855433212593198e-06
1.085000000000000547e-02 -4.916608304483816028e-06
1.100000000000000283e-02 -5.064896868134383112e-06
1.115000000000000713e-02 -5.212049927649786696e-06
1.130000000000000449e-02 -5.360741852200590074e-06
1.145000000000000184e-02 -5.512041752808727324e-06
1.160000000000000614e-02 -5.665895059792092070e-06
1.175000000000000350e-02 -5.817455985379638150e-06
1.190000000000000085e-02 -5.967277502350043505e-06
1.205000000000000515e-02 -6.118061719462275505e-06
1.220000000000000251e-02 -6.272523933148477226e-06
1.235000000000000681e-02 -6.425141691579483449e-06
1.250000000000000416e-02 -6.574677627213532105e-06
1.265000000000000152e-02 -6.721472800563788041e-06
1.280000000000000582e-02 -6.869027401990024373e-06
1.295000000000000318e-02 -7.017810276011005044e-06
1.310000000000000747e-02 -7.164227554312674329e-06
1.325000000000000483e-02 -7.307074611162533984e-06
1.340000000000000219e-02 -7.443921731464797631e-06
1.355000000000000648e-02 -7.581718818983063102e-06
1.370000000000000384e-02 -7.719134373473934829e-06
1.385000000000000120e-02 -7.853293027437757701e-06
1.400000000000000550e-02 -7.980819646036252379e-06
1.415000000000000285e-02 -8.101265848381444812e-06
1.430000000000000715e-02 -8.220184099627658725e-06
1.445000000000000451e-02 -8.336021892318967730e-06
1.460000000000000187e-02 -8.446070751233492047e-06
1.475000000000000616e-02 -8.549887752451468259e-06
1.490000000000000352e-02 -8.646039532322902232e-06
1.505000000000000088e-02 -8.736780728213489056e-06
1.520000000000000517e-02 -8.824235010251868516e-06
1.535000000000000253e-02 -8.906336006475612521e-06
1.550000000000000683e-02 -8.979374797490891069e-06
1.565000000000000419e-02 -9.042256351676769555e-06
1.580000000000000154e-02 -9.098222108150366694e-06
1.595000000000000584e-02 -9.146591764874756336e-06
1.610000000000000320e-02 -9.185254384647123516e-06
1.625000000000000749e-02 -9.214209967467468232e-06
1.640000000000000485e-02 -9.236153346137143672e-06
1.655000000000000221e-02 -9.245311957783997059e-06
1.670000000000000651e-02 -9.249553841073065996e-06
1.685000000000000386e-02 -9.239811333827674389e-06
1.700000000000000122e-02 -9.220857464242726564e-06
1.715000000000000552e-02 -9.191183380607981235e-06
1.730000000000000288e-02 -9.149656762019731104e-06
1.745000000000000717e-02 -9.094018423638772219e-06
1.760000000000000453e-02 -9.028238309838343412e-06
1.775000000000000189e-02 -8.953147698775865138e-06
1.790000000000000618e-02 -8.865602467267308384e-06
1.805000000000000354e-02 -8.763483492657542229e-06
1.820000000000000784e-02 -8.648536095279268920e-06
1.835000000000000520e-02 -8.522149983036797494e-06
1.850000000000000255e-02 -8.381309271499048918e-06
1.865000000000000685e-02 -8.228753358707763255e-06
1.880000000000000421e-02 -8.063740096986293793e-06
1.895000000000000157e-02 -7.884331353125162423e-06
1.910000000000000586e-02 -7.693101906625088304e-06
1.925000000000000322e-02 -7.490399184462148696e-06
1.940000000000000752e-02 -7.275608368217945099e-06
1.955000000000000487e-02 -7.042914148769341409e-06
1.970000000000000223e-02 -6.799945367674808949e-06
1.985000000000000653e-02 -6.543543349835090339e-06
2.000000000000000389e-02 -6.274267434491775930e-06
2.015000000000000818e-02 -5.993512331770034507e-06
2.030000000000000554e-02 -5.697593678632983938e-06
2.045000000000000290e-02 -5.390027126850327477e-06
2.060000000000000719e-02 -5.071056875749491155e-06
2.075000000000000455e-02 -4.740607437270227820e-06
2.090000000000000191e-02 -4.399574208946432918e-06
2.105000000000000621e-02 -4.047557013109326363e-06
2.120000000000000356e-02 -3.683714112412417307e-06
2.135000000000000786e-02 -3.310232386866118759e-06
2.150000000000000522e-02 -2.925708940892945975e-06
2.165000000000000258e-02 -2.533560063966433518e-06
2.180000000000000687e-02 -2.129111408066819422e-06
2.195000000000000423e-02 -1.718080397949961480e-06
2.210000000000000159e-02 -1.295726406169706024e-06
2.225000000000000588e-02 -8.690168442626600154e-07
2.240000000000000324e-02 -4.373933961687725969e-07
2.255000000000000754e-02 4.044750312459655106e-09
2.270000000000000490e-02 4.522389644989743829e-07
2.285000000000000225e-02 9.084496923605911434e-07
2.299999999999999961e-02 1.373280383631936274e-06
2.315000000000001085e-02 1.838527623476693407e-06
2.330000000000000820e-02 2.305857833562185988e-06
2.345000000000000556e-02 2.775247367026167922e-06
2.360000000000000292e-02 3.248118673582212068e-06
2.375000000000000028e-02 3.721801704159588553e-06
2.390000000000001151e-02 4.197549060336314142e-06
2.405000000000000887e-02 4.677002834796439856e-06
2.420000000000000623e-02 5.158813110028859228e-06
2.435000000000000359e-02 5.640547897201031446e-06
2.450000000000000094e-02 6.120610123616643250e-06
2.464999999999999830e-02 6.594657861569430679e-06
2.480000000000000954e-02 7.061644282657653093e-06
2.495000000000000689e-02 7.524338798248209059e-06
2.510000000000000425e-02 7.986971468199044466e-06
2.525000000000000161e-02 8.449197594018187374e-06
2.539999999999999897e-02 8.910911674320232123e-06
2.555000000000001020e-02 9.369288818561471999e-06
2.570000000000000756e-02 9.819762453844305128e-06
2.585000000000000492e-02 1.025815527100348845e-05
2.600000000000000228e-02 1.068270103132817894e-05
2.614999999999999963e-02 1.109482855099486187e-05
2.630000000000001087e-02 1.150056505139218643e-05
2.645000000000000823e-02 1.190261173178441823e-05
2.660000000000000558e-02 1.230305588251212612e-05
2.675000000000000294e-02 1.270020220545120537e-05
2.690000000000000030e-02 1.308844457525992766e-05
2.705000000000001154e-02 1.345993950963020325e-05
2.720000000000000889e-02 1.380937646899838001e-05
2.735000000000000625e-02 1.413810969097539783e-05
2.750000000000000361e-02 1.445356610929593444e-05
2.765000000000000097e-02 1.476297165936557576e-05
2.780000000000001220e-02 1.507072192907799035e-05
2.795000000000000956e-02 1.537597563583403826e-05
2.810000000000000692e-02 1.567234176036436111e-05
2.825000000000000427e-02 1.595212233951315284e-05
2.840000000000000163e-02 1.620774128241464496e-05
2.854999999999999899e-02 1.643467112444341183e-05
2.870000000000001023e-02 1.664225601416546851e-05
2.885000000000000758e-02 1.683836489974055439e-05
2.900000000000000494e-02 1.703126145002897829e-05
2.915000000000000230e-02 1.722487832012120634e-05
2.929999999999999966e-02 1.741495543683413416e-05
2.945000000000001089e-02 1.759376027621328831e-05
2.960000000000000825e-02 1.774648808350320905e-05
2.975000000000000561e-02 1.786910615919623524e-05
2.990000000000000296e-02 1.796319338609464467e-05
3.005000000000000032e-02 1.803971099434420466e-05
3.020000000000001156e-02 1.811446600186172873e-05
3.035000000000000892e-02 1.819145472836680710e-05
3.050000000000000627e-02 1.826958396122790873e-05
3.065000000000000363e-02 1.833699934650212526e-05
3.080000000000000099e-02 1.838717980717774481e-05
3.095000000000001222e-02 1.840730692492797971e-05
3.110000000000000958e-02 1.840034019551239908e-05
3.125000000000000694e-02 1.837141462601721287e-05
3.140000000000000430e-02 1.833102942327968776e-05
3.155000000000000165e-02 1.829609936976339668e-05
3.169999999999999901e-02 1.826568404794670641e-05
3.185000000000001025e-02 1.823349703045096248e-05
3.200000000000000761e-02 1.818727650970686227e-05
3.215000000000000496e-02 1.811585025279782712e-05
3.230000000000000232e-02 1.802032420528121293e-05
3.244999999999999968e-02 1.790227724995929748e-05
3.260000000000001091e-02 1.776968929334543645e-05
3.275000000000000827e-02 1.763769796525593847e-05
3.290000000000000563e-02 1.750680894474498928e-05
3.305000000000000299e-02 1.737862294248770922e-05
3.320000000000000034e-02 1.724602407193742692e-05
3.335000000000001158e-02 1.709990101517178118e-05
3.350000000000000894e-02 1.692971090960782021e-05
3.365000000000000629e-02 1.673592487350106239e-05
3.380000000000000365e-02 1.652992978051770478e-05
3.395000000000000101e-02 1.631925624678842723e-05
3.410000000000001225e-02 1.611056904948782176e-05
3.425000000000000960e-02 1.589710336702410132e-05
3.440000000000000696e-02 1.568107472849078476e-05
3.455000000000000432e-02 1.545033228467218578e-05
3.470000000000000168e-02 1.520398291177116334e-05
3.485000000000001291e-02 1.494581010774709284e-05
3.500000000000001027e-02 1.467807305743917823e-05
3.515000000000000763e-02 1.440227242710534483e-05
3.530000000000000498e-02 1.411993434885516763e-05
3.545000000000000234e-02 1.383171547786332667e-05
3.559999999999999970e-02 1.353746665699873120e-05
3.575000000000001094e-02 1.323446667811367661e-05
3.590000000000000829e-02 1.292311844736104831e-05
3.605000000000000565e-02 1.260174667550018057e-05
3.620000000000000301e-02 1.227030679729068652e-05
3.635000000000000037e-02 1.193291518575279042e-05
3.650000000000001160e-02 1.158860050054499879e-05
3.665000000000000896e-02 1.123384390666615218e-05
3.680000000000000632e-02 1.086770225811051205e-05
3.695000000000000367e-02 1.049129696184536442e-05
3.710000000000000103e-02 1.010260893963277340e-05
3.725000000000001227e-02 9.711739039630629122e-06
3.740000000000000963e-02 9.320557182945776731e-06
3.755000000000000698e-02 8.928417628339957446e-06
3.770000000000000434e-02 8.529482329322490841e-06
3.785000000000000170e-02 8.116647222777828574e-06
3.800000000000001293e-02 7.684723641432356089e-06
3.815000000000001029e-02 7.237308182084234431e-06
3.830000000000000765e-02 6.779614068364026025e-06
3.845000000000000501e-02 6.318317900877445936e-06
3.860000000000000236e-02 5.860078545083524659e-06
3.874999999999999972e-02 5.409061486716382205e-06
3.890000000000001096e-02 4.953904408466769382e-06
3.905000000000000832e-02 4.493316737352870405e-06
3.920000000000000567e-02 4.013843863504007459e-06
3.935000000000000303e-02 3.515821845212485641e-06
3.950000000000000039e-02 3.007758095918688923e-06
3.965000000000001162e-02 2.491003670002100989e-06
3.980000000000000898e-02 1.980654360522748902e-06
3.995000000000000634e-02 1.477312139286368620e-06
4.010000000000000370e-02 9.800957059269421734e-07
4.025000000000000105e-02 4.791565970663214102e-07
4.040000000000001229e-02 -3.123784608760615811e-08
4.055000000000000965e-02 -5.539768039852788206e-07
4.070000000000000701e-02 -1.086613679035508540e-06
4.085000000000000436e-02 -1.623124262550845742e-06
4.100000000000000172e-02 -2.153296918550040573e-06
4.115000000000001296e-02 -2.674941697478061542e-06
4.130000000000001031e-02 -3.189626113453414291e-06
4.145000000000000767e-02 -3.701523382915183902e-06
4.160000000000000503e-02 -4.212047770124627277e-06
4.175000000000000239e-02 -4.723891379398992285e-06
4.190000000000001362e-02 -5.232472176430746913e-06
4.205000000000001098e-02 -5.737826995755312964e-06
4.220000000000000834e-02 -6.236111858015647158e-06
4.235000000000000570e-02 -6.727351774316048250e-06
4.250000000000000305e-02 -7.210894636955345050e-06
4.265000000000000041e-02 -7.687841389270033687e-06
4.280000000000001165e-02 -8.155770046869292855e-06
4.295000000000000900e-02 -8.612687452114187181e-06
4.310000000000000636e-02 -9.055344889929983765e-06
4.325000000000000372e-02 -9.480707376496866345e-06
4.340000000000000108e-02 -9.891548870655242354e-06
4.355000000000001231e-02 -1.028942278935573995e-05
4.370000000000000967e-02 -1.067998164216987789e-05
4.385000000000000703e-02 -1.106327908928506076e-05
4.400000000000000439e-02 -1.143180452345404774e-05
4.415000000000000174e-02 -1.177994636236689985e-05
4.430000000000001298e-02 -1.210221034853020683e-05
4.445000000000001034e-02 -1.239686571352649480e-05
4.460000000000000769e-02 -1.266592789761489257e-05
4.475000000000000505e-02 -1.291861917707137764e-05
4.490000000000000241e-02 -1.315768622589530423e-05
4.505000000000001364e-02 -1.338513266091467813e-05
4.520000000000001100e-02 -1.359677480650134385e-05
4.535000000000000836e-02 -1.378558317810529843e-05
4.550000000000000572e-02 -1.394472747051622719e-05
4.565000000000000308e-02 -1.407079162163427100e-05
4.580000000000000043e-02 -1.416517989127896726e-05
4.595000000000001167e-02 -1.423396406607935205e-05
4.610000000000000903e-02 -1.428509585821302608e-05
4.625000000000000638e-02 -1.432021508662728593e-05
4.640000000000000374e-02 -1.433608304068911821e-05
4.655000000000000110e-02 -1.432960652891779318e-05
4.670000000000001233e-02 -1.429391522833611816e-05
4.685000000000000969e-02 -1.422870809619780630e-05
4.700000000000000705e-02 -1.413328118360368535e-05
4.715000000000000441e-02 -1.401074678142322227e-05
4.730000000000000177e-02 -1.386613166687311605e-05
4.745000000000001300e-02 -1.369995243294397369e-05
4.760000000000001036e-02 -1.351215814793249592e-05
4.775000000000000772e-02 -1.330161830992437899e-05
4.790000000000000507e-02 -1.306948615820147097e-05