-4.000000000000000083e-02 0.000000000000000000e+00
-3.985000000000000347e-02 0.000000000000000000e+00
-3.969999999999999918e-02 0.000000000000000000e+00
-3.955000000000000182e-02 0.000000000000000000e+00
-3.939999999999999752e-02 0.000000000000000000e+00
-3.925000000000000017e-02 0.000000000000000000e+00
-3.910000000000000281e-02 0.000000000000000000e+00
-3.894999999999999851e-02 0.000000000000000000e+00
-3.880000000000000115e-02 0.000000000000000000e+00
-3.865000000000000380e-02 0.000000000000000000e+00
-3.849999999999999950e-02 0.000000000000000000e+00
-3.835000000000000214e-02 0.000000000000000000e+00
-3.819999999999999785e-02 0.000000000000000000e+00
-3.805000000000000049e-02 0.000000000000000000e+00
-3.790000000000000313e-02 0.000000000000000000e+00
-3.774999999999999883e-02 0.000000000000000000e+00
-3.760000000000000148e-02 0.000000000000000000e+00
-3.744999999999999718e-02 0.000000000000000000e+00
-3.729999999999999982e-02 0.000000000000000000e+00
-3.715000000000000246e-02 0.000000000000000000e+00
-3.699999999999999817e-02 0.000000000000000000e+00
-3.685000000000000081e-02 0.000000000000000000e+00
-3.670000000000000345e-02 0.000000000000000000e+00
-3.654999999999999916e-02 0.000000000000000000e+00
-3.640000000000000180e-02 0.000000000000000000e+00
-3.624999999999999750e-02 0.000000000000000000e+00
-3.610000000000000014e-02 0.000000000000000000e+00
-3.595000000000000279e-02 0.000000000000000000e+00
-3.579999999999999849e-02 0.000000000000000000e+00
-3.565000000000000113e-02 0.000000000000000000e+00
-3.550000000000000377e-02 0.000000000000000000e+00
-3.534999999999999948e-02 0.000000000000000000e+00
-3.520000000000000212e-02 0.000000000000000000e+00
-3.504999999999999782e-02 0.000000000000000000e+00
-3.490000000000000047e-02 0.000000000000000000e+00
-3.475000000000000311e-02 0.000000000000000000e+00
-3.459999999999999881e-02 0.000000000000000000e+00
-3.445000000000000145e-02 0.000000000000000000e+00
-3.429999999999999716e-02 0.000000000000000000e+00
-3.414999999999999980e-02 0.000000000000000000e+00
-3.400000000000000244e-02 0.000000000000000000e+00
-3.384999999999999815e-02 -2.802596928649634142e-45
-3.370000000000000079e-02 2.101947696487225606e-44
-3.354999999999999649e-02 1.359259510395072559e-43
-3.339999999999999913e-02 -4.559825202912954749e-42
-3.325000000000000178e-02 2.923669115967298337e-41
-3.309999999999999748e-02 2.672108015651707176e-40
-3.295000000000000012e-02 -5.285606723033028878e-39
-3.280000000000000276e-02 1.274449283958127385e-38
-3.264999999999999847e-02 3.791184969261506089e-37
-3.250000000000000111e-02 -3.166234642448288764e-36
-3.235000000000000375e-02 -1.169849911639676973e-35
-3.219999999999999946e-02 2.608793209467874660e-34
-3.205000000000000210e-02 -2.716887491454417030e-34
-3.189999999999999780e-02 -1.367436562201037104e-32
-3.175000000000000044e-02 5.126053447269201762e-32
-3.160000000000000309e-02 5.291270118672754929e-31
-3.144999999999999879e-02 -3.205570461585032192e-30
-3.130000000000000143e-02 -1.659860766547539452e-29
-3.115000000000000061e-02 1.367618622060795850e-28
-3.099999999999999978e-02 4.677133869971526883e-28
-3.085000000000000242e-02 -4.528885123612827745e-27
-3.069999999999999812e-02 -1.315740025297356733e-26
-3.055000000000000077e-02 1.207851309520409503e-25
-3.039999999999999994e-02 3.805974561627127147e-25
-3.024999999999999911e-02 -2.555167014804265277e-24
-3.010000000000000175e-02 -1.045170254139004406e-23
-2.994999999999999746e-02 3.928476189813980469e-23
-2.980000000000000010e-02 2.433127235095134911e-22
-2.964999999999999927e-02 -3.036107015061619592e-22
-2.949999999999999845e-02 -4.317564122964644141e-21
-2.935000000000000109e-02 -3.558455870401399050e-21
-2.920000000000000026e-02 5.018319953191101586e-20
-2.904999999999999943e-02 1.510504823060280481e-19
-2.890000000000000208e-02 -2.139904741694289279e-19
-2.874999999999999778e-02 -2.055927013613038962e-18
-2.860000000000000042e-02 -3.260569578418408161e-18
-2.844999999999999959e-02 8.540152615229217010e-18
-2.829999999999999877e-02 4.851417932218202546e-17
-2.815000000000000141e-02 8.299277124545407819e-17
-2.800000000000000058e-02 -4.342271721579562952e-17
-2.784999999999999976e-02 -5.842173643252489453e-16
-2.769999999999999893e-02 -1.705296598477127040e-15
-2.754999999999999810e-02 -3.335521090355579067e-15
-2.740000000000000074e-02 -5.315451075441849499e-15
-2.724999999999999992e-02 -7.665595656608688302e-15
-2.709999999999999909e-02 -1.053093955761348274e-14
-2.695000000000000173e-02 -1.392226127271004379e-14
-2.679999999999999744e-02 -1.777652291589781192e-14
-2.665000000000000008e-02 -2.218133818710898292e-14
-2.649999999999999925e-02 -2.725391865855165963e-14
-2.634999999999999842e-02 -3.297804873148360572e-14
-2.620000000000000107e-02 -3.938947827847663619e-14
-2.605000000000000024e-02 -4.663027844170782032e-14
-2.589999999999999941e-02 -5.474613817835205509e-14
-2.575000000000000205e-02 -6.376767603538668894e-14
-2.559999999999999776e-02 -7.384263149947181692e-14
-2.545000000000000040e-02 -8.506318886032301907e-14
-2.529999999999999957e-02 -9.748148468990969207e-14
-2.514999999999999875e-02 -1.112592006372037368e-13
-2.500000000000000139e-02 -1.265243335449306450e-13
-2.484999999999999709e-02 -1.433637686646879739e-13
-2.469999999999999973e-02 -1.619661842795425133e-13
-2.454999999999999891e-02 -1.824931129606674474e-13
-2.439999999999999808e-02 -2.050772746065021579e-13
-2.425000000000000072e-02 -2.299473274552238378e-13
-2.409999999999999989e-02 -2.573007182749692534e-13
-2.394999999999999907e-02 -2.873286461188562235e-13
-2.379999999999999824e-02 -3.203120277697757423e-13
-2.365000000000000088e-02 -3.564933721486585050e-13
-2.350000000000000006e-02 -3.961366553794504197e-13
-2.334999999999999923e-02 -4.395838619324077268e-13
-2.319999999999999840e-02 -4.871368607974047027e-13
-2.304999999999999757e-02 -5.391516226527226507e-13
-2.290000000000000022e-02 -5.960387890711904557e-13
-2.274999999999999939e-02 -6.581816797308903677e-13
-2.259999999999999856e-02 -7.260493747017482402e-13
-2.244999999999999774e-02 -8.001326380971396368e-13
-2.230000000000000038e-02 -8.809335639431425946e-13
-2.214999999999999955e-02 -9.690300862078005117e-13
-2.199999999999999872e-02 -1.065043235895513085e-12
-2.184999999999999790e-02 -1.169581250425044683e-12
-2.170000000000000054e-02 -1.283417599626246464e-12
-2.154999999999999971e-02 -1.407233054043222076e-12
-2.139999999999999888e-02 -1.541912756329588685e-12
-2.124999999999999806e-02 -1.688280591716218026e-12
-2.110000000000000070e-02 -1.847301174875970453e-12
-2.094999999999999987e-02 -2.020006341016400420e-12
-2.079999999999999905e-02 -2.207385533040118197e-12
-2.064999999999999822e-02 -2.410808315131407475e-12
-2.049999999999999739e-02 -2.631140531145215178e-12
-2.035000000000000003e-02 -2.870357163758940899e-12
-2.019999999999999921e-02 -3.128925287268491395e-12
-2.004999999999999838e-02 -3.409698521791848513e-12
-1.989999999999999755e-02 -3.712630029795160880e-12
-1.975000000000000019e-02 -4.041476788646525264e-12
-1.959999999999999937e-02 -4.395922428152010397e-12
-1.944999999999999854e-02 -4.780140259313947482e-12
-1.929999999999999771e-02 -5.194351893056392555e-12
-1.915000000000000036e-02 -5.642206320211062831e-12
-1.899999999999999953e-02 -6.125645563709314345e-12
-1.884999999999999870e-02 -6.646540956500857078e-12
-1.869999999999999787e-02 -7.209850771960901739e-12
-1.855000000000000052e-02 -7.814734970246206558e-12
-1.839999999999999969e-02 -8.469651195663896459e-12
-1.824999999999999886e-02 -9.171241890926218332e-12
-1.809999999999999803e-02 -9.930708165517554420e-12
-1.794999999999999721e-02 -1.074373316006793644e-11
-1.779999999999999985e-02 -1.162222575123994517e-11
-1.764999999999999902e-02 -1.256323951120963400e-11
-1.749999999999999820e-02 -1.357731808926398998e-11
-1.734999999999999737e-02 -1.466456990562026164e-11
-1.720000000000000001e-02 -1.583344393096819402e-11
-1.704999999999999918e-02 -1.708682154100138462e-11
-1.689999999999999836e-02 -1.843243439825226204e-11
-1.674999999999999753e-02 -1.987408501658016746e-11
-1.660000000000000017e-02 -2.142102988045291312e-11
-1.644999999999999934e-02 -2.307604801687901386e-11
-1.629999999999999852e-02 -2.485118534567565263e-11
-1.614999999999999769e-02 -2.674818699865966209e-11
-1.600000000000000033e-02 -2.878106433734650693e-11
-1.584999999999999951e-02 -3.095224423987907869e-11
-1.569999999999999868e-02 -3.327554898291396057e-11
-1.554999999999999785e-02 -3.575642559816571975e-11
-1.539999999999999702e-02 -3.840719756120769546e-11
-1.524999999999999967e-02 -4.123648991716244439e-11
-1.509999999999999884e-02 -4.425618552184040766e-11
-1.494999999999999801e-02 -4.747641862978824179e-11
-1.479999999999999719e-02 -5.091060906181610335e-11
-1.464999999999999983e-02 -5.456912352541642974e-11
-1.449999999999999900e-02 -5.846742534565407823e-11
-1.434999999999999817e-02 -6.261666879447957967e-11
-1.419999999999999735e-02 -6.703319843648358756e-11
-1.404999999999999999e-02 -7.173182881015094381e-11
-1.389999999999999916e-02 -7.672880386611069525e-11
-1.374999999999999833e-02 -8.204420476332074941e-11
-1.359999999999999751e-02 -8.769399095776009290e-11
-1.344999999999999668e-02 -9.370065834346519296e-11
-1.329999999999999932e-02 -1.000769536685375272e-10
-1.314999999999999850e-02 -1.068363800205140990e-10
-1.299999999999999767e-02 -1.139782365711106138e-10
-1.284999999999999684e-02 -1.214971040441881200e-10
-1.269999999999999948e-02 -1.293791185297266111e-10
-1.254999999999999866e-02 -1.376274927356035960e-10
-1.239999999999999783e-02 -1.462814591679517662e-10
-1.224999999999999700e-02 -1.554710249429547275e-10
-1.209999999999999964e-02 -1.654457959521238308e-10
-1.194999999999999882e-02 -1.766138485459478602e-10
-1.179999999999999799e-02 -1.894982781802667660e-10
-1.164999999999999716e-02 -2.046243452458185175e-10
-1.149999999999999981e-02 -2.222724920786234293e-10
-1.134999999999999898e-02 -2.421192968338203855e-10
-1.119999999999999815e-02 -2.628192108389271198e-10
-1.104999999999999732e-02 -2.816409883088510924e-10
-1.089999999999999650e-02 -2.943649213271726239e-10
-1.074999999999999914e-02 -2.956143940746613907e-10
-1.059999999999999831e-02 -2.797861942127610746e-10
-1.044999999999999749e-02 -2.425491196778040148e-10
-1.029999999999999666e-02 -1.826855750008959944e-10
-1.014999999999999930e-02 -1.037421815119898838e-10
-9.999999999999998473e-03 -1.485506162524075080e-11
-9.849999999999997646e-03 6.994063661558413969e-11
-9.699999999999996819e-03 1.342325417486023298e-10
-9.549999999999999462e-03 1.633913560006305943e-10
-9.399999999999998634e-03 1.494922519107433345e-10
-9.249999999999997807e-03 9.525985555924876280e-11
-9.099999999999996980e-03 1.557914908190127790e-11
-8.949999999999999623e-03 -6.470884938991616764e-11
-8.799999999999998795e-03 -1.170618602053252744e-10
-8.649999999999997968e-03 -1.180175401849226091e-10
-8.500000000000000611e-03 -5.750283582628412660e-11
-8.349999999999996314e-03 5.609379627458110917e-11
-8.199999999999998956e-03 1.970267837769767993e-10
-8.049999999999994660e-03 3.303418649736045154e-10
-7.899999999999997302e-03 4.240836015689808391e-10
-7.749999999999999944e-03 4.622184857083766474e-10
-7.599999999999995648e-03 4.525501084984284716e-10
-7.449999999999998290e-03 4.253967178513562430e-10
-7.300000000000000933e-03 4.228880579049132393e-10
-7.149999999999996636e-03 4.819995513827279865e-10
-6.999999999999999278e-03 6.188285439634455543e-10
-6.849999999999994982e-03 8.205568446939537353e-10
-6.699999999999997624e-03 1.050617703945988524e-09
-6.550000000000000266e-03 1.263943616436336015e-09
-6.399999999999995970e-03 1.428323570529244080e-09
-6.249999999999998612e-03 1.540986116488340940e-09
-6.099999999999994316e-03 1.631014434622102272e-09
-5.949999999999996958e-03 1.747380351524441267e-09
-5.799999999999999600e-03 1.937634497295448455e-09
-5.649999999999995304e-03 2.222471984225649067e-09
-5.499999999999997946e-03 2.587925207464536470e-09
-5.350000000000000588e-03 2.990312442108233881e-09
-5.199999999999996292e-03 3.380042246092784808e-09
-5.049999999999998934e-03 3.728466424490761710e-09
-4.899999999999994638e-03 4.043636536721351149e-09
-4.749999999999997280e-03 4.369330675046967372e-09
-4.599999999999999922e-03 4.764064698292713729e-09
-4.449999999999995626e-03 5.269541247798770200e-09
-4.299999999999998268e-03 5.889845944295757363e-09
-4.150000000000000910e-03 6.590837653419612252e-09
-3.999999999999996614e-03 7.318920136611950511e-09
-3.849999999999999256e-03 8.033023135567418649e-09
-3.699999999999994960e-03 8.732073730755018914e-09
-3.549999999999997602e-03 9.456146088382411108e-09
-3.400000000000000244e-03 1.026936224945984577e-08
-3.249999999999995948e-03 1.122111914497736507e-08
-3.099999999999998590e-03 1.232597579559069345e-08
-2.949999999999994293e-03 1.354884382465115777e-08
-2.799999999999996936e-03 1.483717770867087893e-08
-2.649999999999999578e-03 1.614906608438104740e-08
-2.499999999999995282e-03 1.748528077882838261e-08
-2.349999999999997924e-03 1.889517697861720080e-08
-2.200000000000000566e-03 2.044851932225810742e-08
-2.049999999999996270e-03 2.219208461440302926e-08
-1.899999999999998912e-03 2.413856492466948112e-08
-1.749999999999994615e-03 2.624454609190252086e-08
-1.599999999999997258e-03 2.846413948986992182e-08
-1.449999999999999900e-03 3.075786025874549523e-08
-1.299999999999995604e-03 3.315074081911006942e-08
-1.149999999999998246e-03 3.569923734403346316e-08
-9.999999999999939493e-04 3.846657747885728895e-08
-8.499999999999965916e-04 4.151590360379486810e-08
-6.999999999999992339e-04 4.482741289280056662e-08
-5.499999999999949374e-04 4.836337907931920199e-08
-3.999999999999975797e-04 5.206580055983067723e-08
-2.500000000000002220e-04 5.593125251834862866e-08
-9.999999999999592548e-05 6.000330898814354441e-08
5.000000000000143219e-05 6.436184207814221736e-08
2.000000000000057288e-04 6.907771421538200229e-08
3.500000000000030864e-04 7.415473390892657335e-08
5.000000000000004441e-04 7.958451675449396134e-08
6.500000000000047407e-04 8.530567896514185122e-08
8.000000000000020983e-04 9.130408784585597459e-08
9.500000000000063949e-04 9.759225605421306682e-08
1.100000000000003753e-03 1.042578077203870635e-07
1.250000000000001110e-03 1.113772114536004665e-07
1.400000000000005407e-03 1.189993596995009284e-07
1.550000000000002764e-03 1.270963991828466533e-07
1.700000000000000122e-03 1.356551564413166489e-07
1.850000000000004419e-03 1.446142192662591697e-07
2.000000000000001776e-03 1.540445566661219345e-07
2.150000000000006073e-03 1.639483144799669390e-07
2.300000000000003431e-03 1.744357405186747201e-07
2.450000000000000788e-03 1.855557911767391488e-07
2.600000000000005085e-03 1.973383803033357253e-07
2.750000000000002442e-03 2.097564788527961355e-07
2.899999999999999800e-03 2.227442905677889939e-07
3.050000000000004097e-03 2.363326530030462891e-07
3.200000000000001454e-03 2.506007774627505569e-07
3.350000000000005751e-03 2.656421713709278265e-07
3.500000000000003109e-03 2.815135076161823235e-07
3.650000000000000466e-03 2.982057765166246099e-07
3.800000000000004763e-03 3.156854404551268090e-07
3.950000000000002121e-03 3.339258967116620624e-07
4.100000000000006417e-03 3.529722221173869912e-07
4.250000000000003775e-03 3.728658271029416937e-07
4.400000000000001132e-03 3.937542487619793974e-07
4.550000000000005429e-03 4.155872943556460086e-07
4.700000000000002787e-03 4.385086924685310805e-07
4.850000000000000144e-03 4.624432392574817641e-07
5.000000000000004441e-03 4.873460852650168817e-07
5.150000000000001799e-03 5.132790761308569927e-07
5.300000000000006095e-03 5.401502676249947399e-07
5.450000000000003453e-03 5.682261985384684522e-07
5.600000000000000810e-03 5.974090413474186789e-07
5.750000000000005107e-03 6.279471449488482904e-07
5.900000000000002465e-03 6.596536081815429498e-07
6.050000000000006761e-03 6.924547051312401891e-07
6.200000000000004119e-03 7.265268777700839564e-07
6.350000000000001477e-03 7.619166808581212536e-07
6.500000000000005773e-03 7.985235015439684503e-07
6.650000000000003131e-03 8.363201686734100804e-07
6.800000000000000488e-03 8.755450835451483727e-07
6.950000000000004785e-03 9.162674245999369305e-07
7.100000000000002143e-03 9.581561926097492687e-07
7.250000000000006439e-03 1.001679720502579585e-06
7.400000000000003797e-03 1.046165380103047937e-06
7.550000000000001155e-03 1.091948774956108537e-06
7.700000000000005451e-03 1.139449295806116425e-06
7.850000000000002809e-03 1.188479018310317770e-06
8.000000000000000167e-03 1.238833192473975942e-06
8.150000000000004463e-03 1.290260001951537561e-06
8.300000000000001821e-03 1.342943050985923037e-06
8.450000000000006117e-03 1.397305481987132225e-06
8.600000000000003475e-03 1.453399704587354790e-06
8.750000000000000833e-03 1.510722768216510303e-06
8.900000000000005129e-03 1.569098344589292537e-06
9.050000000000002487e-03 1.628764835004403722e-06
9.200000000000006783e-03 1.689695409368141554e-06
9.350000000000004141e-03 1.752621642481244635e-06
9.500000000000001499e-03 1.816285362110647839e-06
9.650000000000005795e-03 1.880712147794838529e-06
9.800000000000003153e-03 1.946723386936355382e-06
9.950000000000000511e-03 2.014465735555859283e-06
1.010000000000000481e-02 2.083465915347915143e-06
1.025000000000000216e-02 2.153193918275064789e-06
1.040000000000000646e-02 2.222839384558028542e-06
1.055000000000000382e-02 2.293782472406746820e-06
1.070000000000000118e-02 2.366430180700263008e-06
1.085000000000000547e-02 2.440356183797121048e-06
1.100000000000000283e-02 2.514560037525370717e-06
1.115000000000000713e-02 2.588205916254082695e-06
1.130000000000000449e-02 2.662631459315889515e-06
1.145000000000000184e-02 2.738370994848082773e-06
1.160000000000000614e-02 2.815397238009609282e-06
1.175000000000000350e-02 2.891287749662296847e-06
1.190000000000000085e-02 2.966318561448133551e-06
1.205000000000000515e-02 3.041841182493953966e-06
1.220000000000000251e-02 3.119212806268478744e-06
1.235000000000000681e-02 3.195672434230800718e-06
1.250000000000000416e-02 3.270601609983714297e-06
1.265000000000000152e-02 3.344170636410126463e-06
1.280000000000000582e-02 3.418129381316248327e-06
1.295000000000000318e-02 3.492712721708812751e-06
1.310000000000000747e-02 3.566123268683440983e-06
1.325000000000000483e-02 3.637758936747559346e-06
1.340000000000000219e-02 3.706404640979599208e-06
1.355000000000000648e-02 3.775535333261359483e-06
1.370000000000000384e-02 3.844485490844817832e-06
1.385000000000000120e-02 3.911816747859120369e-06
1.400000000000000550e-02 3.975841991632478312e-06
1.415000000000000285e-02 4.036336576973553747e-06
1.430000000000000715e-02 4.096077191206859425e-06
1.445000000000000451e-02 4.154287125857081264e-06
1.460000000000000187e-02 4.209611688565928489e-06
1.475000000000000616e-02 4.261829872120870277e-06
1.490000000000000352e-02 4.310224539949558675e-06
1.505000000000000088e-02 4.355923010734841228e-06
1.520000000000000517e-02 4.399987119541037828e-06
1.535000000000000253e-02 4.441383680386934429e-06
1.550000000000000683e-02 4.478257324080914259e-06
1.565000000000000419e-02 4.510061444307211787e-06
1.580000000000000154e-02 4.538415851129684597e-06
1.595000000000000584e-02 4.562979938782518730e-06
1.610000000000000320e-02 4.582699148159008473e-06
1.625000000000000749e-02 4.597572569764452055e-06
1.640000000000000485e-02 4.608947619999526069e-06
1.655000000000000221e-02 4.613938017428154126e-06
1.670000000000000651e-02 4.616477326635504141e-06
1.685000000000000386e-02 4.612031716533238068e-06
1.700000000000000122e-02 4.602987246471457183e-06
1.715000000000000552e-02 4.588589035847689956e-06
1.730000000000000288e-02 4.568271833704784513e-06
1.745000000000000717e-02 4.540904683381086215e-06
1.760000000000000453e-02 4.508473011810565367e-06
1.775000000000000189e-02 4.471391548577230424e-06
1.790000000000000618e-02 4.428089141583768651e-06
1.805000000000000354e-02 4.377504865260561928e-06
1.820000000000000784e-02 4.320511379773961380e-06
1.835000000000000520e-02 4.257803993823472410e-06
1.850000000000000255e-02 4.187873855698853731e-06
1.865000000000000685e-02 4.112090209673624486e-06
1.880000000000000421e-02 4.030082436656812206e-06
1.895000000000000157e-02 3.940881015296326950e-06
1.910000000000000586e-02 3.845772425847826526e-06
1.925000000000000322e-02 3.744931063920375891e-06
1.940000000000000752e-02 3.638048610810074024e-06
1.955000000000000487e-02 3.522217184581677429e-06
1.970000000000000223e-02 3.401251206014421768e-06
1.985000000000000653e-02 3.273570882811327465e-06
2.000000000000000389e-02 3.139455657219514251e-06
2.015000000000000818e-02 2.999602429554215632e-06
2.030000000000000554e-02 2.852168790923315100e-06
2.045000000000000290e-02 2.698912339837988839e-06
2.060000000000000719e-02 2.539954948588274419e-06
2.075000000000000455e-02 2.375258418396697380e-06
2.090000000000000191e-02 2.205269993282854557e-06
2.105000000000000621e-02 2.029789584412355907e-06
2.120000000000000356e-02 1.848395868364605121e-06
2.135000000000000786e-02 1.662181944084295537e-06
2.150000000000000522e-02 1.470446136409009341e-06
2.165000000000000258e-02 1.274896135328162927e-06
2.180000000000000687e-02 1.073194539458199870e-06
2.195000000000000423e-02 8.681996632731170394e-07
2.210000000000000159e-02 6.575409088327432983e-07
2.225000000000000588e-02 4.447016408448689617e-07
2.240000000000000324e-02 2.294023744298101519e-07
2.255000000000000754e-02 9.192386407619324018e-09
2.270000000000000490e-02 -2.143993640402186429e-07
2.285000000000000225e-02 -4.420033974383841269e-07
2.299999999999999961e-02 -6.739217610629566479e-07
2.315000000000001085e-02 -9.060531169780006167e-07
2.330000000000000820e-02 -1.139231017077690922e-06
2.345000000000000556e-02 -1.373443865304579958e-06
2.360000000000000292e-02 -1.609403284419386182e-06
2.375000000000000028e-02 -1.845774590947257821e-06
2.390000000000001151e-02 -2.083184426737716421e-06
2.405000000000000887e-02 -2.322454065506462939e-06
2.420000000000000623e-02 -2.562908775871619582e-06
2.435000000000000359e-02 -2.803333018164266832e-06
2.450000000000000094e-02 -3.042928710783598945e-06
2.464999999999999830e-02 -3.279524889876483940e-06
2.480000000000000954e-02 -3.512598595989402384e-06
2.495000000000000689e-02 -3.743534762179479003e-06
2.510000000000000425e-02 -3.974448645749362186e-06
2.525000000000000161e-02 -4.205168352200416848e-06
2.539999999999999897e-02 -4.435641585587291047e-06
2.555000000000001020e-02 -4.664455445890780538e-06
2.570000000000000756e-02 -4.889327556156786159e-06
2.585000000000000492e-02 -5.108169261802686378e-06
2.600000000000000228e-02 -5.320097898220410571e-06
2.614999999999999963e-02 -5.525827873498201370e-06
2.630000000000001087e-02 -5.728373253077734262e-06
2.645000000000000823e-02 -5.929084636591142043e-06
2.660000000000000558e-02 -6.129006123956060037e-06
2.675000000000000294e-02 -6.327290066110435873e-06
2.690000000000000030e-02 -6.521133400383405387e-06
2.705000000000001154e-02 -6.706614840368274599e-06
2.720000000000000889e-02 -6.881079571030568331e-06
2.735000000000000625e-02 -7.045204256428405643e-06
2.750000000000000361e-02 -7.202702818176476285e-06
2.765000000000000097e-02 -7.357188678724924102e-06
2.780000000000001220e-02 -7.510859177273232490e-06
2.795000000000000956e-02 -7.663294127269182354e-06
2.810000000000000692e-02 -7.811298019078094512e-06
2.825000000000000427e-02 -7.951022780616767704e-06
2.840000000000000163e-02 -8.078678547462914139e-06
2.854999999999999899e-02 -8.192003406293224543e-06
2.870000000000001023e-02 -8.295669431390706450e-06
2.885000000000000758e-02 -8.393610187340527773e-06
2.900000000000000494e-02 -8.489958418067544699e-06
2.915000000000000230e-02 -8.586679541622288525e-06
2.929999999999999966e-02 -8.681644430907908827e-06
2.945000000000001089e-02 -8.770985914452467114e-06
2.960000000000000825e-02 -8.847303433867637068e-06
2.975000000000000561e-02 -8.908578820410184562e-06
2.990000000000000296e-02 -8.955601515481248498e-06
3.005000000000000032e-02 -8.993853953143116087e-06
3.020000000000001156e-02 -9.031237823364790529e-06
3.035000000000000892e-02 -9.069751286006066948e-06
3.050000000000000627e-02 -9.108848644245881587e-06
3.065000000000000363e-02 -9.142601811618078500e-06
3.080000000000000099e-02 -9.167751159111503512e-06
3.095000000000001222e-02 -9.177886568068061024e-06
3.110000000000000958e-02 -9.174487786367535591e-06
3.125000000000000694e-02 -9.160122317553032190e-06
3.140000000000000430e-02 -9.140039765043184161e-06
3.155000000000000165e-02 -9.122697520069777966e-06
3.169999999999999901e-02 -9.107624464377295226e-06
3.185000000000001025e-02 -9.091678293771110475e-06
3.200000000000000761e-02 -9.068727194971870631e-06
3.215000000000000496e-02 -9.033185961015988141e-06
3.230000000000000232e-02 -8.985605745692737401e-06
3.244999999999999968e-02 -8.926777809392660856e-06
3.260000000000001091e-02 -8.860690286383032799e-06
3.275000000000000827e-02 -8.794911991572007537e-06
3.290000000000000563e-02 -8.729696673981379718e-06
3.305000000000000299e-02 -8.665843779454007745e-06
3.320000000000000034e-02 -8.599795364716555923e-06
3.335000000000001158e-02 -8.526995770807843655e-06
3.350000000000000894e-02 -8.442172656941693276e-06
3.365000000000000629e-02 -8.345561582245863974e-06
3.380000000000000365e-02 -8.242855983553454280e-06
3.395000000000000101e-02 -8.137821168929804116e-06
3.410000000000001225e-02 -8.033788617467507720e-06
3.425000000000000960e-02 -7.927376827865373343e-06
3.440000000000000696e-02 -7.819692655175458640e-06
3.455000000000000432e-02 -7.704659765295218676e-06
3.470000000000000168e-02 -7.581832960568135604e-06
3.485000000000001291e-02 -7.453102625731844455e-06
3.500000000000001027e-02 -7.319597898458596319e-06
3.515000000000000763e-02 -7.182070021372055635e-06
3.530000000000000498e-02 -7.041280696284957230e-06
3.545000000000000234e-02 -6.897558250784641132e-06
3.559999999999999970e-02 -6.750828106305561960e-06
3.575000000000001094e-02 -6.599729658773867413e-06
3.590000000000000829e-02 -6.444463451771298423e-06
3.605000000000000565e-02 -6.284191840677522123e-06
3.620000000000000301e-02 -6.118892542872345075e-06
3.635000000000000037e-02 -5.950623290118528530e-06
3.650000000000001160e-02 -5.778897957497974858e-06
3.665000000000000896e-02 -5.601956672762753442e-06
3.680000000000000632e-02 -5.419327862909995019e-06
3.695000000000000367e-02 -5.231572231423342600e-06
3.710000000000000103e-02 -5.037679784436477348e-06
3.725000000000001227e-02 -4.842700036533642560e-06
3.740000000000000963e-02 -4.647568403015611693e-06
3.755000000000000698e-02 -4.451961558515904471e-06
3.770000000000000434e-02 -4.252959570294478908e-06
3.785000000000000170e-02 -4.047010861540911719e-06
3.800000000000001293e-02 -3.831520189123693854e-06
3.815000000000001029e-02 -3.608285851441905834e-06
3.830000000000000765e-02 -3.379914232937153429e-06
3.845000000000000501e-02 -3.149742724417592399e-06
3.860000000000000236e-02 -2.921100985986413434e-06
3.874999999999999972e-02 -2.696071078389650211e-06
3.890000000000001096e-02 -2.468971615599002689e-06
3.905000000000000832e-02 -2.239156856376212090e-06
3.920000000000000567e-02 -1.999899268412264064e-06
3.935000000000000303e-02 -1.751366426105960272e-06
3.950000000000000039e-02 -1.497811467743304092e-06
3.965000000000001162e-02 -1.239909806827199645e-06
3.980000000000000898e-02 -9.852087714534718543e-07
3.995000000000000634e-02 -7.340088359342189506e-07
4.010000000000000370e-02 -4.858691795561753679e-07
4.025000000000000105e-02 -2.358650021960784215e-07
4.040000000000001229e-02 1.887034173364554590e-08
4.055000000000000965e-02 2.797819718125538202e-07
4.070000000000000701e-02 5.456469693854160141e-07
4.085000000000000436e-02 8.134536528814351186e-07
4.100000000000000172e-02 1.078096715900755953e-06
4.115000000000001296e-02 1.338481638413213659e-06
4.130000000000001031e-02 1.595392518538574222e-06
4.145000000000000767e-02 1.850916419243731070e-06
4.160000000000000503e-02 2.105761041093501262e-06
4.175000000000000239e-02 2.361272890993859619e-06
4.190000000000001362e-02 2.615161520225228742e-06
4.205000000000001098e-02 2.867445346055319533e-06
4.220000000000000834e-02 3.116203288300312124e-06
4.235000000000000570e-02 3.361448307259706780e-06
4.250000000000000305e-02 3.602854349082917906e-06
4.265000000000000041e-02 3.840973022306570783e-06
4.280000000000001165e-02 4.074593107361579314e-06
4.295000000000000900e-02 4.302718934923177585e-06
4.310000000000000636e-02 4.523726147453999147e-06
4.325000000000000372e-02 4.736098617286188528e-06
4.340000000000000108e-02 4.941222414345247671e-06
4.355000000000001231e-02 5.139876066095894203e-06
4.370000000000000967e-02 5.334885372576536611e-06
4.385000000000000703e-02 5.526277618628228083e-06
4.400000000000000439e-02 5.710297955374699086e-06
4.415000000000000174e-02 5.884141046408331022e-06
4.430000000000001298e-02 6.045060672477120534e-06
4.445000000000001034e-02 6.192190994624979794e-06
4.460000000000000769e-02 6.326540187728824094e-06
4.475000000000000505e-02 6.452720299421343952e-06
4.490000000000000241e-02 6.572104211954865605e-06
4.505000000000001364e-02 6.685694643238093704e-06
4.520000000000001100e-02 6.791399755456950516e-06
4.535000000000000836e-02 6.885705261083785444e-06
4.550000000000000572e-02 6.965196007513441145e-06
4.565000000000000308e-02 7.028164418443338946e-06
4.580000000000000043e-02 7.075312623783247545e-06
4.595000000000001167e-02 7.109676516847684979e-06
4.610000000000000903e-02 7.135232863220153376e-06
4.625000000000000638e-02 7.152800662879599258e-06
4.640000000000000374e-02 7.160761470004217699e-06
4.655000000000000110e-02 7.157568688853643835e-06
4.670000000000001233e-02 7.139786703191930428e-06
4.685000000000000969e-02 7.107265446393284947e-06
4.700000000000000705e-02 7.059652489260770380e-06
4.715000000000000441e-02 6.998504431976471096e-06
4.730000000000000177e-02 6.926334663148736581e-06
4.745000000000001300e-02 6.843400569778168574e-06
4.760000000000001036e-02 6.749677595507819206e-06
4.775000000000000772e-02 6.644599579885834828e-06
4.790000000000000507e-02 6.528743142553139478e-06
4.805000000000000243e-02 6.402250164683209732e-06
4.820000000000001367e-02 6.266286618483718485e-06