-4.000000000000000083e-02 0.000000000000000000e+00
-3.985000000000000347e-02 0.000000000000000000e+00
-3.969999999999999918e-02 0.000000000000000000e+00
-3.955000000000000182e-02 0.000000000000000000e+00
-3.939999999999999752e-02 0.000000000000000000e+00
-3.925000000000000017e-02 0.000000000000000000e+00
-3.910000000000000281e-02 0.000000000000000000e+00
-3.894999999999999851e-02 0.000000000000000000e+00
-3.880000000000000115e-02 3.082856621514597556e-44
-3.865000000000000380e-02 9.136465987397807302e-43
-3.849999999999999950e-02 7.639287879546957598e-39
-3.835000000000000214e-02 1.701759993316300782e-36
-3.819999999999999785e-02 -1.884031491591964930e-34
-3.805000000000000049e-02 1.318903284090164214e-33
-3.790000000000000313e-02 5.375035846112351137e-31
-3.774999999999999883e-02 -3.712872445998782536e-29
-3.760000000000000148e-02 1.450077433000356877e-27
-3.744999999999999718e-02 -4.008773567286664013e-26
-3.729999999999999982e-02 7.998518083906167050e-25
-3.715000000000000246e-02 -1.002044490628020044e-23
-3.699999999999999817e-02 1.786178935735400157e-23
-3.685000000000000081e-02 2.225151188736198347e-21
-3.670000000000000345e-02 -4.798879922673293814e-20
-3.654999999999999916e-02 4.402865782696853989e-19
-3.640000000000000180e-02 -4.856151969581904779e-19
-3.624999999999999750e-02 -2.551507255410655764e-17
-3.610000000000000014e-02 1.531041168919709729e-16
-3.595000000000000279e-02 4.738626297042880867e-16
-3.579999999999999849e-02 -4.398192744113063254e-15
-3.565000000000000113e-02 -1.164225948990533360e-14
-3.550000000000000377e-02 4.033468912058128797e-14
-3.534999999999999948e-02 2.364764200429858576e-13
-3.520000000000000212e-02 5.555271412154005883e-13
-3.504999999999999782e-02 9.455999351593025182e-13
-3.490000000000000047e-02 1.445725592193192188e-12
-3.475000000000000311e-02 2.056193106406145610e-12
-3.459999999999999881e-02 2.757628977598236553e-12
-3.445000000000000145e-02 3.590920746518455609e-12
-3.429999999999999716e-02 4.544509300125065820e-12
-3.414999999999999980e-02 5.629491664493890823e-12
-3.400000000000000244e-02 6.873784527683390877e-12
-3.384999999999999815e-02 8.269581200370801355e-12
-3.370000000000000079e-02 9.846281776026977184e-12
-3.354999999999999649e-02 1.161753158951395193e-11
-3.339999999999999913e-02 1.358196454609439385e-11
-3.325000000000000178e-02 1.578349777264786979e-11
-3.309999999999999748e-02 1.822677078711087972e-11
-3.295000000000000012e-02 2.100655240033777460e-11
-3.280000000000000276e-02 2.417643862884233386e-11
-3.264999999999999847e-02 2.770391728523780017e-11
-3.250000000000000111e-02 3.128656708706323286e-11
-3.235000000000000375e-02 3.442033810752143097e-11
-3.219999999999999946e-02 3.711861720767650752e-11
-3.205000000000000210e-02 4.107144832565801096e-11
-3.189999999999999780e-02 5.002789502106530506e-11
-3.175000000000000044e-02 6.702467053587568557e-11
-3.160000000000000309e-02 8.786085053946735002e-11
-3.144999999999999879e-02 9.584990440236751397e-11
-3.130000000000000143e-02 6.809178221267586650e-11
-3.115000000000000061e-02 3.078717836224598159e-13
-3.099999999999999978e-02 -6.208205477475914336e-11
-3.085000000000000242e-02 -2.208871280329205433e-11
-3.069999999999999812e-02 2.063238885297025149e-10
-3.055000000000000077e-02 5.842897832231130906e-10
-3.039999999999999994e-02 8.704992282559942396e-10
-3.024999999999999911e-02 6.969302912551711415e-10
-3.010000000000000175e-02 -1.698329532562325994e-10
-2.994999999999999746e-02 -1.524928072704767601e-09
-2.980000000000000010e-02 -2.647599695038138634e-09
-2.964999999999999927e-02 -2.638744112104518535e-09
-2.949999999999999845e-02 -1.071076893843780908e-09
-2.935000000000000109e-02 1.458374421225983042e-09
-2.920000000000000026e-02 3.343800347721526123e-09
-2.904999999999999943e-02 2.730778714266079987e-09
-2.890000000000000208e-02 -1.298696261642362515e-09
-2.874999999999999778e-02 -7.822142933378017915e-09
-2.860000000000000042e-02 -1.415092309997589837e-08
-2.844999999999999959e-02 -1.708131414090985345e-08
-2.829999999999999877e-02 -1.472734467711234174e-08
-2.815000000000000141e-02 -7.765097898015937972e-09
-2.800000000000000058e-02 8.720320021637917307e-10
-2.784999999999999976e-02 7.735197371516733256e-09
-2.769999999999999893e-02 1.076702371705096084e-08
-2.754999999999999810e-02 9.966878877776252921e-09
-2.740000000000000074e-02 6.572073107946607706e-09
-2.724999999999999992e-02 1.851270137187555065e-09
-2.709999999999999909e-02 -3.309981622123814304e-09
-2.695000000000000173e-02 -8.048680832928312157e-09
-2.679999999999999744e-02 -1.134260418922394820e-08
-2.665000000000000008e-02 -1.247785608171625427e-08
-2.649999999999999925e-02 -1.153822726251974018e-08
-2.634999999999999842e-02 -9.241086118549901585e-09
-2.620000000000000107e-02 -6.485130654709791997e-09
-2.605000000000000024e-02 -4.350478199910412513e-09
-2.589999999999999941e-02 -4.227818983792985819e-09
-2.575000000000000205e-02 -7.035862559234828950e-09
-2.559999999999999776e-02 -1.183757358802495219e-08
-2.545000000000000040e-02 -1.593214982165136462e-08
-2.529999999999999957e-02 -1.738907329240646504e-08
-2.514999999999999875e-02 -1.745827127308530180e-08
-2.500000000000000139e-02 -1.931370974261881202e-08
-2.484999999999999709e-02 -2.384648389863741613e-08
-2.469999999999999973e-02 -2.778771879263786104e-08
-2.454999999999999891e-02 -2.733673554189408605e-08
-2.439999999999999808e-02 -2.316509650768239226e-08
-2.425000000000000072e-02 -1.999000609487211477e-08
-2.409999999999999989e-02 -2.065634951975425793e-08
-2.394999999999999907e-02 -2.237411500516373053e-08
-2.379999999999999824e-02 -2.028398249365181982e-08
-2.365000000000000088e-02 -1.342251820801720896e-08
-2.350000000000000006e-02 -4.719872048752904448e-09
-2.334999999999999923e-02 4.574804535195653443e-09
-2.319999999999999840e-02 1.704781382727560413e-08
-2.304999999999999757e-02 3.374020707269664854e-08
-2.290000000000000022e-02 4.905516348685523553e-08
-2.274999999999999939e-02 5.474001341099210549e-08
-2.259999999999999856e-02 4.877173864770156797e-08
-2.244999999999999774e-02 3.673595472264423734e-08
-2.230000000000000038e-02 2.303998414276975382e-08
-2.214999999999999955e-02 4.084213856003771070e-09
-2.199999999999999872e-02 -2.662191533886471007e-08
-2.184999999999999790e-02 -6.843525568456243491e-08
-2.170000000000000054e-02 -1.131078306570998393e-07
-2.154999999999999971e-02 -1.547739429952343926e-07
-2.139999999999999888e-02 -1.959744935220442130e-07
-2.124999999999999806e-02 -2.409007038295385428e-07
-2.110000000000000070e-02 -2.856927210359572200e-07
-2.094999999999999987e-02 -3.200951823600917123e-07
-2.079999999999999905e-02 -3.387748677141644293e-07
-2.064999999999999822e-02 -3.472038656582299154e-07
-2.049999999999999739e-02 -3.550705400812148582e-07
-2.035000000000000003e-02 -3.670620287721249042e-07
-2.019999999999999921e-02 -3.825802821211254923e-07
-2.004999999999999838e-02 -4.021156314593099523e-07
-1.989999999999999755e-02 -4.299019167319784174e-07
-1.975000000000000019e-02 -4.698276541148516117e-07
-1.959999999999999937e-02 -5.215279657022620086e-07
-1.944999999999999854e-02 -5.815136319142766297e-07
-1.929999999999999771e-02 -6.463069439632818103e-07
-1.915000000000000036e-02 -7.134207749004417565e-07
-1.899999999999999953e-02 -7.809812245795910712e-07
-1.884999999999999870e-02 -8.482144266963587143e-07
-1.869999999999999787e-02 -9.156635201179597061e-07
-1.855000000000000052e-02 -9.838001915341010317e-07
-1.839999999999999969e-02 -1.052470111062575597e-06
-1.824999999999999886e-02 -1.123411948356078938e-06
-1.809999999999999803e-02 -1.202478415507357568e-06
-1.794999999999999721e-02 -1.296698201258550398e-06
-1.779999999999999985e-02 -1.408724756402079947e-06
-1.764999999999999902e-02 -1.535925662210502196e-06
-1.749999999999999820e-02 -1.675522526056738570e-06
-1.734999999999999737e-02 -1.828242488954856526e-06
-1.720000000000000001e-02 -1.995160118895000778e-06
-1.704999999999999918e-02 -2.173205757571849972e-06
-1.689999999999999836e-02 -2.356916411372367293e-06
-1.674999999999999753e-02 -2.544746848798240535e-06
-1.660000000000000017e-02 -2.741444404819048941e-06
-1.644999999999999934e-02 -2.953617013190523721e-06
-1.629999999999999852e-02 -3.185308969477773644e-06
-1.614999999999999769e-02 -3.438401790845091455e-06
-1.600000000000000033e-02 -3.715603497767006047e-06
-1.584999999999999951e-02 -4.020419510197825730e-06
-1.569999999999999868e-02 -4.355034889158559963e-06
-1.554999999999999785e-02 -4.719301614386495203e-06
-1.539999999999999702e-02 -5.111748123454162851e-06
-1.524999999999999967e-02 -5.530498128791805357e-06
-1.509999999999999884e-02 -5.974184659862658009e-06
-1.494999999999999801e-02 -6.443830443458864465e-06
-1.479999999999999719e-02 -6.943910648260498419e-06
-1.464999999999999983e-02 -7.480583008145913482e-06
-1.449999999999999900e-02 -8.057822014961857349e-06
-1.434999999999999817e-02 -8.677827281644567847e-06
-1.419999999999999735e-02 -9.344699719804339111e-06
-1.404999999999999999e-02 -1.006601723929634318e-05
-1.389999999999999916e-02 -1.084840550902299583e-05
-1.374999999999999833e-02 -1.169310417026281357e-05
-1.359999999999999751e-02 -1.259716100321384147e-05
-1.344999999999999668e-02 -1.355907625111285597e-05
-1.329999999999999932e-02 -1.458195674786111340e-05
-1.314999999999999850e-02 -1.567107210576068610e-05
-1.299999999999999767e-02 -1.683183290879242122e-05
-1.284999999999999684e-02 -1.806964246497955173e-05
-1.269999999999999948e-02 -1.939186768140643835e-05
-1.254999999999999866e-02 -2.080683043459430337e-05
-1.239999999999999783e-02 -2.232298720628023148e-05
-1.224999999999999700e-02 -2.394761577306780964e-05
-1.209999999999999964e-02 -2.568581658124458045e-05
-1.194999999999999882e-02 -2.754025263129733503e-05
-1.179999999999999799e-02 -2.951252099592238665e-05
-1.164999999999999716e-02 -3.160655614919960499e-05
-1.149999999999999981e-02 -3.383068178663961589e-05
-1.134999999999999898e-02 -3.619510243879631162e-05
-1.119999999999999815e-02 -3.870834552799351513e-05
-1.104999999999999732e-02 -4.137666837777942419e-05
-1.089999999999999650e-02 -4.420920595293864608e-05
-1.074999999999999914e-02 -4.721866207546554506e-05
-1.059999999999999831e-02 -5.041905751568265259e-05
-1.044999999999999749e-02 -5.382131712394766510e-05
-1.029999999999999666e-02 -5.743269866798073053e-05
-1.014999999999999930e-02 -6.125903746578842402e-05
-9.999999999999998473e-03 -6.530827522510662675e-05
-9.849999999999997646e-03 -6.958964513614773750e-05
-9.699999999999996819e-03 -7.411335536744445562e-05
-9.549999999999999462e-03 -7.889199332566931844e-05
-9.399999999999998634e-03 -8.393993630306795239e-05
-9.249999999999997807e-03 -8.927135058911517262e-05
-9.099999999999996980e-03 -9.490206139162182808e-05
-8.949999999999999623e-03 -1.008492399705573916e-04
-8.799999999999998795e-03 -1.071275037247687578e-04
-8.649999999999997968e-03 -1.137490689870901406e-04
-8.500000000000000611e-03 -1.207222012453712523e-04
-8.349999999999996314e-03 -1.280581054743379354e-04
-8.199999999999998956e-03 -1.357710134470835328e-04
-8.049999999999994660e-03 -1.438794424757361412e-04
-7.899999999999997302e-03 -1.523991959402337670e-04
-7.749999999999999944e-03 -1.613450149307027459e-04
-7.599999999999995648e-03 -1.707323244772851467e-04
-7.449999999999998290e-03 -1.805795764084905386e-04
-7.300000000000000933e-03 -1.909059938043355942e-04
-7.149999999999996636e-03 -2.017305087065324187e-04
-6.999999999999999278e-03 -2.130700158886611462e-04
-6.849999999999994982e-03 -2.249394747195765376e-04
-6.699999999999997624e-03 -2.373517345404252410e-04
-6.550000000000000266e-03 -2.503192517906427383e-04
-6.399999999999995970e-03 -2.638573641888797283e-04
-6.249999999999998612e-03 -2.779832575470209122e-04
-6.099999999999994316e-03 -2.927145687863230705e-04
-5.949999999999996958e-03 -3.080689639318734407e-04
-5.799999999999999600e-03 -3.240641672164201736e-04
-5.649999999999995304e-03 -3.407199401408433914e-04
-5.499999999999997946e-03 -3.580533084459602833e-04
-5.350000000000000588e-03 -3.760771069210022688e-04
-5.199999999999996292e-03 -3.948002704419195652e-04
-5.049999999999998934e-03 -4.142338584642857313e-04
-4.899999999999994638e-03 -4.343882610555738211e-04
-4.749999999999997280e-03 -4.552760510705411434e-04
-4.599999999999999922e-03 -4.769100050907582045e-04
-4.449999999999995626e-03 -4.993014154024422169e-04
-4.299999999999998268e-03 -5.224581109359860420e-04
-4.150000000000000910e-03 -5.463894922286272049e-04
-3.999999999999996614e-03 -5.711028934456408024e-04
-3.849999999999999256e-03 -5.966052995063364506e-04
-3.699999999999994960e-03 -6.229031714610755444e-04
-3.549999999999997602e-03 -6.499977316707372665e-04
-3.400000000000000244e-03 -6.778866518288850784e-04
-3.249999999999995948e-03 -7.065653335303068161e-04
-3.099999999999998590e-03 -7.360266172327101231e-04
-2.949999999999994293e-03 -7.662680000066757202e-04
-2.799999999999996936e-03 -7.972834282554686069e-04
-2.649999999999999578e-03 -8.290624246001243591e-04
-2.499999999999995282e-03 -8.615990518592298031e-04
-2.349999999999997924e-03 -8.948819013312458992e-04
-2.200000000000000566e-03 -9.288955479860305786e-04
-2.049999999999996270e-03 -9.636198519729077816e-04
-1.899999999999998912e-03 -9.990287944674491882e-04
-1.749999999999994615e-03 -1.035097520798444748e-03
-1.599999999999997258e-03 -1.071792561560869217e-03
-1.449999999999999900e-03 -1.109084347262978554e-03
-1.299999999999995604e-03 -1.146939699538052082e-03
-1.149999999999998246e-03 -1.185326254926621914e-03
-9.999999999999939493e-04 -1.224204082973301411e-03
-8.499999999999965916e-04 -1.263529527932405472e-03
-6.999999999999992339e-04 -1.303251716308295727e-03
-5.499999999999949374e-04 -1.343325129710137844e-03
-3.999999999999975797e-04 -1.383695751428604126e-03
-2.500000000000002220e-04 -1.424305955879390240e-03
-9.999999999999592548e-05 -1.465093228034675121e-03
5.000000000000143219e-05 -1.505985623225569725e-03
2.000000000000057288e-04 -1.546914223581552505e-03
3.500000000000030864e-04 -1.587808132171630859e-03
5.000000000000004441e-04 -1.628590398468077183e-03
6.500000000000047407e-04 -1.669182674959301949e-03
8.000000000000020983e-04 -1.709503703750669956e-03
9.500000000000063949e-04 -1.749469432979822159e-03
1.100000000000003753e-03 -1.788987661711871624e-03
1.250000000000001110e-03 -1.827961648814380169e-03
1.400000000000005407e-03 -1.866295351646840572e-03
1.550000000000002764e-03 -1.903880038298666477e-03
1.700000000000000122e-03 -1.940611749887466431e-03
1.850000000000004419e-03 -1.976377796381711960e-03
2.000000000000001776e-03 -2.011069562286138535e-03
2.150000000000006073e-03 -2.044579945504665375e-03
2.300000000000003431e-03 -2.076793229207396507e-03
2.450000000000000788e-03 -2.107589272782206535e-03
2.600000000000005085e-03 -2.136845141649246216e-03
2.750000000000002442e-03 -2.164436504244804382e-03
2.899999999999999800e-03 -2.190239727497100830e-03
3.050000000000004097e-03 -2.214127453044056892e-03
3.200000000000001454e-03 -2.235968364402651787e-03
3.350000000000005751e-03 -2.255632774904370308e-03
3.500000000000003109e-03 -2.272987039759755135e-03
3.650000000000000466e-03 -2.287899842485785484e-03
3.800000000000004763e-03 -2.300241962075233459e-03
3.950000000000002121e-03 -2.309883246198296547e-03
4.100000000000006417e-03 -2.316698664799332619e-03
4.250000000000003775e-03 -2.320558065548539162e-03
4.400000000000001132e-03 -2.321335487067699432e-03
4.550000000000005429e-03 -2.318901009857654572e-03
4.700000000000002787e-03 -2.313129138201475143e-03
4.850000000000000144e-03 -2.303894609212875366e-03
5.000000000000004441e-03 -2.291076583787798882e-03
5.150000000000001799e-03 -2.274559112265706062e-03
5.300000000000006095e-03 -2.254233229905366898e-03
5.450000000000003453e-03 -2.229992533102631569e-03
5.600000000000000810e-03 -2.201740862801671028e-03
5.750000000000005107e-03 -2.169376937672495842e-03
5.900000000000002465e-03 -2.132808091118931770e-03
6.050000000000006761e-03 -2.091949572786688805e-03
6.200000000000004119e-03 -2.046718029305338860e-03
6.350000000000001477e-03 -1.997040817514061928e-03
6.500000000000005773e-03 -1.942850998602807522e-03
6.650000000000003131e-03 -1.884094323031604290e-03
6.800000000000000488e-03 -1.820720615796744823e-03
6.950000000000004785e-03 -1.752680866047739983e-03
7.100000000000002143e-03 -1.679949113167822361e-03
7.250000000000006439e-03 -1.602502888999879360e-03
7.400000000000003797e-03 -1.520335441455245018e-03
7.550000000000001155e-03 -1.433445606380701065e-03
7.700000000000005451e-03 -1.341843511909246445e-03
7.850000000000002809e-03 -1.245541032403707504e-03
8.000000000000000167e-03 -1.144569483585655689e-03
8.150000000000004463e-03 -1.038960181176662445e-03
8.300000000000001821e-03 -9.287734283134341240e-04
8.450000000000006117e-03 -8.140710997395217419e-04
8.600000000000003475e-03 -6.949360249564051628e-04
8.750000000000000833e-03 -5.714502185583114624e-04
8.900000000000005129e-03 -4.437214229255914688e-04
9.050000000000002487e-03 -3.118621825706213713e-04
9.200000000000006783e-03 -1.760025479597970843e-04
9.350000000000004141e-03 -3.627513069659471512e-05
9.500000000000001499e-03 1.071796286851167679e-04
9.650000000000005795e-03 2.541882859077304602e-04
9.800000000000003153e-03 4.045862297061830759e-04
9.950000000000000511e-03 5.581808509305119514e-04
1.010000000000000481e-02 7.147789583541452885e-04
1.025000000000000216e-02 8.741634665057063103e-04
1.040000000000000646e-02 1.036120811477303505e-03
1.055000000000000382e-02 1.200411119498312473e-03
1.070000000000000118e-02 1.366790616884827614e-03
1.085000000000000547e-02 1.535009942017495632e-03
1.100000000000000283e-02 1.704806345514953136e-03
1.115000000000000713e-02 1.875907764770090580e-03
1.130000000000000449e-02 2.048038179054856300e-03
1.145000000000000184e-02 2.220905385911464691e-03
1.160000000000000614e-02 2.394223120063543320e-03
1.175000000000000350e-02 2.567675197497010231e-03
1.190000000000000085e-02 2.740947762504220009e-03
1.205000000000000515e-02 2.913732780143618584e-03
1.220000000000000251e-02 3.085698001086711884e-03
1.235000000000000681e-02 3.256525145843625069e-03
1.250000000000000416e-02 3.425883129239082336e-03
1.265000000000000152e-02 3.593444824218750000e-03
1.280000000000000582e-02 3.758880076929926872e-03
1.295000000000000318e-02 3.921846393495798111e-03
1.310000000000000747e-02 4.082011990249156952e-03
1.325000000000000483e-02 4.239045083522796631e-03
1.340000000000000219e-02 4.392616916447877884e-03
1.355000000000000648e-02 4.542383365333080292e-03
1.370000000000000384e-02 4.688027780503034592e-03
1.385000000000000120e-02 4.829221870750188828e-03
1.400000000000000550e-02 4.965650383383035660e-03
1.415000000000000285e-02 5.096997134387493134e-03
1.430000000000000715e-02 5.222961772233247757e-03
1.445000000000000451e-02 5.343248136341571808e-03
1.460000000000000187e-02 5.457571242004632950e-03
1.475000000000000616e-02 5.565654952079057693e-03
1.490000000000000352e-02 5.667233839631080627e-03
1.505000000000000088e-02 5.762049462646245956e-03
1.520000000000000517e-02 5.849847570061683655e-03
1.535000000000000253e-02 5.930399522185325623e-03
1.550000000000000683e-02 6.003482267260551453e-03
1.565000000000000419e-02 6.068899296224117279e-03
1.580000000000000154e-02 6.126464344561100006e-03
1.595000000000000584e-02 6.176003720611333847e-03
1.610000000000000320e-02 6.217363290488719940e-03
1.625000000000000749e-02 6.250399164855480194e-03
1.640000000000000485e-02 6.274987012147903442e-03
1.655000000000000221e-02 6.291026249527931213e-03
1.670000000000000651e-02 6.298424676060676575e-03
1.685000000000000386e-02 6.297113839536905289e-03
1.700000000000000122e-02 6.287040188908576965e-03
1.715000000000000552e-02 6.268175318837165833e-03
1.730000000000000288e-02 6.240504793822765350e-03
1.745000000000000717e-02 6.204036530107259750e-03
1.760000000000000453e-02 6.158801261335611343e-03
1.775000000000000189e-02 6.104845553636550903e-03
1.790000000000000618e-02 6.042236927896738052e-03
1.805000000000000354e-02 5.971056874841451645e-03
1.820000000000000784e-02 5.891415756195783615e-03
1.835000000000000520e-02 5.803427658975124359e-03
1.850000000000000255e-02 5.707230418920516968e-03
1.865000000000000685e-02 5.602985154837369919e-03
1.880000000000000421e-02 5.490867421030998230e-03
1.895000000000000157e-02 5.371077451854944229e-03
1.910000000000000586e-02 5.243828054517507553e-03
1.925000000000000322e-02 5.109346937388181686e-03
1.940000000000000752e-02 4.967883229255676270e-03
1.955000000000000487e-02 4.819691646844148636e-03
1.970000000000000223e-02 4.665045533329248428e-03
1.985000000000000653e-02 4.504232667386531830e-03
2.000000000000000389e-02 4.337552003562450409e-03
2.015000000000000818e-02 4.165310412645339966e-03
2.030000000000000554e-02 3.987844567745923996e-03
2.045000000000000290e-02 3.805483691394329071e-03
2.060000000000000719e-02 3.618561662733554840e-03
2.075000000000000455e-02 3.427444258704781532e-03
2.090000000000000191e-02 3.232497489079833031e-03
2.105000000000000621e-02 3.034081542864441872e-03
2.120000000000000356e-02 2.832569414749741554e-03
2.135000000000000786e-02 2.628340385854244232e-03
2.150000000000000522e-02 2.421776764094829559e-03
2.165000000000000258e-02 2.213262952864170074e-03
2.180000000000000687e-02 2.003169851377606392e-03
2.195000000000000423e-02 1.791894203051924706e-03
2.210000000000000159e-02 1.579826464876532555e-03
2.225000000000000588e-02 1.367357210256159306e-03
2.240000000000000324e-02 1.154863275587558746e-03
2.255000000000000754e-02 9.427273762412369251e-04
2.270000000000000490e-02 7.313301903195679188e-04
2.285000000000000225e-02 5.210405215620994568e-04
2.299999999999999961e-02 3.122185007669031620e-04
2.315000000000001085e-02 1.052158477250486612e-04
2.330000000000000820e-02 -9.961194155039265752e-05
2.345000000000000556e-02 -3.019173745997250080e-04
2.360000000000000292e-02 -5.013759946450591087e-04
2.375000000000000028e-02 -6.976605509407818317e-04
2.390000000000001151e-02 -8.904686546884477139e-04
2.405000000000000887e-02 -1.079491921700537205e-03
2.420000000000000623e-02 -1.264439080841839314e-03
2.435000000000000359e-02 -1.445047324523329735e-03
2.450000000000000094e-02 -1.621044240891933441e-03
2.464999999999999830e-02 -1.792175462469458580e-03
2.480000000000000954e-02 -1.958220964297652245e-03
2.495000000000000689e-02 -2.118961187079548836e-03
2.510000000000000425e-02 -2.274192869663238525e-03
2.525000000000000161e-02 -2.423728117719292641e-03
2.539999999999999897e-02 -2.567379502579569817e-03
2.555000000000001020e-02 -2.705007325857877731e-03
2.570000000000000756e-02 -2.836451167240738869e-03
2.585000000000000492e-02 -2.961590653285384178e-03
2.600000000000000228e-02 -3.080311929807066917e-03
2.614999999999999963e-02 -3.192528616636991501e-03
2.630000000000001087e-02 -3.298160620033740997e-03
2.645000000000000823e-02 -3.397142281755805016e-03
2.660000000000000558e-02 -3.489430062472820282e-03
2.675000000000000294e-02 -3.574993694201111794e-03
2.690000000000000030e-02 -3.653815481811761856e-03
2.705000000000001154e-02 -3.725889138877391815e-03
2.720000000000000889e-02 -3.791236318647861481e-03
2.735000000000000625e-02 -3.849874483421444893e-03
2.750000000000000361e-02 -3.901849268004298210e-03
2.765000000000000097e-02 -3.947222139686346054e-03
2.780000000000001220e-02 -3.986050374805927277e-03
2.795000000000000956e-02 -4.018422216176986694e-03
2.810000000000000692e-02 -4.044425673782825470e-03
2.825000000000000427e-02 -4.064179025590419769e-03
2.840000000000000163e-02 -4.077794030308723450e-03
2.854999999999999899e-02 -4.085392691195011139e-03
2.870000000000001023e-02 -4.087110981345176697e-03
2.885000000000000758e-02 -4.083091858774423599e-03
2.900000000000000494e-02 -4.073487129062414169e-03
2.915000000000000230e-02 -4.058462567627429962e-03
2.929999999999999966e-02 -4.038190934807062149e-03
2.945000000000001089e-02 -4.012852907180786133e-03
2.960000000000000825e-02 -3.982636146247386932e-03
2.975000000000000561e-02 -3.947723191231489182e-03
2.990000000000000296e-02 -3.908305894583463669e-03
3.005000000000000032e-02 -3.864581463858485222e-03
3.020000000000001156e-02 -3.816753858700394630e-03
3.035000000000000892e-02 -3.765024943277239799e-03
3.050000000000000627e-02 -3.709602868184447289e-03
3.065000000000000363e-02 -3.650699276477098465e-03
3.080000000000000099e-02 -3.588522784411907196e-03
3.095000000000001222e-02 -3.523287363350391388e-03
3.110000000000000958e-02 -3.455202560871839523e-03
3.125000000000000694e-02 -3.384480020031332970e-03
3.140000000000000430e-02 -3.311330219730734825e-03
3.155000000000000165e-02 -3.235962940379977226e-03
3.169999999999999901e-02 -3.158584237098693848e-03
3.185000000000001025e-02 -3.079396672546863556e-03
3.200000000000000761e-02 -2.998600248247385025e-03
3.215000000000000496e-02 -2.916390309110283852e-03
3.230000000000000232e-02 -2.832960570231080055e-03
3.244999999999999968e-02 -2.748505445197224617e-03
3.260000000000001091e-02 -2.663211664184927940e-03
3.275000000000000827e-02 -2.577264327555894852e-03
3.290000000000000563e-02 -2.490840386599302292e-03
3.305000000000000299e-02 -2.404107246547937393e-03
3.320000000000000034e-02 -2.317230217158794403e-03
3.335000000000001158e-02 -2.230365527793765068e-03
3.350000000000000894e-02 -2.143666148185729980e-03
3.365000000000000629e-02 -2.057283185422420502e-03
3.380000000000000365e-02 -1.971360063180327415e-03
3.395000000000000101e-02 -1.886030891910195351e-03
3.410000000000001225e-02 -1.801423379220068455e-03
3.425000000000000960e-02 -1.717659528367221355e-03
3.440000000000000696e-02 -1.634855871088802814e-03
3.455000000000000432e-02 -1.553122536279261112e-03
3.470000000000000168e-02 -1.472562085837125778e-03
3.485000000000001291e-02 -1.393268932588398457e-03
3.500000000000001027e-02 -1.315331086516380310e-03
3.515000000000000763e-02 -1.238829572685062885e-03
3.530000000000000498e-02 -1.163838198408484459e-03
3.545000000000000234e-02 -1.090426463633775711e-03
3.559999999999999970e-02 -1.018657931126654148e-03
3.575000000000001094e-02 -9.485938353464007378e-04
3.590000000000000829e-02 -8.802855154499411583e-04
3.605000000000000565e-02 -8.137784898281097412e-04
3.620000000000000301e-02 -7.491122814826667309e-04
3.635000000000000037e-02 -6.863176822662353516e-04
3.650000000000001160e-02 -6.254200125113129616e-04
3.665000000000000896e-02 -5.664373165927827358e-04
3.680000000000000632e-02 -5.093888030387461185e-04
3.695000000000000367e-02 -4.542882670648396015e-04
3.710000000000000103e-02 -4.011447308585047722e-04
3.725000000000001227e-02 -3.499626473058015108e-04
3.740000000000000963e-02 -3.007394552696496248e-04
3.755000000000000698e-02 -2.534695959184318781e-04
3.770000000000000434e-02 -2.081437560264021158e-04
3.785000000000000170e-02 -1.647508906899020076e-04
3.800000000000001293e-02 -1.232720969710499048e-04
3.815000000000001029e-02 -8.368713315576314926e-05
3.830000000000000765e-02 -4.597094812197610736e-05
3.845000000000000501e-02 -1.009612697089323774e-05
3.860000000000000236e-02 2.396808304183650762e-05
3.874999999999999972e-02 5.625131598208099604e-05
3.890000000000001096e-02 8.678223093738779426e-05
3.905000000000000832e-02 1.155956124421209097e-04
3.920000000000000567e-02 1.427266543032601476e-04
3.935000000000000303e-02 1.682177826296538115e-04
3.950000000000000039e-02 1.921111834235489368e-04
3.965000000000001162e-02 2.144507016055285931e-04
3.980000000000000898e-02 2.352797746425494552e-04
3.995000000000000634e-02 2.546439936850219965e-04
4.010000000000000370e-02 2.725860686041414738e-04
4.025000000000000105e-02 2.891495823860168457e-04
4.040000000000001229e-02 3.043774922844022512e-04
4.055000000000000965e-02 3.183177032042294741e-04
4.070000000000000701e-02 3.310163156129419804e-04
4.085000000000000436e-02 3.425215254537761211e-04
4.100000000000000172e-02 3.528804518282413483e-04
4.115000000000001296e-02 3.621412033680826426e-04
4.130000000000001031e-02 3.703477268572896719e-04
4.145000000000000767e-02 3.775450750254094601e-04
4.160000000000000503e-02 3.837806289084255695e-04
4.175000000000000239e-02 3.890999651048332453e-04
4.190000000000001362e-02 3.935470012947916985e-04
4.205000000000001098e-02 3.971651021856814623e-04
4.220000000000000834e-02 3.999959444627165794e-04
4.235000000000000570e-02 4.020780907012522221e-04
4.250000000000000305e-02 4.034524899907410145e-04
4.265000000000000041e-02 4.041602660436183214e-04
4.280000000000001165e-02 4.042442888021469116e-04
4.295000000000000900e-02 4.037451290059834719e-04
4.310000000000000636e-02 4.026984388474375010e-04
4.325000000000000372e-02 4.011402779724448919e-04
4.340000000000000108e-02 3.991017874795943499e-04
4.355000000000001231e-02 3.966142830904573202e-04
4.370000000000000967e-02 3.937103610951453447e-04
4.385000000000000703e-02 3.904238692484796047e-04
4.400000000000000439e-02 3.867864725179970264e-04
4.415000000000000174e-02 3.828268672805279493e-04
4.430000000000001298e-02 3.785728767979890108e-04
4.445000000000001034e-02 3.740517131518572569e-04
4.460000000000000769e-02 3.692886384669691324e-04
4.475000000000000505e-02 3.643081290647387505e-04
4.490000000000000241e-02 3.591340500861406326e-04
4.505000000000001364e-02 3.537882294040173292e-04
4.520000000000001100e-02 3.482913889456540346e-04
4.535000000000000836e-02 3.426620678510516882e-04
4.550000000000000572e-02 3.369194455444812775e-04
4.565000000000000308e-02 3.310799365863204002e-04
4.580000000000000043e-02 3.251609159633517265e-04
4.595000000000001167e-02 3.191805444657802582e-04
4.610000000000000903e-02 3.131564008072018623e-04
4.625000000000000638e-02 3.071030077990144491e-04
4.640000000000000374e-02 3.010333457496017218e-04
4.655000000000000110e-02 2.949574554804712534e-04
4.670000000000001233e-02 2.888835733756422997e-04
4.685000000000000969e-02 2.828213328029960394e-04
4.700000000000000705e-02 2.767808618955314159e-04
4.715000000000000441e-02 2.707741514313966036e-04
4.730000000000000177e-02 2.648119116201996803e-04
4.745000000000001300e-02 2.589018549770116806e-04
4.760000000000001036e-02 2.530505880713462830e-04
4.775000000000000772e-02 2.472622145432978868e-04
4.790000000000000507e-02 2.415416820440441370e-04