-4.000000000000000083e-02 0.000000000000000000e+00
-3.985000000000000347e-02 0.000000000000000000e+00
-3.969999999999999918e-02 0.000000000000000000e+00
-3.955000000000000182e-02 0.000000000000000000e+00
-3.939999999999999752e-02 0.000000000000000000e+00
-3.925000000000000017e-02 0.000000000000000000e+00
-3.910000000000000281e-02 0.000000000000000000e+00
-3.894999999999999851e-02 -0.000000000000000000e+00
-3.880000000000000115e-02 0.000000000000000000e+00
-3.865000000000000380e-02 -1.303207571822079876e-43
-3.849999999999999950e-02 4.852696581956841517e-42
-3.835000000000000214e-02 3.554337502821325508e-40
-3.819999999999999785e-02 -1.361976487987551947e-38
-3.805000000000000049e-02 -2.381716150162535313e-37
-3.790000000000000313e-02 7.716765268065519008e-36
-3.774999999999999883e-02 1.235767594071959905e-34
-3.760000000000000148e-02 -2.067506851342256792e-33
-3.744999999999999718e-02 -1.327576283448622599e-32
-3.729999999999999982e-02 -3.276958280530243746e-31
-3.715000000000000246e-02 1.323349948675495373e-29
-3.699999999999999817e-02 -1.725076756787656937e-28
-3.685000000000000081e-02 1.878351771041093579e-27
-3.670000000000000345e-02 -7.933382301185254758e-27
-3.654999999999999916e-02 -1.812857210682701277e-25
-3.640000000000000180e-02 2.920962802631379978e-24
-3.624999999999999750e-02 -1.089339207311053034e-23
-3.610000000000000014e-02 -9.537470970173696686e-23
-3.595000000000000279e-02 8.047148132271940074e-22
-3.579999999999999849e-02 1.609094190175713557e-21
-3.565000000000000113e-02 -1.974623424742853336e-20
-3.550000000000000377e-02 -5.491914458090094897e-20
-3.534999999999999948e-02 1.538014006800438531e-19
-3.520000000000000212e-02 1.141573868808533897e-18
-3.504999999999999782e-02 3.332065693893510279e-18
-3.490000000000000047e-02 7.028091270900659011e-18
-3.475000000000000311e-02 1.289703201555422141e-17
-3.459999999999999881e-02 2.198626215831246287e-17
-3.445000000000000145e-02 3.450214340967266253e-17
-3.429999999999999716e-02 4.520428558422253968e-17
-3.414999999999999980e-02 3.877200010083463821e-17
-3.400000000000000244e-02 1.135373964001811130e-17
-3.384999999999999815e-02 5.767477778101072960e-17
-3.370000000000000079e-02 4.678267788012723492e-16
-3.354999999999999649e-02 1.473216453072145188e-15
-3.339999999999999913e-02 2.077448676545421216e-15
-3.325000000000000178e-02 -1.530392553440349749e-15
-3.309999999999999748e-02 -1.416245694666178750e-14
-3.295000000000000012e-02 -3.007254953954832666e-14
-3.280000000000000276e-02 -1.389778371460028902e-14
-3.264999999999999847e-02 9.546782310000667682e-14
-3.250000000000000111e-02 3.022078030531782922e-13
-3.235000000000000375e-02 3.865696011993297043e-13
-3.219999999999999946e-02 -1.651811554290866235e-13
-3.205000000000000210e-02 -1.753893796689609541e-12
-3.189999999999999780e-02 -3.606570337516545877e-12
-3.175000000000000044e-02 -2.850293568876227646e-12
-3.160000000000000309e-02 4.296965127464913436e-12
-3.144999999999999879e-02 1.770186601468548560e-11
-3.130000000000000143e-02 2.722110731268045924e-11
-3.115000000000000061e-02 1.322965174910262220e-11
-3.099999999999999978e-02 -3.809475998539646469e-11
-3.085000000000000242e-02 -1.085157033675621108e-10
-3.069999999999999812e-02 -1.340177968600642089e-10
-3.055000000000000077e-02 -3.416727664684593435e-11
-3.039999999999999994e-02 2.118147324203789594e-10
-3.024999999999999911e-02 4.916128615306547545e-10
-3.010000000000000175e-02 5.690355409093683647e-10
-2.994999999999999746e-02 2.128213577590187811e-10
-2.980000000000000010e-02 -6.248603856562340297e-10
-2.964999999999999927e-02 -1.730874776839641527e-09
-2.949999999999999845e-02 -2.765404794047299220e-09
-2.935000000000000109e-02 -3.566825501621906369e-09
-2.920000000000000026e-02 -4.445279255804734930e-09
-2.904999999999999943e-02 -6.273230823694575520e-09
-2.890000000000000208e-02 -1.029672258567870813e-08
-2.874999999999999778e-02 -1.773095625878795545e-08
-2.860000000000000042e-02 -2.930349829455280997e-08
-2.844999999999999959e-02 -4.497005434700440674e-08
-2.829999999999999877e-02 -6.400706098474984174e-08
-2.815000000000000141e-02 -8.547372942757647252e-08
-2.800000000000000058e-02 -1.086874590328079648e-07
-2.784999999999999976e-02 -1.332383874341758201e-07
-2.769999999999999893e-02 -1.585048039487446658e-07
-2.754999999999999810e-02 -1.833026885833533015e-07
-2.740000000000000074e-02 -2.063500943449980696e-07
-2.724999999999999992e-02 -2.273168888677901123e-07
-2.709999999999999909e-02 -2.473265681146585848e-07
-2.695000000000000173e-02 -2.681868238596507581e-07
-2.679999999999999744e-02 -2.911304477493104059e-07
-2.665000000000000008e-02 -3.165444297792419093e-07
-2.649999999999999925e-02 -3.448882353040971793e-07
-2.634999999999999842e-02 -3.773043033561407356e-07
-2.620000000000000107e-02 -4.148102448198187631e-07
-2.605000000000000024e-02 -4.571696194943797309e-07
-2.589999999999999941e-02 -5.033238608120882418e-07
-2.575000000000000205e-02 -5.530120006369543262e-07
-2.559999999999999776e-02 -6.070183644624194130e-07
-2.545000000000000040e-02 -6.652153388131409883e-07
-2.529999999999999957e-02 -7.254218985508487094e-07
-2.514999999999999875e-02 -7.859883339733642060e-07
-2.500000000000000139e-02 -8.496569421367894392e-07
-2.484999999999999709e-02 -9.228822364093502983e-07
-2.469999999999999973e-02 -1.009761376735696103e-06
-2.454999999999999891e-02 -1.107659727495047264e-06
-2.439999999999999808e-02 -1.210836330756137613e-06
-2.425000000000000072e-02 -1.317980604653712362e-06
-2.409999999999999989e-02 -1.433442434972675983e-06
-2.394999999999999907e-02 -1.560144482937175781e-06
-2.379999999999999824e-02 -1.694460820544918533e-06
-2.365000000000000088e-02 -1.831448685152281541e-06
-2.350000000000000006e-02 -1.973593043658183888e-06
-2.334999999999999923e-02 -2.129455424437765032e-06
-2.319999999999999840e-02 -2.302224629602278583e-06
-2.304999999999999757e-02 -2.484018523318809457e-06
-2.290000000000000022e-02 -2.665568445081589743e-06
-2.274999999999999939e-02 -2.849137672455981374e-06
-2.259999999999999856e-02 -3.046511437787557952e-06
-2.244999999999999774e-02 -3.264482074882835150e-06
-2.230000000000000038e-02 -3.498845671856543049e-06
-2.214999999999999955e-02 -3.746294851225684397e-06
-2.199999999999999872e-02 -4.017049377580406144e-06
-2.184999999999999790e-02 -4.328700015321373940e-06
-2.170000000000000054e-02 -4.688673016062239185e-06
-2.154999999999999971e-02 -5.090172180644003674e-06
-2.139999999999999888e-02 -5.527799203264294192e-06
-2.124999999999999806e-02 -6.010604465700453147e-06
-2.110000000000000070e-02 -6.553714683832367882e-06
-2.094999999999999987e-02 -7.160399945860262960e-06
-2.079999999999999905e-02 -7.819729034963529557e-06
-2.064999999999999822e-02 -8.522148164047393948e-06
-2.049999999999999739e-02 -9.270491318602580577e-06
-2.035000000000000003e-02 -1.007258106255903840e-05
-2.019999999999999921e-02 -1.092869933927431703e-05
-2.004999999999999838e-02 -1.183260610559955239e-05
-1.989999999999999755e-02 -1.278327817999524996e-05
-1.975000000000000019e-02 -1.379009427182609215e-05
-1.959999999999999937e-02 -1.486603650846518576e-05
-1.944999999999999854e-02 -1.602029442437924445e-05
-1.929999999999999771e-02 -1.725880792946554720e-05
-1.915000000000000036e-02 -1.858780160546302795e-05
-1.899999999999999953e-02 -2.001373286475427449e-05
-1.884999999999999870e-02 -2.154206231352873147e-05
-1.869999999999999787e-02 -2.317862345080357045e-05
-1.855000000000000052e-02 -2.493009014870040119e-05
-1.839999999999999969e-02 -2.680018951650708914e-05
-1.824999999999999886e-02 -2.878768827940803021e-05
-1.809999999999999803e-02 -3.089256642851978540e-05
-1.794999999999999721e-02 -3.312380431452766061e-05
-1.779999999999999985e-02 -3.549685789039358497e-05
-1.764999999999999902e-02 -3.802312858169898391e-05
-1.749999999999999820e-02 -4.070693466928787529e-05
-1.734999999999999737e-02 -4.355516284704208374e-05
-1.720000000000000001e-02 -4.658508987631648779e-05
-1.704999999999999918e-02 -4.981760139344260097e-05
-1.689999999999999836e-02 -5.326473547029308975e-05
-1.674999999999999753e-02 -5.692899867426604033e-05
-1.660000000000000017e-02 -6.081448373151943088e-05
-1.644999999999999934e-02 -6.493345426861196756e-05
-1.629999999999999852e-02 -6.930090603418648243e-05
-1.614999999999999769e-02 -7.392768020508810878e-05
-1.600000000000000033e-02 -7.882250793045386672e-05
-1.584999999999999951e-02 -8.399835496675223112e-05
-1.569999999999999868e-02 -8.947352034738287330e-05
-1.554999999999999785e-02 -9.526838402962312102e-05
-1.539999999999999702e-02 -1.014037115965038538e-04
-1.524999999999999967e-02 -1.079003995982930064e-04
-1.509999999999999884e-02 -1.147769216913729906e-04
-1.494999999999999801e-02 -1.220474659930914640e-04
-1.479999999999999719e-02 -1.297261187573894858e-04
-1.464999999999999983e-02 -1.378329179715365171e-04
-1.449999999999999900e-02 -1.463920489186421037e-04
-1.434999999999999817e-02 -1.554237387608736753e-04
-1.419999999999999735e-02 -1.649427867960184813e-04
-1.404999999999999999e-02 -1.749677030602470040e-04
-1.389999999999999916e-02 -1.855279842857271433e-04
-1.374999999999999833e-02 -1.966586132766678929e-04
-1.359999999999999751e-02 -2.083895815303549170e-04
-1.344999999999999668e-02 -2.207448414992541075e-04
-1.329999999999999932e-02 -2.337503974558785558e-04
-1.314999999999999850e-02 -2.474382927175611258e-04
-1.299999999999999767e-02 -2.618416619952768087e-04
-1.284999999999999684e-02 -2.769897400867193937e-04
-1.269999999999999948e-02 -2.929098845925182104e-04
-1.254999999999999866e-02 -3.096318687312304974e-04
-1.239999999999999783e-02 -3.271892201155424118e-04
-1.224999999999999700e-02 -3.456193662714213133e-04
-1.209999999999999964e-02 -3.649647114798426628e-04
-1.194999999999999882e-02 -3.852712397929280996e-04
-1.179999999999999799e-02 -4.065830144099891186e-04
-1.164999999999999716e-02 -4.289392381906509399e-04
-1.149999999999999981e-02 -4.523797542788088322e-04
-1.134999999999999898e-02 -4.769517690874636173e-04
-1.119999999999999815e-02 -5.027070874348282814e-04
-1.104999999999999732e-02 -5.296934396028518677e-04
-1.089999999999999650e-02 -5.579534918069839478e-04
-1.074999999999999914e-02 -5.875336355529725552e-04
-1.059999999999999831e-02 -6.184903904795646667e-04
-1.044999999999999749e-02 -6.508858641609549522e-04
-1.029999999999999666e-02 -6.847810000181198120e-04
-1.014999999999999930e-02 -7.202352862805128098e-04
-9.999999999999998473e-03 -7.573111215606331825e-04
-9.849999999999997646e-03 -7.960756192915141582e-04
-9.699999999999996819e-03 -8.365974645130336285e-04
-9.549999999999999462e-03 -8.789458079263567924e-04
-9.399999999999998634e-03 -9.231910808011889458e-04
-9.249999999999997807e-03 -9.694040054455399513e-04
-9.099999999999996980e-03 -1.017655478790402412e-03
-8.949999999999999623e-03 -1.068020937964320183e-03
-8.799999999999998795e-03 -1.120585598982870579e-03
-8.649999999999997968e-03 -1.175442710518836975e-03
-8.500000000000000611e-03 -1.232684589922428131e-03
-8.349999999999996314e-03 -1.292399130761623383e-03
-8.199999999999998956e-03 -1.354676438495516777e-03
-8.049999999999994660e-03 -1.419615233317017555e-03
-7.899999999999997302e-03 -1.487320056185126305e-03
-7.749999999999999944e-03 -1.557894051074981689e-03
-7.599999999999995648e-03 -1.631438732147216797e-03
-7.449999999999998290e-03 -1.708060037344694138e-03
-7.300000000000000933e-03 -1.787871355190873146e-03
-7.149999999999996636e-03 -1.870991894975304604e-03
-6.999999999999999278e-03 -1.957544824108481407e-03
-6.849999999999994982e-03 -2.047657268121838570e-03
-6.699999999999997624e-03 -2.141459845006465912e-03
-6.550000000000000266e-03 -2.239085035398602486e-03
-6.399999999999995970e-03 -2.340668346732854843e-03
-6.249999999999998612e-03 -2.446351340040564537e-03
-6.099999999999994316e-03 -2.556280931457877159e-03
-5.949999999999996958e-03 -2.670604269951581955e-03
-5.799999999999999600e-03 -2.789465943351387978e-03
-5.649999999999995304e-03 -2.913015894591808319e-03
-5.499999999999997946e-03 -3.041415940970182419e-03
-5.350000000000000588e-03 -3.174837678670883179e-03
-5.199999999999996292e-03 -3.313453868031501770e-03
-5.049999999999998934e-03 -3.457435872405767441e-03
-4.899999999999994638e-03 -3.606957150623202324e-03
-4.749999999999997280e-03 -3.762197447940707207e-03
-4.599999999999999922e-03 -3.923340700566768646e-03
-4.449999999999995626e-03 -4.090572707355022430e-03
-4.299999999999998268e-03 -4.264082293957471848e-03
-4.150000000000000910e-03 -4.444060847163200378e-03
-3.999999999999996614e-03 -4.630701150745153427e-03
-3.849999999999999256e-03 -4.824199713766574860e-03
-3.699999999999994960e-03 -5.024759098887443542e-03
-3.549999999999997602e-03 -5.232587922364473343e-03
-3.400000000000000244e-03 -5.447895731776952744e-03
-3.249999999999995948e-03 -5.670886952430009842e-03
-3.099999999999998590e-03 -5.901766940951347351e-03
-2.949999999999994293e-03 -6.140746176242828369e-03
-2.799999999999996936e-03 -6.388036999851465225e-03
-2.649999999999999578e-03 -6.643848959356546402e-03
-2.499999999999995282e-03 -6.908385083079338074e-03
-2.349999999999997924e-03 -7.181847002357244492e-03
-2.200000000000000566e-03 -7.464441005140542984e-03
-2.049999999999996270e-03 -7.756374776363372803e-03
-1.899999999999998912e-03 -8.057852275669574738e-03
-1.749999999999994615e-03 -8.369074203073978424e-03
-1.599999999999997258e-03 -8.690235204994678497e-03
-1.449999999999999900e-03 -9.021522477269172668e-03
-1.299999999999995604e-03 -9.363111108541488647e-03
-1.149999999999998246e-03 -9.715175256133079529e-03
-9.999999999999939493e-04 -1.007788535207509995e-02
-8.499999999999965916e-04 -1.045140158385038376e-02
-6.999999999999992339e-04 -1.083587016910314560e-02
-5.499999999999949374e-04 -1.123142521828413010e-02
-3.999999999999975797e-04 -1.163819432258605957e-02
-2.500000000000002220e-04 -1.205629855394363403e-02
-9.999999999999592548e-05 -1.248584035784006119e-02
5.000000000000143219e-05 -1.292690727859735489e-02
2.000000000000057288e-04 -1.337956637144088745e-02
3.500000000000030864e-04 -1.384386979043483734e-02
5.000000000000004441e-04 -1.431985292583703995e-02
6.500000000000047407e-04 -1.480752881616353989e-02
8.000000000000020983e-04 -1.530689094215631485e-02
9.500000000000063949e-04 -1.581790857017040253e-02
1.100000000000003753e-03 -1.634052768349647522e-02
1.250000000000001110e-03 -1.687466911971569061e-02
1.400000000000005407e-03 -1.742023415863513947e-02
1.550000000000002764e-03 -1.797709986567497253e-02
1.700000000000000122e-03 -1.854510977864265442e-02
1.850000000000004419e-03 -1.912407390773296356e-02
2.000000000000001776e-03 -1.971376501023769379e-02
2.150000000000006073e-03 -2.031392417848110199e-02
2.300000000000003431e-03 -2.092427015304565430e-02
2.450000000000000788e-03 -2.154448442161083221e-02
2.600000000000005085e-03 -2.217420749366283417e-02
2.750000000000002442e-03 -2.281304076313972473e-02
2.899999999999999800e-03 -2.346055209636688232e-02
3.050000000000004097e-03 -2.411627210676670074e-02
3.200000000000001454e-03 -2.477968856692314148e-02
3.350000000000005751e-03 -2.545025199651718140e-02
3.500000000000003109e-03 -2.612736448645591736e-02
3.650000000000000466e-03 -2.681038714945316315e-02
3.800000000000004763e-03 -2.749863266944885254e-02
3.950000000000002121e-03 -2.819137275218963623e-02
4.100000000000006417e-03 -2.888783812522888184e-02
4.250000000000003775e-03 -2.958721481263637543e-02
4.400000000000001132e-03 -3.028863854706287384e-02
4.550000000000005429e-03 -3.099120222032070160e-02
4.700000000000002787e-03 -3.169395774602890015e-02
4.850000000000000144e-03 -3.239591047167778015e-02
5.000000000000004441e-03 -3.309602662920951843e-02
5.150000000000001799e-03 -3.379321470856666565e-02
5.300000000000006095e-03 -3.448634594678878784e-02
5.450000000000003453e-03 -3.517424315214157104e-02
5.600000000000000810e-03 -3.585568070411682129e-02
5.750000000000005107e-03 -3.652941063046455383e-02
5.900000000000002465e-03 -3.719413653016090393e-02
6.050000000000006761e-03 -3.784852474927902222e-02
6.200000000000004119e-03 -3.849120810627937317e-02
6.350000000000001477e-03 -3.912076726555824280e-02
6.500000000000005773e-03 -3.973576426506042480e-02
6.650000000000003131e-03 -4.033472388982772827e-02
6.800000000000000488e-03 -4.091614857316017151e-02
6.950000000000004785e-03 -4.147851467132568359e-02
7.100000000000002143e-03 -4.202025011181831360e-02
7.250000000000006439e-03 -4.253977909684181213e-02
7.400000000000003797e-03 -4.303550720214843750e-02
7.550000000000001155e-03 -4.350582510232925415e-02
7.700000000000005451e-03 -4.394910484552383423e-02
7.850000000000002809e-03 -4.436371847987174988e-02
8.000000000000000167e-03 -4.474802315235137939e-02
8.150000000000004463e-03 -4.510037973523139954e-02
8.300000000000001821e-03 -4.541914910078048706e-02
8.450000000000006117e-03 -4.570269957184791565e-02
8.600000000000003475e-03 -4.594940319657325745e-02
8.750000000000000833e-03 -4.615765064954757690e-02
8.900000000000005129e-03 -4.632584378123283386e-02
9.050000000000002487e-03 -4.645241051912307739e-02
9.200000000000006783e-03 -4.653580859303474426e-02
9.350000000000004141e-03 -4.657453298568725586e-02
9.500000000000001499e-03 -4.656711593270301819e-02
9.650000000000005795e-03 -4.651211574673652649e-02
9.800000000000003153e-03 -4.640814661979675293e-02
9.950000000000000511e-03 -4.625386744737625122e-02
1.010000000000000481e-02 -4.604800045490264893e-02
1.025000000000000216e-02 -4.578931629657745361e-02
1.040000000000000646e-02 -4.547666385769844055e-02
1.055000000000000382e-02 -4.510894045233726501e-02
1.070000000000000118e-02 -4.468512907624244690e-02
1.085000000000000547e-02 -4.420428723096847534e-02
1.100000000000000283e-02 -4.366556182503700256e-02
1.115000000000000713e-02 -4.306818544864654541e-02
1.130000000000000449e-02 -4.241148009896278381e-02
1.145000000000000184e-02 -4.169485718011856079e-02
1.160000000000000614e-02 -4.091782867908477783e-02
1.175000000000000350e-02 -4.008000344038009644e-02
1.190000000000000085e-02 -3.918110206723213196e-02
1.205000000000000515e-02 -3.822095692157745361e-02
1.220000000000000251e-02 -3.719949722290039062e-02
1.235000000000000681e-02 -3.611677885055541992e-02
1.250000000000000416e-02 -3.497297316789627075e-02
1.265000000000000152e-02 -3.376837447285652161e-02
1.280000000000000582e-02 -3.250339627265930176e-02
1.295000000000000318e-02 -3.117856569588184357e-02
1.310000000000000747e-02 -2.979454770684242249e-02
1.325000000000000483e-02 -2.835212275385856628e-02
1.340000000000000219e-02 -2.685219608247280121e-02
1.355000000000000648e-02 -2.529580146074295044e-02
1.370000000000000384e-02 -2.368410490453243256e-02
1.385000000000000120e-02 -2.201839722692966461e-02
1.400000000000000550e-02 -2.030008658766746521e-02
1.415000000000000285e-02 -1.853070780634880066e-02
1.430000000000000715e-02 -1.671192422509193420e-02
1.445000000000000451e-02 -1.484552398324012756e-02
1.460000000000000187e-02 -1.293341349810361862e-02
1.475000000000000616e-02 -1.097761094570159912e-02
1.490000000000000352e-02 -8.980247192084789276e-03
1.505000000000000088e-02 -6.943563465029001236e-03
1.520000000000000517e-02 -4.869909025728702545e-03
1.535000000000000253e-02 -2.761740237474441528e-03
1.550000000000000683e-02 -6.216151523403823376e-04
1.565000000000000419e-02 1.547813881188631058e-03
1.580000000000000154e-02 3.743808018043637276e-03
1.595000000000000584e-02 5.963543895632028580e-03
1.610000000000000320e-02 8.204113692045211792e-03
1.625000000000000749e-02 1.046253554522991180e-02
1.640000000000000485e-02 1.273576263338327408e-02
1.655000000000000221e-02 1.502068899571895599e-02
1.670000000000000651e-02 1.731415465474128723e-02
1.685000000000000386e-02 1.961294934153556824e-02
1.700000000000000122e-02 2.191381901502609253e-02
1.715000000000000552e-02 2.421347238123416901e-02
1.730000000000000288e-02 2.650859393179416656e-02
1.745000000000000717e-02 2.879584766924381256e-02
1.760000000000000453e-02 3.107188642024993896e-02
1.775000000000000189e-02 3.333335742354393005e-02
1.790000000000000618e-02 3.557690978050231934e-02
1.805000000000000354e-02 3.779920190572738647e-02
1.820000000000000784e-02 3.999690338969230652e-02
1.835000000000000520e-02 4.216673225164413452e-02
1.850000000000000255e-02 4.430542886257171631e-02
1.865000000000000685e-02 4.640977084636688232e-02
1.880000000000000421e-02 4.847657680511474609e-02
1.895000000000000157e-02 5.050273239612579346e-02
1.910000000000000586e-02 5.248517543077468872e-02
1.925000000000000322e-02 5.442092940211296082e-02
1.940000000000000752e-02 5.630707740783691406e-02
1.955000000000000487e-02 5.814080312848091125e-02
1.970000000000000223e-02 5.991937965154647827e-02
1.985000000000000653e-02 6.164016574621200562e-02
2.000000000000000389e-02 6.330063194036483765e-02
2.015000000000000818e-02 6.489835679531097412e-02
2.030000000000000554e-02 6.643103063106536865e-02
2.045000000000000290e-02 6.789646297693252563e-02
2.060000000000000719e-02 6.929259747266769409e-02
2.075000000000000455e-02 7.061748951673507690e-02
2.090000000000000191e-02 7.186932861804962158e-02
2.105000000000000621e-02 7.304646819829940796e-02
2.120000000000000356e-02 7.414737343788146973e-02
2.135000000000000786e-02 7.517068088054656982e-02
2.150000000000000522e-02 7.611513882875442505e-02
2.165000000000000258e-02 7.697967439889907837e-02
2.180000000000000687e-02 7.776336371898651123e-02
2.195000000000000423e-02 7.846540957689285278e-02
2.210000000000000159e-02 7.908518612384796143e-02
2.225000000000000588e-02 7.962222397327423096e-02
2.240000000000000324e-02 8.007620275020599365e-02
2.255000000000000754e-02 8.044695109128952026e-02
2.270000000000000490e-02 8.073444664478302002e-02
2.285000000000000225e-02 8.093883842229843140e-02
2.299999999999999961e-02 8.106042444705963135e-02
2.315000000000001085e-02 8.109965175390243530e-02
2.330000000000000820e-02 8.105709403753280640e-02
2.345000000000000556e-02 8.093348145484924316e-02
2.360000000000000292e-02 8.072969317436218262e-02
2.375000000000000028e-02 8.044674247503280640e-02
2.390000000000001151e-02 8.008577674627304077e-02
2.405000000000000887e-02 7.964807003736495972e-02
2.420000000000000623e-02 7.913501560688018799e-02
2.435000000000000359e-02 7.854816317558288574e-02
2.450000000000000094e-02 7.788913697004318237e-02
2.464999999999999830e-02 7.715969532728195190e-02
2.480000000000000954e-02 7.636171579360961914e-02
2.495000000000000689e-02 7.549715787172317505e-02
2.510000000000000425e-02 7.456807792186737061e-02
2.525000000000000161e-02 7.357663661241531372e-02
2.539999999999999897e-02 7.252505421638488770e-02
2.555000000000001020e-02 7.141566276550292969e-02
2.570000000000000756e-02 7.025083154439926147e-02
2.585000000000000492e-02 6.903301924467086792e-02
2.600000000000000228e-02 6.776472926139831543e-02
2.614999999999999963e-02 6.644853204488754272e-02
2.630000000000001087e-02 6.508703529834747314e-02
2.645000000000000823e-02 6.368288397789001465e-02
2.660000000000000558e-02 6.223876401782035828e-02
2.675000000000000294e-02 6.075737625360488892e-02
2.690000000000000030e-02 5.924144759774208069e-02
2.705000000000001154e-02 5.769371613860130310e-02
2.720000000000000889e-02 5.611693486571311951e-02
2.735000000000000625e-02 5.451384559273719788e-02
2.750000000000000361e-02 5.288719385862350464e-02
2.765000000000000097e-02 5.123971402645111084e-02
2.780000000000001220e-02 4.957411438226699829e-02
2.795000000000000956e-02 4.789309203624725342e-02
2.810000000000000692e-02 4.619930684566497803e-02
2.825000000000000427e-02 4.449540376663208008e-02
2.840000000000000163e-02 4.278396815061569214e-02
2.854999999999999899e-02 4.106754437088966370e-02
2.870000000000001023e-02 3.934863209724426270e-02
2.885000000000000758e-02 3.762967884540557861e-02
2.900000000000000494e-02 3.591307625174522400e-02
2.915000000000000230e-02 3.420116007328033447e-02
2.929999999999999966e-02 3.249619901180267334e-02
2.945000000000001089e-02 3.080039285123348236e-02
2.960000000000000825e-02 2.911587059497833252e-02
2.975000000000000561e-02 2.744468674063682556e-02
2.990000000000000296e-02 2.578881941735744476e-02
3.005000000000000032e-02 2.415016852319240570e-02
3.020000000000001156e-02 2.253055199980735779e-02
3.035000000000000892e-02 2.093170210719108582e-02
3.050000000000000627e-02 1.935527473688125610e-02
3.065000000000000363e-02 1.780283823609352112e-02
3.080000000000000099e-02 1.627587527036666870e-02
3.095000000000001222e-02 1.477577816694974899e-02
3.110000000000000958e-02 1.330385077744722366e-02
3.125000000000000694e-02 1.186130940914154053e-02
3.140000000000000430e-02 1.044928189367055893e-02
3.155000000000000165e-02 9.068812243640422821e-03
3.169999999999999901e-02 7.720853202044963837e-03
3.185000000000001025e-02 6.406269967555999756e-03
3.200000000000000761e-02 5.125837866216897964e-03
3.215000000000000496e-02 3.880247473716735840e-03
3.230000000000000232e-02 2.670110901817679405e-03
3.244999999999999968e-02 1.495959470048546791e-03
3.260000000000001091e-02 3.582423087209463120e-04
3.275000000000000827e-02 -7.426733500324189663e-04
3.290000000000000563e-02 -1.806499669328331947e-03
3.305000000000000299e-02 -2.833025529980659485e-03
3.320000000000000034e-02 -3.822112921625375748e-03
3.335000000000001158e-02 -4.773693159222602844e-03
3.350000000000000894e-02 -5.687765311449766159e-03
3.365000000000000629e-02 -6.564395502209663391e-03
3.380000000000000365e-02 -7.403715047985315323e-03
3.395000000000000101e-02 -8.205917663872241974e-03
3.410000000000001225e-02 -8.971253409981727600e-03
3.425000000000000960e-02 -9.700025431811809540e-03
3.440000000000000696e-02 -1.039259321987628937e-02
3.455000000000000432e-02 -1.104936935007572174e-02
3.470000000000000168e-02 -1.167081389576196671e-02
3.485000000000001291e-02 -1.225743070244789124e-02
3.500000000000001027e-02 -1.280976459383964539e-02
3.515000000000000763e-02 -1.332840044051408768e-02
3.530000000000000498e-02 -1.381395850330591202e-02
3.545000000000000234e-02 -1.426709443330764771e-02
3.559999999999999970e-02 -1.468849368393421173e-02
3.575000000000001094e-02 -1.507886778563261032e-02
3.590000000000000829e-02 -1.543895434588193893e-02
3.605000000000000565e-02 -1.576951146125793457e-02
3.620000000000000301e-02 -1.607131958007812500e-02
3.635000000000000037e-02 -1.634518243372440338e-02
3.650000000000001160e-02 -1.659191772341728210e-02
3.665000000000000896e-02 -1.681235618889331818e-02
3.680000000000000632e-02 -1.700733043253421783e-02
3.695000000000000367e-02 -1.717768423259258270e-02
3.710000000000000103e-02 -1.732427068054676056e-02
3.725000000000001227e-02 -1.744794100522994995e-02
3.740000000000000963e-02 -1.754955574870109558e-02
3.755000000000000698e-02 -1.762997172772884369e-02
3.770000000000000434e-02 -1.769004389643669128e-02
3.785000000000000170e-02 -1.773062162101268768e-02
3.800000000000001293e-02 -1.775255240499973297e-02
3.815000000000001029e-02 -1.775667816400527954e-02
3.830000000000000765e-02 -1.774382963776588440e-02
3.845000000000000501e-02 -1.771483011543750763e-02
3.860000000000000236e-02 -1.767048984766006470e-02
3.874999999999999972e-02 -1.761160232126712799e-02
3.890000000000001096e-02 -1.753894984722137451e-02
3.905000000000000832e-02 -1.745330356061458588e-02
3.920000000000000567e-02 -1.735541783273220062e-02
3.935000000000000303e-02 -1.724603399634361267e-02
3.950000000000000039e-02 -1.712587103247642517e-02
3.965000000000001162e-02 -1.699563674628734589e-02
3.980000000000000898e-02 -1.685601472854614258e-02
3.995000000000000634e-02 -1.670767366886138916e-02
4.010000000000000370e-02 -1.655126363039016724e-02
4.025000000000000105e-02 -1.638740859925746918e-02
4.040000000000001229e-02 -1.621671393513679504e-02
4.055000000000000965e-02 -1.603976637125015259e-02
4.070000000000000701e-02 -1.585713401436805725e-02
4.085000000000000436e-02 -1.566936634480953217e-02
4.100000000000000172e-02 -1.547699235379695892e-02
4.115000000000001296e-02 -1.528051774948835373e-02
4.130000000000001031e-02 -1.508042495697736740e-02
4.145000000000000767e-02 -1.487717777490615845e-02
4.160000000000000503e-02 -1.467122416943311691e-02
4.175000000000000239e-02 -1.446298882365226746e-02
4.190000000000001362e-02 -1.425287686288356781e-02
4.205000000000001098e-02 -1.404127199202775955e-02
4.220000000000000834e-02 -1.382854022085666656e-02
4.235000000000000570e-02 -1.361502334475517273e-02
4.250000000000000305e-02 -1.340105105191469193e-02
4.265000000000000041e-02 -1.318693533539772034e-02
4.280000000000001165e-02 -1.297297328710556030e-02
4.295000000000000900e-02 -1.275943964719772339e-02
4.310000000000000636e-02 -1.254658866673707962e-02
4.325000000000000372e-02 -1.233466155827045441e-02
4.340000000000000108e-02 -1.212388370186090469e-02
4.355000000000001231e-02 -1.191446371376514435e-02
4.370000000000000967e-02 -1.170659717172384262e-02
4.385000000000000703e-02 -1.150046382099390030e-02
4.400000000000000439e-02 -1.129623036831617355e-02
4.415000000000000174e-02 -1.109404861927032471e-02
4.430000000000001298e-02 -1.089405827224254608e-02
4.445000000000001034e-02 -1.069638971239328384e-02
4.460000000000000769e-02 -1.050115842372179031e-02
4.475000000000000505e-02 -1.030846778303384781e-02
4.490000000000000241e-02 -1.011840905994176865e-02
4.505000000000001364e-02 -9.931062348186969757e-03
4.520000000000001100e-02 -9.746501222252845764e-03
4.535000000000000836e-02 -9.564790874719619751e-03
4.550000000000000572e-02 -9.385984390974044800e-03
4.565000000000000308e-02 -9.210125543177127838e-03
4.580000000000000043e-02 -9.037250652909278870e-03
4.595000000000001167e-02 -8.867392316460609436e-03
4.610000000000000903e-02 -8.700576610863208771e-03
4.625000000000000638e-02 -8.536820299923419952e-03
4.640000000000000374e-02 -8.376132696866989136e-03
4.655000000000000110e-02 -8.218515664339065552e-03
4.670000000000001233e-02 -8.063963614404201508e-03
4.685000000000000969e-02 -7.912469096481800079e-03
4.700000000000000705e-02 -7.764022331684827805e-03
4.715000000000000441e-02 -7.618611212819814682e-03
4.730000000000000177e-02 -7.476217113435268402e-03
4.745000000000001300e-02 -7.336813490837812424e-03
4.760000000000001036e-02 -7.200372871011495590e-03
4.775000000000000772e-02 -7.066864985972642899e-03