-4.000000000000000083e-02 0.000000000000000000e+00
-3.985000000000000347e-02 0.000000000000000000e+00
-3.969999999999999918e-02 0.000000000000000000e+00
-3.955000000000000182e-02 0.000000000000000000e+00
-3.939999999999999752e-02 0.000000000000000000e+00
-3.925000000000000017e-02 0.000000000000000000e+00
-3.910000000000000281e-02 0.000000000000000000e+00
-3.894999999999999851e-02 0.000000000000000000e+00
-3.880000000000000115e-02 0.000000000000000000e+00
-3.865000000000000380e-02 0.000000000000000000e+00
-3.849999999999999950e-02 0.000000000000000000e+00
-3.835000000000000214e-02 0.000000000000000000e+00
-3.819999999999999785e-02 0.000000000000000000e+00
-3.805000000000000049e-02 0.000000000000000000e+00
-3.790000000000000313e-02 0.000000000000000000e+00
-3.774999999999999883e-02 0.000000000000000000e+00
-3.760000000000000148e-02 0.000000000000000000e+00
-3.744999999999999718e-02 0.000000000000000000e+00
-3.729999999999999982e-02 0.000000000000000000e+00
-3.715000000000000246e-02 0.000000000000000000e+00
-3.699999999999999817e-02 0.000000000000000000e+00
-3.685000000000000081e-02 0.000000000000000000e+00
-3.670000000000000345e-02 0.000000000000000000e+00
-3.654999999999999916e-02 0.000000000000000000e+00
-3.640000000000000180e-02 0.000000000000000000e+00
-3.624999999999999750e-02 0.000000000000000000e+00
-3.610000000000000014e-02 0.000000000000000000e+00
-3.595000000000000279e-02 0.000000000000000000e+00
-3.579999999999999849e-02 0.000000000000000000e+00
-3.565000000000000113e-02 0.000000000000000000e+00
-3.550000000000000377e-02 0.000000000000000000e+00
-3.534999999999999948e-02 0.000000000000000000e+00
-3.520000000000000212e-02 0.000000000000000000e+00
-3.504999999999999782e-02 0.000000000000000000e+00
-3.490000000000000047e-02 0.000000000000000000e+00
-3.475000000000000311e-02 0.000000000000000000e+00
-3.459999999999999881e-02 0.000000000000000000e+00
-3.445000000000000145e-02 0.000000000000000000e+00
-3.429999999999999716e-02 0.000000000000000000e+00
-3.414999999999999980e-02 0.000000000000000000e+00
-3.400000000000000244e-02 0.000000000000000000e+00
-3.384999999999999815e-02 0.000000000000000000e+00
-3.370000000000000079e-02 0.000000000000000000e+00
-3.354999999999999649e-02 0.000000000000000000e+00
-3.339999999999999913e-02 0.000000000000000000e+00
-3.325000000000000178e-02 0.000000000000000000e+00
-3.309999999999999748e-02 0.000000000000000000e+00
-3.295000000000000012e-02 0.000000000000000000e+00
-3.280000000000000276e-02 -1.401298464324817071e-45
-3.264999999999999847e-02 5.465064010866786577e-44
-3.250000000000000111e-02 -3.993700623325728652e-43
-3.235000000000000375e-02 -2.731130706969068471e-42
-3.219999999999999946e-02 8.180500175035417097e-41
-3.205000000000000210e-02 -5.045066835139352404e-40
-3.189999999999999780e-02 -4.123039070284444943e-39
-3.175000000000000044e-02 8.239155726155125290e-38
-3.160000000000000309e-02 -2.335995256491808057e-37
-3.144999999999999879e-02 -5.184719657153802514e-36
-3.130000000000000143e-02 4.745499679848049536e-35
-3.115000000000000061e-02 1.133980459167178173e-34
-3.099999999999999978e-02 -3.523398481821907915e-33
-3.085000000000000242e-02 7.314977918260258822e-33
-3.069999999999999812e-02 1.656746204927465138e-31
-3.055000000000000077e-02 -8.574923779926412260e-31
-3.039999999999999994e-02 -5.544191834184379954e-30
-3.024999999999999911e-02 4.861012874006248895e-29
-3.010000000000000175e-02 1.387852321685906625e-28
-2.994999999999999746e-02 -1.995706578865379847e-27
-2.980000000000000010e-02 -2.780136882249328816e-27
-2.964999999999999927e-02 6.614633202942787408e-26
-2.949999999999999845e-02 5.671623946460932264e-26
-2.935000000000000109e-02 -1.850302441049376367e-24
-2.920000000000000026e-02 -1.723138851988654485e-24
-2.904999999999999943e-02 4.402324109652344426e-23
-2.890000000000000208e-02 6.557106507505676648e-23
-2.874999999999999778e-02 -8.663392135043172936e-22
-2.860000000000000042e-02 -2.166561719377190304e-21
-2.844999999999999959e-02 1.301051705969343404e-20
-2.829999999999999877e-02 5.458741930587304259e-20
-2.815000000000000141e-02 -1.166855610255451496e-19
-2.800000000000000058e-02 -9.892516609341909241e-19
-2.784999999999999976e-02 -3.091149392186229253e-19
-2.769999999999999893e-02 1.155009246510349879e-17
-2.754999999999999810e-02 2.852159449368977032e-17
-2.740000000000000074e-02 -5.482576591930863935e-17
-2.724999999999999992e-02 -4.046397620624368491e-16
-2.709999999999999909e-02 -5.492372329442512906e-16
-2.695000000000000173e-02 1.743962805486338596e-15
-2.679999999999999744e-02 8.737710668936873870e-15
-2.665000000000000008e-02 1.383907162586135720e-14
-2.649999999999999925e-02 -9.058289769583050682e-15
-2.634999999999999842e-02 -9.883232605792727221e-14
-2.620000000000000107e-02 -2.764991198240390746e-13
-2.605000000000000024e-02 -5.259934740368954476e-13
-2.589999999999999941e-02 -8.231007021797243084e-13
-2.575000000000000205e-02 -1.175365685855689346e-12
-2.559999999999999776e-02 -1.605829943844561125e-12
-2.545000000000000040e-02 -2.112112351335126981e-12
-2.529999999999999957e-02 -2.683033916567323374e-12
-2.514999999999999875e-02 -3.334769960172678793e-12
-2.500000000000000139e-02 -4.085242994583682119e-12
-2.484999999999999709e-02 -4.928258755948489167e-12
-2.469999999999999973e-02 -5.868993659119414730e-12
-2.454999999999999891e-02 -6.931258084846847467e-12
-2.439999999999999808e-02 -8.119603947531750521e-12
-2.425000000000000072e-02 -9.435793292544847333e-12
-2.409999999999999989e-02 -1.090424018440616649e-11
-2.394999999999999907e-02 -1.253822653340952442e-11
-2.379999999999999824e-02 -1.434144903528222770e-11
-2.365000000000000088e-02 -1.633938817580116165e-11
-2.350000000000000006e-02 -1.855171918863085523e-11
-2.334999999999999923e-02 -2.098671757211345579e-11
-2.319999999999999840e-02 -2.367313983731023086e-11
-2.304999999999999757e-02 -2.663592089946487107e-11
-2.290000000000000022e-02 -2.988954916904873471e-11
-2.274999999999999939e-02 -3.346846411123038934e-11
-2.259999999999999856e-02 -3.740268511576161359e-11
-2.244999999999999774e-02 -4.171465950442154735e-11
-2.230000000000000038e-02 -4.644665554942584151e-11
-2.214999999999999955e-02 -5.163430447097105969e-11
-2.199999999999999872e-02 -5.731041682888182720e-11
-2.184999999999999790e-02 -6.352678799670385956e-11
-2.170000000000000054e-02 -7.032598114964372371e-11
-2.154999999999999971e-02 -7.775424748501791328e-11
-2.139999999999999888e-02 -8.587417582583967146e-11
-2.124999999999999806e-02 -9.473773154855535950e-11
-2.110000000000000070e-02 -1.044080585876905332e-10
-2.094999999999999987e-02 -1.149594794358499428e-10
-2.079999999999999905e-02 -1.264574694959108569e-10
-2.064999999999999822e-02 -1.389852399835689312e-10
-2.049999999999999739e-02 -1.526302556564829160e-10
-2.035000000000000003e-02 -1.674772126536439032e-10
-2.019999999999999921e-02 -1.836316931846937450e-10
-2.004999999999999838e-02 -2.011972255466787374e-10
-1.989999999999999755e-02 -2.202844434640027771e-10
-1.975000000000000019e-02 -2.410227295523981184e-10
-1.959999999999999937e-02 -2.635372753356790554e-10
-1.944999999999999854e-02 -2.879709803949026536e-10
-1.929999999999999771e-02 -3.144786930864285068e-10
-1.915000000000000036e-02 -3.432159279004309838e-10
-1.899999999999999953e-02 -3.743623744334456660e-10
-1.884999999999999870e-02 -4.081022741964090983e-10
-1.869999999999999787e-02 -4.446317480866213145e-10
-1.855000000000000052e-02 -4.841700929070213988e-10
-1.839999999999999969e-02 -5.269392699958075355e-10
-1.824999999999999886e-02 -5.731854990642659686e-10
-1.809999999999999803e-02 -6.231705151904520790e-10
-1.794999999999999721e-02 -6.771672111938187300e-10
-1.779999999999999985e-02 -7.354770681367028828e-10
-1.764999999999999902e-02 -7.984135574901074506e-10
-1.749999999999999820e-02 -8.663116890517130742e-10
-1.734999999999999737e-02 -9.395358935293529612e-10
-1.720000000000000001e-02 -1.018461204260745490e-09
-1.704999999999999918e-02 -1.103499847054933980e-09
-1.689999999999999836e-02 -1.195082366400868068e-09
-1.674999999999999753e-02 -1.293665841117785931e-09
-1.660000000000000017e-02 -1.399744542496250688e-09
-1.644999999999999934e-02 -1.513830838462126849e-09
-1.629999999999999852e-02 -1.636479729505424530e-09
-1.614999999999999769e-02 -1.768273083513349775e-09
-1.600000000000000033e-02 -1.909830071866736034e-09
-1.584999999999999951e-02 -2.061807169440044163e-09
-1.569999999999999868e-02 -2.224899375846689509e-09
-1.554999999999999785e-02 -2.399838328059900050e-09
-1.539999999999999702e-02 -2.587408065579666072e-09
-1.524999999999999967e-02 -2.788422825972247665e-09
-1.509999999999999884e-02 -3.003759019293283927e-09
-1.494999999999999801e-02 -3.234328360690597037e-09
-1.479999999999999719e-02 -3.481100296909289682e-09
-1.464999999999999983e-02 -3.745098009488856405e-09
-1.449999999999999900e-02 -4.027393529781875259e-09
-1.434999999999999817e-02 -4.329125058433191953e-09
-1.419999999999999735e-02 -4.651484530882044055e-09
-1.404999999999999999e-02 -4.995726943235467843e-09
-1.389999999999999916e-02 -5.363179234052495303e-09
-1.374999999999999833e-02 -5.755222520775760131e-09
-1.359999999999999751e-02 -6.173322741886977383e-09
-1.344999999999999668e-02 -6.619006232000401724e-09
-1.329999999999999932e-02 -7.093881482234110081e-09
-1.314999999999999850e-02 -7.599634699317903141e-09
-1.299999999999999767e-02 -8.138028029236465954e-09
-1.284999999999999684e-02 -8.710914656262502831e-09
-1.269999999999999948e-02 -9.320223703923602443e-09
-1.254999999999999866e-02 -9.967979330838261376e-09
-1.239999999999999783e-02 -1.065630161889430383e-08
-1.224999999999999700e-02 -1.138739147421574671e-08
-1.209999999999999964e-02 -1.216356260158590885e-08
-1.194999999999999882e-02 -1.298721397091640029e-08
-1.179999999999999799e-02 -1.386085557442129357e-08
-1.164999999999999716e-02 -1.478710043301134647e-08
-1.149999999999999981e-02 -1.576866637265084137e-08
-1.134999999999999898e-02 -1.680838401796336257e-08
-1.119999999999999815e-02 -1.790919235133969778e-08
-1.104999999999999732e-02 -1.907415025925729424e-08
-1.089999999999999650e-02 -2.030642498596080259e-08
-1.074999999999999914e-02 -2.160930989703047089e-08
-1.059999999999999831e-02 -2.298622092666846584e-08
-1.044999999999999749e-02 -2.444068769591467571e-08
-1.029999999999999666e-02 -2.597636772350142564e-08
-1.014999999999999930e-02 -2.759704997856715636e-08
-9.999999999999998473e-03 -2.930664244615854841e-08
-9.849999999999997646e-03 -3.110918811444207677e-08
-9.699999999999996819e-03 -3.300885964563349262e-08
-9.549999999999999462e-03 -3.500995404692730517e-08
-9.399999999999998634e-03 -3.711690155228097865e-08
-9.249999999999997807e-03 -3.933425674063073529e-08
-9.099999999999996980e-03 -4.166671274674627057e-08
-8.949999999999999623e-03 -4.411906928680764395e-08
-8.799999999999998795e-03 -4.669625397468735173e-08
-8.649999999999997968e-03 -4.940331876923664822e-08
-8.500000000000000611e-03 -5.224545773785393976e-08
-8.349999999999996314e-03 -5.522798574020271190e-08
-8.199999999999998956e-03 -5.835641658791246300e-08
-8.049999999999994660e-03 -6.163643462286927388e-08
-7.899999999999997302e-03 -6.507396221877570497e-08
-7.749999999999999944e-03 -6.867510649044561433e-08
-7.599999999999995648e-03 -7.244613442480840604e-08
-7.449999999999998290e-03 -7.639335564135762979e-08
-7.300000000000000933e-03 -8.052295186189439846e-08
-7.149999999999996636e-03 -8.484073532599722967e-08
-6.999999999999999278e-03 -8.935194983905603294e-08
-6.849999999999994982e-03 -9.406116419086174574e-08
-6.699999999999997624e-03 -9.897227926103369100e-08
-6.550000000000000266e-03 -1.040888832903874572e-07
-6.399999999999995970e-03 -1.094148132096961490e-07
-6.249999999999998612e-03 -1.149550215018280142e-07
-6.099999999999994316e-03 -1.207164217476019985e-07
-5.949999999999996958e-03 -1.267085139033952146e-07
-5.799999999999999600e-03 -1.329434695662712329e-07
-5.649999999999995304e-03 -1.394354711692358251e-07
-5.499999999999997946e-03 -1.461991843143550796e-07
-5.350000000000000588e-03 -1.532476687771122670e-07
-5.199999999999996292e-03 -1.605901474022175535e-07
-5.049999999999998934e-03 -1.682305850181364804e-07
-4.899999999999994638e-03 -1.761674468525598058e-07
-4.749999999999997280e-03 -1.843953043589863228e-07
-4.599999999999999922e-03 -1.929078052853583358e-07
-4.449999999999995626e-03 -2.017016242916724877e-07
-4.299999999999998268e-03 -2.107798025008378318e-07
-4.150000000000000910e-03 -2.201533391144039342e-07
-3.999999999999996614e-03 -2.298401540201666648e-07
-3.849999999999999256e-03 -2.398612366505403770e-07
-3.699999999999994960e-03 -2.502354448097321438e-07
-3.549999999999997602e-03 -2.609741329706594115e-07
-3.400000000000000244e-03 -2.720787222187937004e-07
-3.249999999999995948e-03 -2.835411976320756366e-07
-3.099999999999998590e-03 -2.953490252366464119e-07
-2.949999999999994293e-03 -3.074916605783073464e-07
-2.799999999999996936e-03 -3.199666593900474254e-07
-2.649999999999999578e-03 -3.327827187149523525e-07
-2.499999999999995282e-03 -3.459576305431255605e-07
-2.349999999999997924e-03 -3.595122279875795357e-07
-2.200000000000000566e-03 -3.734623135187575826e-07
-2.049999999999996270e-03 -3.878121788147836924e-07
-1.899999999999998912e-03 -4.025534678930853261e-07
-1.749999999999994615e-03 -4.176689003543287981e-07
-1.599999999999997258e-03 -4.331409115820861189e-07
-1.449999999999999900e-03 -4.489601224122452550e-07
-1.299999999999995604e-03 -4.651296592328435509e-07
-1.149999999999998246e-03 -4.816638465854339302e-07
-9.999999999999939493e-04 -4.985798796042217873e-07
-8.499999999999965916e-04 -5.158889280210132711e-07
-6.999999999999992339e-04 -5.335884907253785059e-07
-5.499999999999949374e-04 -5.516616852219158318e-07
-3.999999999999975797e-04 -5.700840119970962405e-07
-2.500000000000002220e-04 -5.888333589609828778e-07
-9.999999999999592548e-05 -6.078986984903167468e-07
5.000000000000143219e-05 -6.272833843468106352e-07
2.000000000000057288e-04 -6.469989557444932871e-07
3.500000000000030864e-04 -6.670547350040578749e-07
5.000000000000004441e-04 -6.874483915453311056e-07
6.500000000000047407e-04 -7.081615081006020773e-07
8.000000000000020983e-04 -7.291636734407802578e-07
9.500000000000063949e-04 -7.504238510591676459e-07
1.100000000000003753e-03 -7.719207815171102993e-07
1.250000000000001110e-03 -7.936477004477637820e-07
1.400000000000005407e-03 -8.156088142641237937e-07
1.550000000000002764e-03 -8.378077609449974261e-07
1.700000000000000122e-03 -8.602369234722573310e-07
1.850000000000004419e-03 -8.828706086205784231e-07
2.000000000000001776e-03 -9.056719818545388989e-07
2.150000000000006073e-03 -9.286024464927322697e-07
2.300000000000003431e-03 -9.516334102954715490e-07
2.450000000000000788e-03 -9.747511739988112822e-07
2.600000000000005085e-03 -9.979527249015518464e-07
2.750000000000002442e-03 -1.021234993459074758e-06
2.899999999999999800e-03 -1.044578311848454177e-06
3.050000000000004097e-03 -1.067948801392049063e-06
3.200000000000001454e-03 -1.091300418920582160e-06
3.350000000000005751e-03 -1.114587576012127101e-06
3.500000000000003109e-03 -1.137780373028363101e-06
3.650000000000000466e-03 -1.160860733762092423e-06
3.800000000000004763e-03 -1.183820586447836831e-06
3.950000000000002121e-03 -1.206642991746775806e-06
4.100000000000006417e-03 -1.229300323757342994e-06
4.250000000000003775e-03 -1.251743924512993544e-06
4.400000000000001132e-03 -1.273923089684103616e-06
4.550000000000005429e-03 -1.295788933930452913e-06
4.700000000000002787e-03 -1.317310079684830271e-06
4.850000000000000144e-03 -1.338469701295252889e-06
5.000000000000004441e-03 -1.359251427857088856e-06
5.150000000000001799e-03 -1.379629225084499922e-06
5.300000000000006095e-03 -1.399557731929235160e-06
5.450000000000003453e-03 -1.418983742951240856e-06
5.600000000000000810e-03 -1.437846549379173666e-06
5.750000000000005107e-03 -1.456106588193506468e-06
5.900000000000002465e-03 -1.473736574553186074e-06
6.050000000000006761e-03 -1.490727186137519311e-06
6.200000000000004119e-03 -1.507042497905786149e-06
6.350000000000001477e-03 -1.522642037343757693e-06
6.500000000000005773e-03 -1.537475441182323266e-06
6.650000000000003131e-03 -1.551482000650139526e-06
6.800000000000000488e-03 -1.564617605254170485e-06
6.950000000000004785e-03 -1.576845420458994340e-06
7.100000000000002143e-03 -1.588139639352448285e-06
7.250000000000006439e-03 -1.598486619514005724e-06
7.400000000000003797e-03 -1.607842477824306116e-06
7.550000000000001155e-03 -1.616169925000576768e-06
7.700000000000005451e-03 -1.623404273232154083e-06
7.850000000000002809e-03 -1.629491180210607126e-06
8.000000000000000167e-03 -1.634404839023773093e-06
8.150000000000004463e-03 -1.638114781599142589e-06
8.300000000000001821e-03 -1.640621121623553336e-06
8.450000000000006117e-03 -1.641884523451153655e-06
8.600000000000003475e-03 -1.641854282752319705e-06
8.750000000000000833e-03 -1.640478330955374986e-06
8.900000000000005129e-03 -1.637713353375147562e-06
9.050000000000002487e-03 -1.633550368751457427e-06
9.200000000000006783e-03 -1.627973915674374439e-06
9.350000000000004141e-03 -1.620935904611542355e-06
9.500000000000001499e-03 -1.612408595974557102e-06
9.650000000000005795e-03 -1.602403472134028561e-06
9.800000000000003153e-03 -1.590884153301885817e-06
9.950000000000000511e-03 -1.577806756358768325e-06
1.010000000000000481e-02 -1.563095793244428933e-06
1.025000000000000216e-02 -1.546761950521613471e-06
1.040000000000000646e-02 -1.528848770249169320e-06
1.055000000000000382e-02 -1.509373987573781051e-06
1.070000000000000118e-02 -1.488266434535034932e-06
1.085000000000000547e-02 -1.465476202611171175e-06
1.100000000000000283e-02 -1.440961682419583667e-06
1.115000000000000713e-02 -1.414745497640979011e-06
1.130000000000000449e-02 -1.386977942274825182e-06
1.145000000000000184e-02 -1.357563974124786910e-06
1.160000000000000614e-02 -1.326419123870437033e-06
1.175000000000000350e-02 -1.293494619858392980e-06
1.190000000000000085e-02 -1.258969746231741738e-06
1.205000000000000515e-02 -1.222911691911576781e-06
1.220000000000000251e-02 -1.185201426778803580e-06
1.235000000000000681e-02 -1.145692181125923526e-06
1.250000000000000416e-02 -1.104463308365666308e-06
1.265000000000000152e-02 -1.061748207575874403e-06
1.280000000000000582e-02 -1.017643285194935743e-06
1.295000000000000318e-02 -9.719826721266144887e-07
1.310000000000000747e-02 -9.245798082702094689e-07
1.325000000000000483e-02 -8.754202553973300382e-07
1.340000000000000219e-02 -8.250201517512323335e-07
1.355000000000000648e-02 -7.735039844192215241e-07
1.370000000000000384e-02 -7.206224381661741063e-07
1.385000000000000120e-02 -6.660911822109483182e-07
1.400000000000000550e-02 -6.100176506151910871e-07
1.415000000000000285e-02 -5.529306008611456491e-07
1.430000000000000715e-02 -4.950594529873342253e-07
1.445000000000000451e-02 -4.361053242973866872e-07
1.460000000000000187e-02 -3.756681508093606681e-07
1.475000000000000616e-02 -3.140144144708756357e-07
1.490000000000000352e-02 -2.518115707061951980e-07
1.505000000000000088e-02 -1.894675278890645131e-07
1.520000000000000517e-02 -1.263356352865230292e-07
1.535000000000000253e-02 -6.194829893502173945e-08
1.550000000000000683e-02 3.452441887930035591e-09
1.565000000000000419e-02 6.880202363390708342e-08
1.580000000000000154e-02 1.338210040557896718e-07
1.595000000000000584e-02 1.992669922401546501e-07
1.610000000000000320e-02 2.660751761141000316e-07
1.625000000000000749e-02 3.339769136800896376e-07
1.640000000000000485e-02 4.017352921437122859e-07
1.655000000000000221e-02 4.693359869634150527e-07
1.670000000000000651e-02 5.378708465286763385e-07
1.685000000000000386e-02 6.086969506213790737e-07
1.700000000000000122e-02 6.814840958213608246e-07
1.715000000000000552e-02 7.546357778664969373e-07
1.730000000000000288e-02 8.284406476377625950e-07
1.745000000000000717e-02 9.042242368195729796e-07
1.760000000000000453e-02 9.832253908825805411e-07
1.775000000000000189e-02 1.064747948475996964e-06
1.790000000000000618e-02 1.147121338362921961e-06
1.805000000000000354e-02 1.229712211170408409e-06
1.820000000000000784e-02 1.313896291321725585e-06
1.835000000000000520e-02 1.400540213580825366e-06
1.850000000000000255e-02 1.488183670517173596e-06
1.865000000000000685e-02 1.574376824464707170e-06
1.880000000000000421e-02 1.658060909903724678e-06
1.895000000000000157e-02 1.740644620440434664e-06
1.910000000000000586e-02 1.822743797674775124e-06
1.925000000000000322e-02 1.903047632367815822e-06
1.940000000000000752e-02 1.979023636522470042e-06
1.955000000000000487e-02 2.050723196589387953e-06
1.970000000000000223e-02 2.119734517691540532e-06
1.985000000000000653e-02 2.188300868510850705e-06
2.000000000000000389e-02 2.255574599985266104e-06
2.015000000000000818e-02 2.321007286809617653e-06
2.030000000000000554e-02 2.385594143561320379e-06
2.045000000000000290e-02 2.452049102430464700e-06
2.060000000000000719e-02 2.522576778574148193e-06
2.075000000000000455e-02 2.597441152829560451e-06
2.090000000000000191e-02 2.675830046428018250e-06
2.105000000000000621e-02 2.758780510703218170e-06
2.120000000000000356e-02 2.847977839337545447e-06
2.135000000000000786e-02 2.944549123640172184e-06
2.150000000000000522e-02 3.047409791179234162e-06
2.165000000000000258e-02 3.155047124892007560e-06
2.180000000000000687e-02 3.266794010414741933e-06
2.195000000000000423e-02 3.383489683983498253e-06
2.210000000000000159e-02 3.505116637825267389e-06
2.225000000000000588e-02 3.630879291449673474e-06
2.240000000000000324e-02 3.760754225368145853e-06
2.255000000000000754e-02 3.895243025908712298e-06
2.270000000000000490e-02 4.035307028971146792e-06
2.285000000000000225e-02 4.182897100690752268e-06
2.299999999999999961e-02 4.340110535849817097e-06
2.315000000000001085e-02 4.508725851337658241e-06
2.330000000000000820e-02 4.690783953265054151e-06
2.345000000000000556e-02 4.887992417934583500e-06
2.360000000000000292e-02 5.102815066493349150e-06
2.375000000000000028e-02 5.337382390280254185e-06
2.390000000000001151e-02 5.593825335381552577e-06
2.405000000000000887e-02 5.872718247701413929e-06
2.420000000000000623e-02 6.173690962896216661e-06
2.435000000000000359e-02 6.498104085039813071e-06
2.450000000000000094e-02 6.847742042737081647e-06
2.464999999999999830e-02 7.223500688269268721e-06
2.480000000000000954e-02 7.627165359735954553e-06
2.495000000000000689e-02 8.058163075475022197e-06
2.510000000000000425e-02 8.519340553903020918e-06
2.525000000000000161e-02 9.014216630021110177e-06
2.539999999999999897e-02 9.547282388666644692e-06
2.555000000000001020e-02 1.012148732115747407e-05
2.570000000000000756e-02 1.073973908205516636e-05
2.585000000000000492e-02 1.140585845860186964e-05
2.600000000000000228e-02 1.212522147397976369e-05
2.614999999999999963e-02 1.290311865886906162e-05
2.630000000000001087e-02 1.374141629639780149e-05
2.645000000000000823e-02 1.464273009332828224e-05
2.660000000000000558e-02 1.560997952765319496e-05
2.675000000000000294e-02 1.664685805735643953e-05
2.690000000000000030e-02 1.775823329808190465e-05
2.705000000000001154e-02 1.894588604045566171e-05
2.720000000000000889e-02 2.021359250647947192e-05
2.735000000000000625e-02 2.156595292035490274e-05
2.750000000000000361e-02 2.300828782608732581e-05
2.765000000000000097e-02 2.454683453834149987e-05
2.780000000000001220e-02 2.618803046061657369e-05
2.795000000000000956e-02 2.793883504637051374e-05
2.810000000000000692e-02 2.980596764246001840e-05
2.825000000000000427e-02 3.179512714268639684e-05
2.840000000000000163e-02 3.391398786334320903e-05
2.854999999999999899e-02 3.617048423620872200e-05
2.870000000000001023e-02 3.857043702737428248e-05
2.885000000000000758e-02 4.111980160814709961e-05
2.900000000000000494e-02 4.382391489343717694e-05
2.915000000000000230e-02 4.668876135838218033e-05
2.929999999999999966e-02 4.972220995114184916e-05
2.945000000000001089e-02 5.293248250382021070e-05
2.960000000000000825e-02 5.632707325275987387e-05
2.975000000000000561e-02 5.991285070194862783e-05
2.990000000000000296e-02 6.369924085447564721e-05
3.005000000000000032e-02 6.769738683942705393e-05
3.020000000000001156e-02 7.191781332949176431e-05
3.035000000000000892e-02 7.636994996573776007e-05
3.050000000000000627e-02 8.106304449029266834e-05
3.065000000000000363e-02 8.600646106060594320e-05
3.080000000000000099e-02 9.121028415393084288e-05
3.095000000000001222e-02 9.668334678281098604e-05
3.110000000000000958e-02 1.024354423861950636e-04
3.125000000000000694e-02 1.084746836568228900e-04
3.140000000000000430e-02 1.148089068010449409e-04
3.155000000000000165e-02 1.214483127114363015e-04
3.169999999999999901e-02 1.284034078707918525e-04
3.185000000000001025e-02 1.356841385131701827e-04
3.200000000000000761e-02 1.433018042007461190e-04
3.215000000000000496e-02 1.512666785856708884e-04
3.230000000000000232e-02 1.595899520907551050e-04
3.244999999999999968e-02 1.682822767179459333e-04
3.260000000000001091e-02 1.773550175130367279e-04
3.275000000000000827e-02 1.868188992375507951e-04
3.290000000000000563e-02 1.966818672372028232e-04
3.305000000000000299e-02 2.069516776828095317e-04
3.320000000000000034e-02 2.176358393626287580e-04
3.335000000000001158e-02 2.287434617755934596e-04
3.350000000000000894e-02 2.402824466116726398e-04
3.365000000000000629e-02 2.522598078940063715e-04
3.380000000000000365e-02 2.646814100444316864e-04
3.395000000000000101e-02 2.775544417090713978e-04
3.410000000000001225e-02 2.908869355451315641e-04
3.425000000000000960e-02 3.046867786906659603e-04
3.440000000000000696e-02 3.189595881849527359e-04
3.455000000000000432e-02 3.337097004987299442e-04
3.470000000000000168e-02 3.489413647912442684e-04
3.485000000000001291e-02 3.646574623417109251e-04
3.500000000000001027e-02 3.808597393799573183e-04
3.515000000000000763e-02 3.975481668021529913e-04
3.530000000000000498e-02 4.147206782363355160e-04
3.545000000000000234e-02 4.323752655182033777e-04
3.559999999999999970e-02 4.505082324612885714e-04
3.575000000000001094e-02 4.691160866059362888e-04
3.590000000000000829e-02 4.881954519078135490e-04
3.605000000000000565e-02 5.077408277429640293e-04
3.620000000000000301e-02 5.277449963614344597e-04
3.635000000000000037e-02 5.481993430294096470e-04
3.650000000000001160e-02 5.690932739526033401e-04
3.665000000000000896e-02 5.904160207137465477e-04
3.680000000000000632e-02 6.121539045125246048e-04
3.695000000000000367e-02 6.342909182421863079e-04
3.710000000000000103e-02 6.568075041286647320e-04
3.725000000000001227e-02 6.796837551519274712e-04
3.740000000000000963e-02 7.028976106084883213e-04
3.755000000000000698e-02 7.264262530952692032e-04
3.770000000000000434e-02 7.502436637878417969e-04
3.785000000000000170e-02 7.743210298940539360e-04
3.800000000000001293e-02 7.986286072991788387e-04
3.815000000000001029e-02 8.231373503804206848e-04
3.830000000000000765e-02 8.478150703012943268e-04
3.845000000000000501e-02 8.726267260499298573e-04
3.860000000000000236e-02 8.975350647233426571e-04
3.874999999999999972e-02 9.224987006746232510e-04
3.890000000000001096e-02 9.474741527810692787e-04
3.905000000000000832e-02 9.724145056679844856e-04
3.920000000000000567e-02 9.972718544304370880e-04
3.935000000000000303e-02 1.021996140480041504e-03
3.950000000000000039e-02 1.046534045599400997e-03
3.965000000000001162e-02 1.070831902325153351e-03
3.980000000000000898e-02 1.094834064133465290e-03
3.995000000000000634e-02 1.118483021855354309e-03
4.010000000000000370e-02 1.141719287261366844e-03
4.025000000000000105e-02 1.164480461739003658e-03
4.040000000000001229e-02 1.186700887046754360e-03
4.055000000000000965e-02 1.208311878144741058e-03
4.070000000000000701e-02 1.229248824529349804e-03
4.085000000000000436e-02 1.249440480023622513e-03
4.100000000000000172e-02 1.268814434297382832e-03
4.115000000000001296e-02 1.287296647205948830e-03
4.130000000000001031e-02 1.304808305576443672e-03
4.145000000000000767e-02 1.321273040957748890e-03
4.160000000000000503e-02 1.336613204330205917e-03
4.175000000000000239e-02 1.350752077996730804e-03
4.190000000000001362e-02 1.363607589155435562e-03
4.205000000000001098e-02 1.375103602185845375e-03
4.220000000000000834e-02 1.385158626362681389e-03
4.235000000000000570e-02 1.393694896250963211e-03
4.250000000000000305e-02 1.400631852447986603e-03
4.265000000000000041e-02 1.405887305736541748e-03
4.280000000000001165e-02 1.409381511621177197e-03
4.295000000000000900e-02 1.411026809364557266e-03
4.310000000000000636e-02 1.410745433531701565e-03
4.325000000000000372e-02 1.408458105288445950e-03
4.340000000000000108e-02 1.404085778631269932e-03
4.355000000000001231e-02 1.397560350596904755e-03
4.370000000000000967e-02 1.388805569149553776e-03
4.385000000000000703e-02 1.377750886604189873e-03
4.400000000000000439e-02 1.364323659799993038e-03
4.415000000000000174e-02 1.348461839370429516e-03
4.430000000000001298e-02 1.330100349150598049e-03
4.445000000000001034e-02 1.309174927882850170e-03
4.460000000000000769e-02 1.285628182813525200e-03
4.475000000000000505e-02 1.259406679309904575e-03
4.490000000000000241e-02 1.230466761626303196e-03
4.505000000000001364e-02 1.198755810037255287e-03
4.520000000000001100e-02 1.164230052381753922e-03
4.535000000000000836e-02 1.126860617659986019e-03
4.550000000000000572e-02 1.086610835045576096e-03
4.565000000000000308e-02 1.043447991833090782e-03
4.580000000000000043e-02 9.973616106435656548e-04
4.595000000000001167e-02 9.483395260758697987e-04
4.610000000000000903e-02 8.963742875494062901e-04
4.625000000000000638e-02 8.414576877839863300e-04
4.640000000000000374e-02 7.836015429347753525e-04
4.655000000000000110e-02 7.228073664009571075e-04
4.670000000000001233e-02 6.590979755856096745e-04
4.685000000000000969e-02 5.924930446781218052e-04
4.700000000000000705e-02 5.230266251601278782e-04
4.715000000000000441e-02 4.507377161644399166e-04
4.730000000000000177e-02 3.756750957109034061e-04
4.745000000000001300e-02 2.978925767820328474e-04
4.760000000000001036e-02 2.174545370507985353e-04
4.775000000000000772e-02 1.344312186120077968e-04
4.790000000000000507e-02 4.889451156486757100e-05
4.805000000000000243e-02 -3.906816345988772810e-05