-4.000000000000000083e-02 0.000000000000000000e+00
-3.985000000000000347e-02 0.000000000000000000e+00
-3.969999999999999918e-02 0.000000000000000000e+00
-3.955000000000000182e-02 0.000000000000000000e+00
-3.939999999999999752e-02 0.000000000000000000e+00
-3.925000000000000017e-02 0.000000000000000000e+00
-3.910000000000000281e-02 0.000000000000000000e+00
-3.894999999999999851e-02 0.000000000000000000e+00
-3.880000000000000115e-02 0.000000000000000000e+00
-3.865000000000000380e-02 0.000000000000000000e+00
-3.849999999999999950e-02 0.000000000000000000e+00
-3.835000000000000214e-02 0.000000000000000000e+00
-3.819999999999999785e-02 0.000000000000000000e+00
-3.805000000000000049e-02 0.000000000000000000e+00
-3.790000000000000313e-02 0.000000000000000000e+00
-3.774999999999999883e-02 0.000000000000000000e+00
-3.760000000000000148e-02 0.000000000000000000e+00
-3.744999999999999718e-02 0.000000000000000000e+00
-3.729999999999999982e-02 0.000000000000000000e+00
-3.715000000000000246e-02 0.000000000000000000e+00
-3.699999999999999817e-02 0.000000000000000000e+00
-3.685000000000000081e-02 0.000000000000000000e+00
-3.670000000000000345e-02 0.000000000000000000e+00
-3.654999999999999916e-02 0.000000000000000000e+00
-3.640000000000000180e-02 0.000000000000000000e+00
-3.624999999999999750e-02 0.000000000000000000e+00
-3.610000000000000014e-02 0.000000000000000000e+00
-3.595000000000000279e-02 0.000000000000000000e+00
-3.579999999999999849e-02 0.000000000000000000e+00
-3.565000000000000113e-02 0.000000000000000000e+00
-3.550000000000000377e-02 0.000000000000000000e+00
-3.534999999999999948e-02 0.000000000000000000e+00
-3.520000000000000212e-02 0.000000000000000000e+00
-3.504999999999999782e-02 0.000000000000000000e+00
-3.490000000000000047e-02 0.000000000000000000e+00
-3.475000000000000311e-02 0.000000000000000000e+00
-3.459999999999999881e-02 0.000000000000000000e+00
-3.445000000000000145e-02 0.000000000000000000e+00
-3.429999999999999716e-02 0.000000000000000000e+00
-3.414999999999999980e-02 0.000000000000000000e+00
-3.400000000000000244e-02 0.000000000000000000e+00
-3.384999999999999815e-02 0.000000000000000000e+00
-3.370000000000000079e-02 -0.000000000000000000e+00
-3.354999999999999649e-02 0.000000000000000000e+00
-3.339999999999999913e-02 0.000000000000000000e+00
-3.325000000000000178e-02 -0.000000000000000000e+00
-3.309999999999999748e-02 1.401298464324817071e-45
-3.295000000000000012e-02 4.904544625136859748e-44
-3.280000000000000276e-02 -4.091791515828465847e-43
-3.264999999999999847e-02 -1.071993325208485059e-42
-3.250000000000000111e-02 4.638858436300874432e-41
-3.235000000000000375e-02 -2.258668916737313148e-40
-3.219999999999999946e-02 -2.182300953028539267e-39
-3.205000000000000210e-02 2.702837930454964685e-38
-3.189999999999999780e-02 1.614904975344631264e-38
-3.175000000000000044e-02 -1.627632784324696286e-36
-3.160000000000000309e-02 4.506283853089421837e-36
-3.144999999999999879e-02 6.682836339021514181e-35
-3.130000000000000143e-02 -3.532332055217164984e-34
-3.115000000000000061e-02 -2.112394021483367421e-33
-3.099999999999999978e-02 1.634865053496159979e-32
-3.085000000000000242e-02 5.749141860337817590e-32
-3.069999999999999812e-02 -5.650084597086114573e-31
-3.055000000000000077e-02 -1.539007045057013670e-30
-3.039999999999999994e-02 1.556079624081802764e-29
-3.024999999999999911e-02 4.369683168289098757e-29
-3.010000000000000175e-02 -3.414112864302266385e-28
-2.994999999999999746e-02 -1.227601324358532063e-27
-2.980000000000000010e-02 5.562697739926663407e-27
-2.964999999999999927e-02 2.983182591831021910e-26
-2.949999999999999845e-02 -5.093639736049887604e-26
-2.935000000000000109e-02 -5.556486739115531012e-25
-2.920000000000000026e-02 -2.949850445246314243e-25
-2.904999999999999943e-02 6.814449500867780340e-24
-2.890000000000000208e-02 1.860842096059672217e-23
-2.874999999999999778e-02 -3.259746494228007314e-23
-2.860000000000000042e-02 -2.725527049313079324e-22
-2.844999999999999959e-02 -4.177130574502671311e-22
-2.829999999999999877e-02 1.151136630028240255e-21
-2.815000000000000141e-02 6.588995218789939093e-21
-2.800000000000000058e-02 1.216318442102579662e-20
-2.784999999999999976e-02 -2.558987430302927187e-21
-2.769999999999999893e-02 -7.806051741874637604e-20
-2.754999999999999810e-02 -2.611202915664652958e-19
-2.740000000000000074e-02 -5.875875930306783552e-19
-2.724999999999999992e-02 -1.085561437027082197e-18
-2.709999999999999909e-02 -1.791949691909603793e-18
-2.695000000000000173e-02 -2.752463960990360276e-18
-2.679999999999999744e-02 -4.008974679310713937e-18
-2.665000000000000008e-02 -5.603495590953151882e-18
-2.649999999999999925e-02 -7.589311809821961910e-18
-2.634999999999999842e-02 -1.002421968608714289e-17
-2.620000000000000107e-02 -1.296498490287545263e-17
-2.605000000000000024e-02 -1.647766279518292571e-17
-2.589999999999999941e-02 -2.063768644461011037e-17
-2.575000000000000205e-02 -2.552195635116422394e-17
-2.559999999999999776e-02 -3.121602945996285118e-17
-2.545000000000000040e-02 -3.781755609667910212e-17
-2.529999999999999957e-02 -4.542886181180823648e-17
-2.514999999999999875e-02 -5.416221155808595119e-17
-2.500000000000000139e-02 -6.414423014368186371e-17
-2.484999999999999709e-02 -7.550949985425835166e-17
-2.469999999999999973e-02 -8.840536471796826075e-17
-2.454999999999999891e-02 -1.029960895695748214e-16
-2.439999999999999808e-02 -1.194575065375272057e-16
-2.425000000000000072e-02 -1.379823420871053685e-16
-2.409999999999999989e-02 -1.587833536893028491e-16
-2.394999999999999907e-02 -1.820891873003191051e-16
-2.379999999999999824e-02 -2.081506705516598162e-16
-2.365000000000000088e-02 -2.372425200509211936e-16
-2.350000000000000006e-02 -2.696609061620666237e-16
-2.334999999999999923e-02 -3.057306924901477324e-16
-2.319999999999999840e-02 -3.458055417604227917e-16
-2.304999999999999757e-02 -3.902678364090179149e-16
-2.290000000000000022e-02 -4.395361165909951332e-16
-2.274999999999999939e-02 -4.940638361007111158e-16
-2.259999999999999856e-02 -5.543428828525041960e-16
-2.244999999999999774e-02 -6.209095610508843545e-16
-2.230000000000000038e-02 -6.943439294460431767e-16
-2.214999999999999955e-02 -7.752758099738234383e-16
-2.199999999999999872e-02 -8.643896052556066141e-16
-2.184999999999999790e-02 -9.624244574169904878e-16
-2.170000000000000054e-02 -1.070183247812853729e-15
-2.154999999999999971e-02 -1.188534820488842438e-15
-2.139999999999999888e-02 -1.318418640862580038e-15
-2.124999999999999806e-02 -1.460852736657547793e-15
-2.110000000000000070e-02 -1.616936980155755411e-15
-2.094999999999999987e-02 -1.787860393856911118e-15
-2.079999999999999905e-02 -1.974908562016710126e-15
-2.064999999999999822e-02 -2.179468077569807725e-15
-2.049999999999999739e-02 -2.403036706525186333e-15
-2.035000000000000003e-02 -2.647230799504443968e-15
-2.019999999999999921e-02 -2.913791432730661844e-15
-2.004999999999999838e-02 -3.204599442863218135e-15
-1.989999999999999755e-02 -3.521676697547208856e-15
-1.975000000000000019e-02 -3.867204730138287458e-15
-1.959999999999999937e-02 -4.243528763109164284e-15
-1.944999999999999854e-02 -4.653175072225025286e-15
-1.929999999999999771e-02 -5.098856280499452359e-15
-1.915000000000000036e-02 -5.583493804567525587e-15
-1.899999999999999953e-02 -6.110222089850559507e-15
-1.884999999999999870e-02 -6.682411903962152608e-15
-1.869999999999999787e-02 -7.303677960004712616e-15
-1.855000000000000052e-02 -7.977899245360190600e-15
-1.839999999999999969e-02 -8.709240197513762327e-15
-1.824999999999999886e-02 -9.502157056800932672e-15
-1.809999999999999803e-02 -1.036143555937368843e-14
-1.794999999999999721e-02 -1.129219178423344558e-14
-1.779999999999999985e-02 -1.229991111674662296e-14
-1.764999999999999902e-02 -1.339045417787527309e-14
-1.749999999999999820e-02 -1.457009494065970856e-14
-1.734999999999999737e-02 -1.584553512977860540e-14
-1.720000000000000001e-02 -1.722394064396573499e-14
-1.704999999999999918e-02 -1.871295510853712013e-14
-1.689999999999999836e-02 -2.032074561517018679e-14
-1.674999999999999753e-02 -2.205602305069449820e-14
-1.660000000000000017e-02 -2.392811663599111321e-14
-1.644999999999999934e-02 -2.594703999456247218e-14
-1.629999999999999852e-02 -2.812357246769533331e-14
-1.614999999999999769e-02 -3.046926589072435076e-14
-1.600000000000000033e-02 -3.299630059743104138e-14
-1.584999999999999951e-02 -3.571692637829859684e-14
-1.569999999999999868e-02 -3.864244265284338953e-14
-1.554999999999999785e-02 -4.178180764151558091e-14
-1.539999999999999702e-02 -4.514094718681416207e-14
-1.524999999999999967e-02 -4.872525519454724841e-14
-1.509999999999999884e-02 -5.254970381909050692e-14
-1.494999999999999801e-02 -5.666173368175375646e-14
-1.479999999999999719e-02 -6.117885196924369162e-14
-1.464999999999999983e-02 -6.633070286608810928e-14
-1.449999999999999900e-02 -7.246910320099497760e-14
-1.434999999999999817e-02 -7.996899041400051811e-14
-1.419999999999999735e-02 -8.890052593819169902e-14
-1.404999999999999999e-02 -9.834572257038862175e-14
-1.389999999999999916e-02 -1.053322874885673222e-13
-1.374999999999999833e-02 -1.036612879952783506e-13
-1.359999999999999751e-02 -8.350190385062600251e-14
-1.344999999999999668e-02 -3.350100348498662173e-14
-1.329999999999999932e-02 5.195038735132662122e-14
-1.314999999999999850e-02 1.574097297819820884e-13
-1.299999999999999767e-02 2.217443486858886037e-13
-1.284999999999999684e-02 1.078611280695175589e-13
-1.269999999999999948e-02 -4.197349390798466029e-13
-1.254999999999999866e-02 -1.681526771123154074e-12
-1.239999999999999783e-02 -3.989314954766509658e-12
-1.224999999999999700e-02 -7.417519723440513246e-12
-1.209999999999999964e-02 -1.139384593618064656e-11
-1.194999999999999882e-02 -1.411020866121104334e-11
-1.179999999999999799e-02 -1.185556167127010951e-11
-1.164999999999999716e-02 1.466646899414558725e-12
-1.149999999999999981e-02 3.416985791537818784e-11
-1.134999999999999898e-02 9.530543715330352939e-11
-1.119999999999999815e-02 1.911272112797846034e-10
-1.104999999999999732e-02 3.188950770116605327e-10
-1.089999999999999650e-02 4.579001622317946385e-10
-1.074999999999999914e-02 5.584775419897880511e-10
-1.059999999999999831e-02 5.309714334877924102e-10
-1.044999999999999749e-02 2.378637842248565448e-10
-1.029999999999999666e-02 -5.068839237232225514e-10
-1.014999999999999930e-02 -1.927353165953604730e-09
-9.999999999999998473e-03 -4.261704766861384996e-09
-9.849999999999997646e-03 -7.725556194770888396e-09
-9.699999999999996819e-03 -1.246789871345299616e-08
-9.549999999999999462e-03 -1.852925635148494621e-08
-9.399999999999998634e-03 -2.581475300189595146e-08
-9.249999999999997807e-03 -3.409457960401596210e-08
-9.099999999999996980e-03 -4.303964118435033015e-08
-8.949999999999999623e-03 -5.229133748230196943e-08
-8.799999999999998795e-03 -6.155308795996461413e-08
-8.649999999999997968e-03 -7.068095442264166195e-08
-8.500000000000000611e-03 -7.974571047952849767e-08
-8.349999999999996314e-03 -8.904229531481178128e-08
-8.199999999999998956e-03 -9.903581599246535916e-08
-8.049999999999994660e-03 -1.102532038999015640e-07
-7.899999999999997302e-03 -1.231501869369822089e-07
-7.749999999999999944e-03 -1.379966931835951982e-07
-7.599999999999995648e-03 -1.548226578051981051e-07
-7.449999999999998290e-03 -1.734490382432340994e-07
-7.300000000000000933e-03 -1.935992344215264893e-07
-7.149999999999996636e-03 -2.150540865386574296e-07
-6.999999999999999278e-03 -2.377933299158030422e-07
-6.849999999999994982e-03 -2.620668340114207240e-07
-6.699999999999997624e-03 -2.883631964323285501e-07
-6.550000000000000266e-03 -3.172847868881945033e-07
-6.399999999999995970e-03 -3.493785243335878477e-07
-6.249999999999998612e-03 -3.849945642286911607e-07
-6.099999999999994316e-03 -4.242366173912159866e-07
-5.949999999999996958e-03 -4.670300199904886540e-07
-5.799999999999999600e-03 -5.132807245900039561e-07
-5.649999999999995304e-03 -5.630546411339309998e-07
-5.499999999999997946e-03 -6.166940806906495709e-07
-5.350000000000000588e-03 -6.748147711732599419e-07
-5.199999999999996292e-03 -7.381826776509115007e-07
-5.049999999999998934e-03 -8.075298296716937330e-07
-4.899999999999994638e-03 -8.834003324409422930e-07
-4.749999999999997280e-03 -9.661061994847841561e-07
-4.599999999999999922e-03 -1.055818529493990354e-06
-4.449999999999995626e-03 -1.152750087385356892e-06
-4.299999999999998268e-03 -1.257336180060519837e-06
-4.150000000000000910e-03 -1.370319978377665393e-06
-3.999999999999996614e-03 -1.492695673732669093e-06
-3.849999999999999256e-03 -1.625540448912943248e-06
-3.699999999999994960e-03 -1.769827463249384891e-06
-3.549999999999997602e-03 -1.926324102896614932e-06
-3.400000000000000244e-03 -2.095634727083961479e-06
-3.249999999999995948e-03 -2.278367446706397459e-06
-3.099999999999998590e-03 -2.475332621543202549e-06
-2.949999999999994293e-03 -2.687662799871759489e-06
-2.799999999999996936e-03 -2.916784751505474560e-06
-2.649999999999999578e-03 -3.164263489452423528e-06
-2.499999999999995282e-03 -3.431608547543874010e-06
-2.349999999999997924e-03 -3.720162567333318293e-06
-2.200000000000000566e-03 -4.031137450510868803e-06
-2.049999999999996270e-03 -4.365783752291463315e-06
-1.899999999999998912e-03 -4.725593043986009434e-06
-1.749999999999994615e-03 -5.112409780849702656e-06
-1.599999999999997258e-03 -5.528394012799253687e-06
-1.449999999999999900e-03 -5.975854037387762219e-06
-1.299999999999995604e-03 -6.457058589148800820e-06
-1.149999999999998246e-03 -6.974150437599746510e-06
-9.999999999999939493e-04 -7.529217782575869933e-06
-8.499999999999965916e-04 -8.124483429128304124e-06
-6.999999999999992339e-04 -8.762493962422013283e-06
-5.499999999999949374e-04 -9.446192962059285492e-06
-3.999999999999975797e-04 -1.017883732856716961e-05
-2.500000000000002220e-04 -1.096380492526805028e-05
-9.999999999999592548e-05 -1.180444633064325899e-05
5.000000000000143219e-05 -1.270404936803970486e-05
2.000000000000057288e-04 -1.366597189189633355e-05
3.500000000000030864e-04 -1.469385006203083321e-05
5.000000000000004441e-04 -1.579174022481311113e-05
6.500000000000047407e-04 -1.696412255114410073e-05
8.000000000000020983e-04 -1.821574915084056556e-05
9.500000000000063949e-04 -1.955146763066295534e-05
1.100000000000003753e-03 -2.097611286444589496e-05
1.250000000000001110e-03 -2.249457793368492275e-05
1.400000000000005407e-03 -2.411200694041326642e-05
1.550000000000002764e-03 -2.583397690614219755e-05
1.700000000000000122e-03 -2.766655416053254157e-05
1.850000000000004419e-03 -2.961619065899867564e-05
2.000000000000001776e-03 -3.168953844578936696e-05
2.150000000000006073e-03 -3.389333505765534937e-05
2.300000000000003431e-03 -3.623440352384932339e-05
2.450000000000000788e-03 -3.871980879921466112e-05
2.600000000000005085e-03 -4.135703056817874312e-05
2.750000000000002442e-03 -4.415408693603239954e-05
2.899999999999999800e-03 -4.711949077318422496e-05
3.050000000000004097e-03 -5.026204962632618845e-05
3.200000000000001454e-03 -5.359070928534492850e-05
3.350000000000005751e-03 -5.711450648959726095e-05
3.500000000000003109e-03 -6.084272899897769094e-05
3.650000000000000466e-03 -6.478514114860445261e-05
3.800000000000004763e-03 -6.895207479828968644e-05
3.950000000000002121e-03 -7.335436384892091155e-05
4.100000000000006417e-03 -7.800314051564782858e-05
4.250000000000003775e-03 -8.290971163660287857e-05
4.400000000000001132e-03 -8.808560232864692807e-05
4.550000000000005429e-03 -9.354259964311495423e-05
4.700000000000002787e-03 -9.929287625709548593e-05
4.850000000000000144e-03 -1.053490996127948165e-04
5.000000000000004441e-03 -1.117244391934946179e-04
5.150000000000001799e-03 -1.184325083158910275e-04
5.300000000000006095e-03 -1.254871458513662219e-04
5.450000000000003453e-03 -1.329022343270480633e-04
5.600000000000000810e-03 -1.406917435815557837e-04
5.750000000000005107e-03 -1.488700654590502381e-04
5.900000000000002465e-03 -1.574522175360471010e-04
6.050000000000006761e-03 -1.664537703618407249e-04
6.200000000000004119e-03 -1.758904109010472894e-04
6.350000000000001477e-03 -1.857777097029611468e-04
6.500000000000005773e-03 -1.961313391802832484e-04
6.650000000000003131e-03 -2.069673500955104828e-04
6.800000000000000488e-03 -2.183022734243422747e-04
6.950000000000004785e-03 -2.301526692463085055e-04
7.100000000000002143e-03 -2.425350685371086001e-04
7.250000000000006439e-03 -2.554662059992551804e-04
7.400000000000003797e-03 -2.689632819965481758e-04
7.550000000000001155e-03 -2.830434823408722878e-04
7.700000000000005451e-03 -2.977235708385705948e-04
7.850000000000002809e-03 -3.130198456346988678e-04
8.000000000000000167e-03 -3.289489250164479017e-04
8.150000000000004463e-03 -3.455283003859221935e-04
8.300000000000001821e-03 -3.627754922490566969e-04
8.450000000000006117e-03 -3.807069151662290096e-04
8.600000000000003475e-03 -3.993379359599202871e-04
8.750000000000000833e-03 -4.186839796602725983e-04
8.900000000000005129e-03 -4.387613735161721706e-04
9.050000000000002487e-03 -4.595865320879966021e-04
9.200000000000006783e-03 -4.811744147446006536e-04
9.350000000000004141e-03 -5.035384674556553364e-04
9.500000000000001499e-03 -5.266921361908316612e-04
9.650000000000005795e-03 -5.506496527232229710e-04
9.800000000000003153e-03 -5.754246958531439304e-04
9.950000000000000511e-03 -6.010289071127772331e-04
1.010000000000000481e-02 -6.274720071814954281e-04
1.025000000000000216e-02 -6.547639495693147182e-04
1.040000000000000646e-02 -6.829157937318086624e-04
1.055000000000000382e-02 -7.119374931789934635e-04
1.070000000000000118e-02 -7.418355089612305164e-04
1.085000000000000547e-02 -7.726137991994619370e-04
1.100000000000000283e-02 -8.042769040912389755e-04
1.115000000000000713e-02 -8.368308772332966328e-04
1.130000000000000449e-02 -8.702801424078643322e-04
1.145000000000000184e-02 -9.046246414072811604e-04
1.160000000000000614e-02 -9.398612310178577900e-04
1.175000000000000350e-02 -9.759872918948531151e-04
1.190000000000000085e-02 -1.013001776300370693e-03
1.205000000000000515e-02 -1.050901482813060284e-03
1.220000000000000251e-02 -1.089678029529750347e-03
1.235000000000000681e-02 -1.129319425672292709e-03
1.250000000000000416e-02 -1.169814961031079292e-03
1.265000000000000152e-02 -1.211155089549720287e-03
1.280000000000000582e-02 -1.253326772712171078e-03
1.295000000000000318e-02 -1.296311384066939354e-03
1.310000000000000747e-02 -1.340086804702877998e-03
1.325000000000000483e-02 -1.384632079862058163e-03
1.340000000000000219e-02 -1.429927651770412922e-03
1.355000000000000648e-02 -1.475949771702289581e-03
1.370000000000000384e-02 -1.522667589597404003e-03
1.385000000000000120e-02 -1.570047461427748203e-03
1.400000000000000550e-02 -1.618056790903210640e-03
1.415000000000000285e-02 -1.666664262302219868e-03
1.430000000000000715e-02 -1.715833088383078575e-03
1.445000000000000451e-02 -1.765520311892032623e-03
1.460000000000000187e-02 -1.815679715946316719e-03
1.475000000000000616e-02 -1.866266247816383839e-03
1.490000000000000352e-02 -1.917234854772686958e-03
1.505000000000000088e-02 -1.968535594642162323e-03
1.520000000000000517e-02 -2.020112704485654831e-03
1.535000000000000253e-02 -2.071907976642251015e-03
1.550000000000000683e-02 -2.123864367604255676e-03
1.565000000000000419e-02 -2.175922738388180733e-03
1.580000000000000154e-02 -2.228019991889595985e-03
1.595000000000000584e-02 -2.280088607221841812e-03
1.610000000000000320e-02 -2.332059200853109360e-03
1.625000000000000749e-02 -2.383862389251589775e-03
1.640000000000000485e-02 -2.435426693409681320e-03
1.655000000000000221e-02 -2.486676909029483795e-03
1.670000000000000651e-02 -2.537534805014729500e-03
1.685000000000000386e-02 -2.587921218946576118e-03
1.700000000000000122e-02 -2.637755358591675758e-03
1.715000000000000552e-02 -2.686954569071531296e-03
1.730000000000000288e-02 -2.735433634370565414e-03
1.745000000000000717e-02 -2.783106639981269836e-03
1.760000000000000453e-02 -2.829886507242918015e-03
1.775000000000000189e-02 -2.875683829188346863e-03
1.790000000000000618e-02 -2.920406870543956757e-03
1.805000000000000354e-02 -2.963964361697435379e-03
1.820000000000000784e-02 -3.006265964359045029e-03
1.835000000000000520e-02 -3.047219943255186081e-03
1.850000000000000255e-02 -3.086732001975178719e-03
1.865000000000000685e-02 -3.124706214293837547e-03
1.880000000000000421e-02 -3.161048516631126404e-03
1.895000000000000157e-02 -3.195667639374732971e-03
1.910000000000000586e-02 -3.228471614420413971e-03
1.925000000000000322e-02 -3.259365912526845932e-03
1.940000000000000752e-02 -3.288255073130130768e-03
1.955000000000000487e-02 -3.315048292279243469e-03
1.970000000000000223e-02 -3.339656861498951912e-03
1.985000000000000653e-02 -3.361992072314023972e-03
2.000000000000000389e-02 -3.381964284926652908e-03
2.015000000000000818e-02 -3.399485256522893906e-03
2.030000000000000554e-02 -3.414471400901675224e-03
2.045000000000000290e-02 -3.426842391490936279e-03
2.060000000000000719e-02 -3.436518367379903793e-03
2.075000000000000455e-02 -3.443419933319091797e-03
2.090000000000000191e-02 -3.447471885010600090e-03
2.105000000000000621e-02 -3.448603907600045204e-03
2.120000000000000356e-02 -3.446747781708836555e-03
2.135000000000000786e-02 -3.441837849095463753e-03
2.150000000000000522e-02 -3.433811943978071213e-03
2.165000000000000258e-02 -3.422612324357032776e-03
2.180000000000000687e-02 -3.408185904845595360e-03
2.195000000000000423e-02 -3.390481695532798767e-03
2.210000000000000159e-02 -3.369454294443130493e-03
2.225000000000000588e-02 -3.345062956213951111e-03
2.240000000000000324e-02 -3.317271824926137924e-03
2.255000000000000754e-02 -3.286048769950866699e-03
2.270000000000000490e-02 -3.251365153118968010e-03
2.285000000000000225e-02 -3.213199088349938393e-03
2.299999999999999961e-02 -3.171535674482584000e-03
2.315000000000001085e-02 -3.126364434137940407e-03
2.330000000000000820e-02 -3.077677916735410690e-03
2.345000000000000556e-02 -3.025472862645983696e-03
2.360000000000000292e-02 -2.969754626974463463e-03
2.375000000000000028e-02 -2.910535084083676338e-03
2.390000000000001151e-02 -2.847830299288034439e-03
2.405000000000000887e-02 -2.781660063192248344e-03
2.420000000000000623e-02 -2.712049055844545364e-03
2.435000000000000359e-02 -2.639029640704393387e-03
2.450000000000000094e-02 -2.562641166150569916e-03
2.464999999999999830e-02 -2.482926240190863609e-03
2.480000000000000954e-02 -2.399932127445936203e-03
2.495000000000000689e-02 -2.313711913302540779e-03
2.510000000000000425e-02 -2.224324969574809074e-03
2.525000000000000161e-02 -2.131835324689745903e-03
2.539999999999999897e-02 -2.036311663687229156e-03
2.555000000000001020e-02 -1.937827211804687977e-03
2.570000000000000756e-02 -1.836460665799677372e-03
2.585000000000000492e-02 -1.732295146211981773e-03
2.600000000000000228e-02 -1.625416916795074940e-03
2.614999999999999963e-02 -1.515916548669338226e-03
2.630000000000001087e-02 -1.403890084475278854e-03
2.645000000000000823e-02 -1.289437524974346161e-03
2.660000000000000558e-02 -1.172660733573138714e-03
2.675000000000000294e-02 -1.053663669154047966e-03
2.690000000000000030e-02 -9.325552964583039284e-04
2.705000000000001154e-02 -8.094487129710614681e-04
2.720000000000000889e-02 -6.844586459919810295e-04
2.735000000000000625e-02 -5.576997064054012299e-04
2.750000000000000361e-02 -4.292882804293185472e-04
2.765000000000000097e-02 -2.993447415065020323e-04
2.780000000000001220e-02 -1.679920969763770700e-04
2.795000000000000956e-02 -3.535300129442475736e-05
2.810000000000000692e-02 9.845088789006695151e-05
2.825000000000000427e-02 2.332969597773626447e-04
2.840000000000000163e-02 3.690608427859842777e-04
2.854999999999999899e-02 5.056184018030762672e-04
2.870000000000001023e-02 6.428470951505005360e-04
2.885000000000000758e-02 7.806252688169479370e-04
2.900000000000000494e-02 9.188313269987702370e-04
2.915000000000000230e-02 1.057344488799571991e-03
2.929999999999999966e-02 1.196046359837055206e-03
2.945000000000001089e-02 1.334820524789392948e-03
2.960000000000000825e-02 1.473551499657332897e-03
2.975000000000000561e-02 1.612125779502093792e-03
2.990000000000000296e-02 1.750434166751801968e-03
3.005000000000000032e-02 1.888371421955525875e-03
3.020000000000001156e-02 2.025833819061517715e-03
3.035000000000000892e-02 2.162718679755926132e-03
3.050000000000000627e-02 2.298926934599876404e-03
3.065000000000000363e-02 2.434365451335906982e-03
3.080000000000000099e-02 2.568945754319429398e-03
3.095000000000001222e-02 2.702580532059073448e-03
3.110000000000000958e-02 2.835186431184411049e-03
3.125000000000000694e-02 2.966684754937887192e-03
3.140000000000000430e-02 3.097002860158681870e-03
3.155000000000000165e-02 3.226071596145629883e-03
3.169999999999999901e-02 3.353823907673358917e-03
3.185000000000001025e-02 3.480196930468082428e-03
3.200000000000000761e-02 3.605133155360817909e-03
3.215000000000000496e-02 3.728580195456743240e-03
3.230000000000000232e-02 3.850489854812622070e-03
3.244999999999999968e-02 3.970817662775516510e-03
3.260000000000001091e-02 4.089524969458580017e-03
3.275000000000000827e-02 4.206575918942689896e-03
3.290000000000000563e-02 4.321937914937734604e-03
3.305000000000000299e-02 4.435580223798751831e-03
3.320000000000000034e-02 4.547477699816226959e-03
3.335000000000001158e-02 4.657609853893518448e-03
3.350000000000000894e-02 4.765960387885570526e-03
3.365000000000000629e-02 4.872512537986040115e-03
3.380000000000000365e-02 4.977255128324031830e-03
3.395000000000000101e-02 5.080180708318948746e-03
3.410000000000001225e-02 5.181284621357917786e-03
3.425000000000000960e-02 5.280561279505491257e-03
3.440000000000000696e-02 5.378006026148796082e-03
3.455000000000000432e-02 5.473616532981395721e-03
3.470000000000000168e-02 5.567395128309726715e-03
3.485000000000001291e-02 5.659345537424087524e-03
3.500000000000001027e-02 5.749470554292201996e-03
3.515000000000000763e-02 5.837773438543081284e-03
3.530000000000000498e-02 5.924258381128311157e-03
3.545000000000000234e-02 6.008929572999477386e-03
3.559999999999999970e-02 6.091788876801729202e-03
3.575000000000001094e-02 6.172836292535066605e-03
3.590000000000000829e-02 6.252075079828500748e-03
3.605000000000000565e-02 6.329505238682031631e-03
3.620000000000000301e-02 6.405126769095659256e-03
3.635000000000000037e-02 6.478935945779085159e-03
3.650000000000001160e-02 6.550928112119436264e-03
3.665000000000000896e-02 6.621097214519977570e-03
3.680000000000000632e-02 6.689431611448526382e-03
3.695000000000000367e-02 6.755916401743888855e-03
3.710000000000000103e-02 6.820532958954572678e-03
3.725000000000001227e-02 6.883262190967798233e-03
3.740000000000000963e-02 6.944082677364349365e-03
3.755000000000000698e-02 7.002968341112136841e-03
3.770000000000000434e-02 7.059887051582336426e-03
3.785000000000000170e-02 7.114802952855825424e-03
3.800000000000001293e-02 7.167676929384469986e-03
3.815000000000001029e-02 7.218464277684688568e-03
3.830000000000000765e-02 7.267115171998739243e-03
3.845000000000000501e-02 7.313576526939868927e-03
3.860000000000000236e-02 7.357791997492313385e-03
3.874999999999999972e-02 7.399699185043573380e-03
3.890000000000001096e-02 7.439232431352138519e-03
3.905000000000000832e-02 7.476320490241050720e-03
3.920000000000000567e-02 7.510888390243053436e-03
3.935000000000000303e-02 7.542855106294155121e-03
3.950000000000000039e-02 7.572135422378778458e-03
3.965000000000001162e-02 7.598640397191047668e-03
3.980000000000000898e-02 7.622277829796075821e-03
3.995000000000000634e-02 7.642953656613826752e-03
4.010000000000000370e-02 7.660568691790103912e-03
4.025000000000000105e-02 7.675018627196550369e-03
4.040000000000001229e-02 7.686196360737085342e-03
4.055000000000000965e-02 7.693992927670478821e-03
4.070000000000000701e-02 7.698298431932926178e-03
4.085000000000000436e-02 7.698998786509037018e-03
4.100000000000000172e-02 7.695978507399559021e-03
4.115000000000001296e-02 7.689122576266527176e-03
4.130000000000001031e-02 7.678313646465539932e-03
4.145000000000000767e-02 7.663433905690908432e-03
4.160000000000000503e-02 7.644364144653081894e-03
4.175000000000000239e-02 7.620986085385084152e-03
4.190000000000001362e-02 7.593183312565088272e-03
4.205000000000001098e-02 7.560840342193841934e-03
4.220000000000000834e-02 7.523843087255954742e-03
4.235000000000000570e-02 7.482079789042472839e-03
4.250000000000000305e-02 7.435442879796028137e-03
4.265000000000000041e-02 7.383827585726976395e-03
4.280000000000001165e-02 7.327130064368247986e-03
4.295000000000000900e-02 7.265250198543071747e-03
4.310000000000000636e-02 7.198095787316560745e-03
4.325000000000000372e-02 7.125582080334424973e-03
4.340000000000000108e-02 7.047627121210098267e-03
4.355000000000001231e-02 6.964155938476324081e-03
4.370000000000000967e-02 6.875098682940006256e-03
4.385000000000000703e-02 6.780394818633794785e-03
4.400000000000000439e-02 6.679990328848361969e-03
4.415000000000000174e-02 6.573838181793689728e-03
4.430000000000001298e-02 6.461901124566793442e-03
4.445000000000001034e-02 6.344152614474296570e-03
4.460000000000000769e-02 6.220574025064706802e-03
4.475000000000000505e-02 6.091157440096139908e-03
4.490000000000000241e-02 5.955904722213745117e-03
4.505000000000001364e-02 5.814827512949705124e-03
4.520000000000001100e-02 5.667948164045810699e-03
4.535000000000000836e-02 5.515300203114748001e-03
4.550000000000000572e-02 5.356927402317523956e-03
4.565000000000000308e-02 5.192886106669902802e-03
4.580000000000000043e-02 5.023246631026268005e-03
4.595000000000001167e-02 4.848090000450611115e-03
4.610000000000000903e-02 4.667507018893957138e-03
4.625000000000000638e-02 4.481599666178226471e-03
4.640000000000000374e-02 4.290484357625246048e-03
4.655000000000000110e-02 4.094289150089025497e-03
4.670000000000001233e-02 3.893154207617044449e-03
4.685000000000000969e-02 3.687231568619608879e-03
4.700000000000000705e-02 3.476685611531138420e-03
4.715000000000000441e-02 3.261691657826304436e-03
4.730000000000000177e-02 3.042435273528099060e-03
4.745000000000001300e-02 2.819113433361053467e-03
4.760000000000001036e-02 2.591934986412525177e-03
4.775000000000000772e-02 2.361120656132698059e-03
4.790000000000000507e-02 2.126900479197502136e-03