-4.000000000000000083e-02 0.000000000000000000e+00
-3.985000000000000347e-02 0.000000000000000000e+00
-3.969999999999999918e-02 0.000000000000000000e+00
-3.955000000000000182e-02 0.000000000000000000e+00
-3.939999999999999752e-02 0.000000000000000000e+00
-3.925000000000000017e-02 0.000000000000000000e+00
-3.910000000000000281e-02 0.000000000000000000e+00
-3.894999999999999851e-02 -2.301632727653512039e-41
-3.880000000000000115e-02 1.733409563486113096e-38
-3.865000000000000380e-02 -2.789903003066436493e-36
-3.849999999999999950e-02 -1.873103411932274568e-33
-3.835000000000000214e-02 1.252828360921359570e-31
-3.819999999999999785e-02 1.137352004166353989e-30
-3.805000000000000049e-02 -3.858406365396686969e-28
-3.790000000000000313e-02 2.025687106605068182e-26
-3.774999999999999883e-02 -6.300390954386063118e-25
-3.760000000000000148e-02 1.290187769173572921e-23
-3.744999999999999718e-02 -1.451069119257959065e-22
-3.729999999999999982e-02 -5.350866996614662453e-22
-3.715000000000000246e-02 5.395181501565700324e-20
-3.699999999999999817e-02 -9.587845310223315323e-19
-3.685000000000000081e-02 7.133894288691091675e-18
-3.670000000000000345e-02 8.472086404164066021e-18
-3.654999999999999916e-02 -4.730573660692452640e-16
-3.640000000000000180e-02 1.440796478774223656e-15
-3.624999999999999750e-02 1.137883732550692972e-14
-3.610000000000000014e-02 -2.119562900573020853e-14
-3.595000000000000279e-02 -1.980987395606634283e-13
-3.579999999999999849e-02 -5.036704560368310268e-13
-3.565000000000000113e-02 -8.830754053348877086e-13
-3.550000000000000377e-02 -1.379767068827864041e-12
-3.534999999999999948e-02 -1.979798052928471996e-12
-3.520000000000000212e-02 -2.678021216243053892e-12
-3.504999999999999782e-02 -3.511526789831687090e-12
-3.490000000000000047e-02 -4.457101788341022441e-12
-3.475000000000000311e-02 -5.548905952779126238e-12
-3.459999999999999881e-02 -6.791137530798296851e-12
-3.445000000000000145e-02 -8.188596502256562104e-12
-3.429999999999999716e-02 -9.776807835537582037e-12
-3.414999999999999980e-02 -1.154559087224171776e-11
-3.400000000000000244e-02 -1.353812374704777000e-11
-3.384999999999999815e-02 -1.575482799776040110e-11
-3.370000000000000079e-02 -1.822737620560399563e-11
-3.354999999999999649e-02 -2.097757037522463008e-11
-3.339999999999999913e-02 -2.402581085469979172e-11
-3.325000000000000178e-02 -2.740871765660735093e-11
-3.309999999999999748e-02 -3.114761920608444257e-11
-3.295000000000000012e-02 -3.528079217662849487e-11
-3.280000000000000276e-02 -3.983557234077395037e-11
-3.264999999999999847e-02 -4.484284818473405210e-11
-3.250000000000000111e-02 -5.035783595674914181e-11
-3.235000000000000375e-02 -5.650292386749633522e-11
-3.219999999999999946e-02 -6.353987475060662860e-11
-3.205000000000000210e-02 -7.173722726960818363e-11
-3.189999999999999780e-02 -8.073902657557141538e-11
-3.175000000000000044e-02 -8.819787261638012410e-11
-3.160000000000000309e-02 -8.850679217298207391e-11
-3.144999999999999879e-02 -7.478711400166204726e-11
-3.130000000000000143e-02 -4.908490280897126468e-11
-3.115000000000000061e-02 -4.386900565034324018e-11
-3.099999999999999978e-02 -1.470944616110969605e-10
-3.085000000000000242e-02 -5.063418573314493187e-10
-3.069999999999999812e-02 -1.277886685357998431e-09
-3.055000000000000077e-02 -2.507789087502487746e-09
-3.039999999999999994e-02 -3.993614328123840096e-09
-3.024999999999999911e-02 -5.244475520527203116e-09
-3.010000000000000175e-02 -5.659011925729373615e-09
-2.994999999999999746e-02 -4.911884232683405571e-09
-2.980000000000000010e-02 -3.325022257527621150e-09
-2.964999999999999927e-02 -1.878234234808928704e-09
-2.949999999999999845e-02 -1.682124106672233665e-09
-2.935000000000000109e-02 -3.175508522801351319e-09
-2.920000000000000026e-02 -5.678903125527767770e-09
-2.904999999999999943e-02 -7.803554247232113994e-09
-2.890000000000000208e-02 -8.523861616538397357e-09
-2.874999999999999778e-02 -8.024305664378061920e-09
-2.860000000000000042e-02 -7.496256948513746465e-09
-2.844999999999999959e-02 -8.006507457025691110e-09
-2.829999999999999877e-02 -9.540574552602265612e-09
-2.815000000000000141e-02 -1.121637804857300580e-08
-2.800000000000000058e-02 -1.241443126076546832e-08
-2.784999999999999976e-02 -1.348247202770380682e-08
-2.769999999999999893e-02 -1.512655245505811763e-08
-2.754999999999999810e-02 -1.724111164946862118e-08
-2.740000000000000074e-02 -1.881028310890542343e-08
-2.724999999999999992e-02 -1.928299298015190288e-08
-2.709999999999999909e-02 -1.975774210905001382e-08
-2.695000000000000173e-02 -2.211942806695788022e-08
-2.679999999999999744e-02 -2.668928367199896456e-08
-2.665000000000000008e-02 -3.124930003650661092e-08
-2.649999999999999925e-02 -3.319419050740179955e-08
-2.634999999999999842e-02 -3.276811000318957667e-08
-2.620000000000000107e-02 -3.338665166552345909e-08
-2.605000000000000024e-02 -3.802945158781767532e-08
-2.589999999999999941e-02 -4.558060240356098802e-08
-2.575000000000000205e-02 -5.171925820945943997e-08
-2.559999999999999776e-02 -5.385306067751116643e-08
-2.545000000000000040e-02 -5.445841111395566259e-08
-2.529999999999999957e-02 -5.862685981128379353e-08
-2.514999999999999875e-02 -6.843121980182331754e-08
-2.500000000000000139e-02 -8.072541390902188141e-08
-2.484999999999999709e-02 -9.100683939777809428e-08
-2.469999999999999973e-02 -9.860790584070855402e-08
-2.454999999999999891e-02 -1.069015524990390986e-07
-2.439999999999999808e-02 -1.183012017236251268e-07
-2.425000000000000072e-02 -1.300799965520127444e-07
-2.409999999999999989e-02 -1.357396399725985248e-07
-2.394999999999999907e-02 -1.299599716730881482e-07
-2.379999999999999824e-02 -1.114338061825037585e-07
-2.365000000000000088e-02 -8.129410389301483519e-08
-2.350000000000000006e-02 -4.031296896300773369e-08
-2.334999999999999923e-02 1.118893866447479013e-08
-2.319999999999999840e-02 7.080424069272339693e-08
-2.304999999999999757e-02 1.321094202921813121e-07
-2.290000000000000022e-02 1.856066660366195720e-07
-2.274999999999999939e-02 2.218470740444900002e-07
-2.259999999999999856e-02 2.348073451230447972e-07
-2.244999999999999774e-02 2.240967518218894838e-07
-2.230000000000000038e-02 1.953835493395672529e-07
-2.214999999999999955e-02 1.588921492157169268e-07
-2.199999999999999872e-02 1.267423357376173954e-07
-2.184999999999999790e-02 1.105739215745416004e-07
-2.170000000000000054e-02 1.197767147687045508e-07
-2.154999999999999971e-02 1.593033687186107272e-07
-2.139999999999999888e-02 2.265389156264063786e-07
-2.124999999999999806e-02 3.096041041317221243e-07
-2.110000000000000070e-02 3.903416825323802186e-07
-2.094999999999999987e-02 4.518875584835768677e-07
-2.079999999999999905e-02 4.862753826273547020e-07
-2.064999999999999822e-02 4.972341116626921576e-07
-2.049999999999999739e-02 4.978493848284415435e-07
-2.035000000000000003e-02 5.059509362581593450e-07
-2.019999999999999921e-02 5.396124720391526353e-07
-2.004999999999999838e-02 6.123239586486306507e-07
-1.989999999999999755e-02 7.278182465597637929e-07
-1.975000000000000019e-02 8.767543704379932024e-07
-1.959999999999999937e-02 1.038751634041545913e-06
-1.944999999999999854e-02 1.190007083096134011e-06
-1.929999999999999771e-02 1.313652774115325883e-06
-1.915000000000000036e-02 1.407710669809603132e-06
-1.899999999999999953e-02 1.487208237449522130e-06
-1.884999999999999870e-02 1.578887008690799121e-06
-1.869999999999999787e-02 1.710570927571097855e-06
-1.855000000000000052e-02 1.900015263345267158e-06
-1.839999999999999969e-02 2.148630755982594565e-06
-1.824999999999999886e-02 2.442184722895035520e-06
-1.809999999999999803e-02 2.757167976596974768e-06
-1.794999999999999721e-02 3.069572130698361434e-06
-1.779999999999999985e-02 3.364264784977422096e-06
-1.764999999999999902e-02 3.642314368335064501e-06
-1.749999999999999820e-02 3.923345047951443121e-06
-1.734999999999999737e-02 4.238936526235193014e-06
-1.720000000000000001e-02 4.619383162207668647e-06
-1.704999999999999918e-02 5.080185928818536922e-06
-1.689999999999999836e-02 5.616136149910744280e-06
-1.674999999999999753e-02 6.205858881003223360e-06
-1.660000000000000017e-02 6.824174761277390644e-06
-1.644999999999999934e-02 7.454873866663547233e-06
-1.629999999999999852e-02 8.098836588033009320e-06
-1.614999999999999769e-02 8.773580702836625278e-06
-1.600000000000000033e-02 9.505784873908851296e-06
-1.584999999999999951e-02 1.031996725942008197e-05
-1.569999999999999868e-02 1.122998583014123142e-05
-1.554999999999999785e-02 1.223556773766176775e-05
-1.539999999999999702e-02 1.332520150754135102e-05
-1.524999999999999967e-02 1.448391412850469351e-05
-1.509999999999999884e-02 1.570305539644323289e-05
-1.494999999999999801e-02 1.698816777206957340e-05
-1.479999999999999719e-02 1.835972216213122010e-05
-1.464999999999999983e-02 1.984451046155299991e-05
-1.449999999999999900e-02 2.146307815564796329e-05
-1.434999999999999817e-02 2.322108775842934847e-05
-1.419999999999999735e-02 2.510962622181978077e-05
-1.404999999999999999e-02 2.711521483433898538e-05
-1.389999999999999916e-02 2.923217834904789925e-05
-1.374999999999999833e-02 3.147076131426729262e-05
-1.359999999999999751e-02 3.385582022019661963e-05
-1.344999999999999668e-02 3.641806688392534852e-05
-1.329999999999999932e-02 3.918219954357482493e-05
-1.314999999999999850e-02 4.215831359033472836e-05
-1.299999999999999767e-02 4.534140316536650062e-05
-1.284999999999999684e-02 4.871953206020407379e-05
-1.269999999999999948e-02 5.228356894804164767e-05
-1.254999999999999866e-02 5.603811587207019329e-05
-1.239999999999999783e-02 6.000489884172566235e-05
-1.224999999999999700e-02 6.421946454793214798e-05
-1.209999999999999964e-02 6.871960795251652598e-05
-1.194999999999999882e-02 7.353143882937729359e-05
-1.179999999999999799e-02 7.866160012781620026e-05
-1.164999999999999716e-02 8.410088776145130396e-05
-1.149999999999999981e-02 8.983619045466184616e-05
-1.134999999999999898e-02 9.586667147232219577e-05
-1.119999999999999815e-02 1.022107535391114652e-04
-1.104999999999999732e-02 1.089040379156358540e-04
-1.089999999999999650e-02 1.159858875325880945e-04
-1.074999999999999914e-02 1.234866940649226308e-04
-1.059999999999999831e-02 1.314204855589196086e-04
-1.044999999999999749e-02 1.397870946675539017e-04
-1.029999999999999666e-02 1.485848042648285627e-04
-1.014999999999999930e-02 1.578194933244958520e-04
-9.999999999999998473e-03 1.675117237027734518e-04
-9.849999999999997646e-03 1.776915014488622546e-04
-9.699999999999996819e-03 1.883924414869397879e-04
-9.549999999999999462e-03 1.996419450733810663e-04
-9.399999999999998634e-03 2.114544622600078583e-04
-9.249999999999997807e-03 2.238333836430683732e-04
-9.099999999999996980e-03 2.367805282119661570e-04
-8.949999999999999623e-03 2.503044088371098042e-04
-8.799999999999998795e-03 2.644294872879981995e-04
-8.649999999999997968e-03 2.791927836369723082e-04
-8.500000000000000611e-03 2.946317545138299465e-04
-8.349999999999996314e-03 3.107730008196085691e-04
-8.199999999999998956e-03 3.276246134191751480e-04
-8.049999999999994660e-03 3.451811498962342739e-04
-7.899999999999997302e-03 3.634356835391372442e-04
-7.749999999999999944e-03 3.823940933216363192e-04
-7.599999999999995648e-03 4.020817286800593138e-04
-7.449999999999998290e-03 4.225357261020690203e-04
-7.300000000000000933e-03 4.437932511791586876e-04
-7.149999999999996636e-03 4.658750258386135101e-04
-6.999999999999999278e-03 4.887860850431025028e-04
-6.849999999999994982e-03 5.125161260366439819e-04
-6.699999999999997624e-03 5.370549042709171772e-04
-6.550000000000000266e-03 5.624003242701292038e-04
-6.399999999999995970e-03 5.885653081350028515e-04
-6.249999999999998612e-03 6.155715091153979301e-04
-6.099999999999994316e-03 6.434417446143925190e-04
-5.949999999999996958e-03 6.721868994645774364e-04
-5.799999999999999600e-03 7.018002797849476337e-04
-5.649999999999995304e-03 7.322660530917346478e-04
-5.499999999999997946e-03 7.635634392499923706e-04
-5.350000000000000588e-03 7.956812623888254166e-04
-5.199999999999996292e-03 8.286208030767738819e-04
-5.049999999999998934e-03 8.623892208561301231e-04
-4.899999999999994638e-03 8.969886694103479385e-04
-4.749999999999997280e-03 9.324009297415614128e-04
-4.599999999999999922e-03 9.685977711342275143e-04
-4.449999999999995626e-03 1.005536876618862152e-03
-4.299999999999998268e-03 1.043181517161428928e-03
-4.150000000000000910e-03 1.081509981304407120e-03
-3.999999999999996614e-03 1.120507600717246532e-03
-3.849999999999999256e-03 1.160162733867764473e-03
-3.699999999999994960e-03 1.200449652969837189e-03
-3.549999999999997602e-03 1.241321326233446598e-03
-3.400000000000000244e-03 1.282715471461415291e-03
-3.249999999999995948e-03 1.324564218521118164e-03
-3.099999999999998590e-03 1.366807497106492519e-03
-2.949999999999994293e-03 1.409392571076750755e-03
-2.799999999999996936e-03 1.452280441299080849e-03
-2.649999999999999578e-03 1.495428849011659622e-03
-2.499999999999995282e-03 1.538779120892286301e-03
-2.349999999999997924e-03 1.582256983965635300e-03
-2.200000000000000566e-03 1.625775126740336418e-03
-2.049999999999996270e-03 1.669232966378331184e-03
-1.899999999999998912e-03 1.712541794404387474e-03
-1.749999999999994615e-03 1.755622448399662971e-03
-1.599999999999997258e-03 1.798398676328361034e-03
-1.449999999999999900e-03 1.840794458985328674e-03
-1.299999999999995604e-03 1.882713055238127708e-03
-1.149999999999998246e-03 1.924045383930206299e-03
-9.999999999999939493e-04 1.964668044820427895e-03
-8.499999999999965916e-04 2.004463458433747292e-03
-6.999999999999992339e-04 2.043321961537003517e-03
-5.499999999999949374e-04 2.081142272800207138e-03
-3.999999999999975797e-04 2.117822645232081413e-03
-2.500000000000002220e-04 2.153248060494661331e-03
-9.999999999999592548e-05 2.187286270782351494e-03
5.000000000000143219e-05 2.219796646386384964e-03
2.000000000000057288e-04 2.250632736831903458e-03
3.500000000000030864e-04 2.279661130160093307e-03
5.000000000000004441e-04 2.306751674041152000e-03
6.500000000000047407e-04 2.331791445612907410e-03
8.000000000000020983e-04 2.354659838601946831e-03
9.500000000000063949e-04 2.375224605202674866e-03
1.100000000000003753e-03 2.393342088907957077e-03
1.250000000000001110e-03 2.408851170912384987e-03
1.400000000000005407e-03 2.421605633571743965e-03
1.550000000000002764e-03 2.431460889056324959e-03
1.700000000000000122e-03 2.438287483528256416e-03
1.850000000000004419e-03 2.441967604681849480e-03
2.000000000000001776e-03 2.442378550767898560e-03
2.150000000000006073e-03 2.439387841150164604e-03
2.300000000000003431e-03 2.432862063869833946e-03
2.450000000000000788e-03 2.422654069960117340e-03
2.600000000000005085e-03 2.408636035397648811e-03
2.750000000000002442e-03 2.390688983723521233e-03
2.899999999999999800e-03 2.368708839640021324e-03
3.050000000000004097e-03 2.342598978430032730e-03
3.200000000000001454e-03 2.312255790457129478e-03
3.350000000000005751e-03 2.277572173625230789e-03
3.500000000000003109e-03 2.238437999039888382e-03
3.650000000000000466e-03 2.194759203121066093e-03
3.800000000000004763e-03 2.146450569853186607e-03
3.950000000000002121e-03 2.093453425914049149e-03
4.100000000000006417e-03 2.035717712715268135e-03
4.250000000000003775e-03 1.973195932805538177e-03
4.400000000000001132e-03 1.905835466459393501e-03
4.550000000000005429e-03 1.833583344705402851e-03
4.700000000000002787e-03 1.756401383318006992e-03
4.850000000000000144e-03 1.674260711297392845e-03
5.000000000000004441e-03 1.587152248248457909e-03
5.150000000000001799e-03 1.495090895332396030e-03
5.300000000000006095e-03 1.398101681843400002e-03
5.450000000000003453e-03 1.296216621994972229e-03
5.600000000000000810e-03 1.189475879073143005e-03
5.750000000000005107e-03 1.077908789739012718e-03
5.900000000000002465e-03 9.615686722099781036e-04
6.050000000000006761e-03 8.405189146287739277e-04
6.200000000000004119e-03 7.148503209464251995e-04
6.350000000000001477e-03 5.846746498718857765e-04
6.500000000000005773e-03 4.501077637542039156e-04
6.650000000000003131e-03 3.112790873274207115e-04
6.800000000000000488e-03 1.683082955423742533e-04
6.950000000000004785e-03 2.134237183781806380e-05
7.100000000000002143e-03 -1.294619432883337140e-04
7.250000000000006439e-03 -2.839274820871651173e-04
7.400000000000003797e-03 -4.418554599396884441e-04
7.550000000000001155e-03 -6.030378281138837337e-04
7.700000000000005451e-03 -7.672621868550777435e-04
7.850000000000002809e-03 -9.343112469650804996e-04
8.000000000000000167e-03 -1.103958697058260441e-03
8.150000000000004463e-03 -1.275971648283302784e-03
8.300000000000001821e-03 -1.450086827389895916e-03
8.450000000000006117e-03 -1.626021345146000385e-03
8.600000000000003475e-03 -1.803498831577599049e-03
8.750000000000000833e-03 -1.982217654585838318e-03
8.900000000000005129e-03 -2.161879092454910278e-03
9.050000000000002487e-03 -2.342189662158489227e-03
9.200000000000006783e-03 -2.522845752537250519e-03
9.350000000000004141e-03 -2.703532576560974121e-03
9.500000000000001499e-03 -2.883922541514039040e-03
9.650000000000005795e-03 -3.063677577301859856e-03
9.800000000000003153e-03 -3.242450999096035957e-03
9.950000000000000511e-03 -3.419898916035890579e-03
1.010000000000000481e-02 -3.595683956518769264e-03
1.025000000000000216e-02 -3.769460367038846016e-03
1.040000000000000646e-02 -3.940885420888662338e-03
1.055000000000000382e-02 -4.109610803425312042e-03
1.070000000000000118e-02 -4.275286570191383362e-03
1.085000000000000547e-02 -4.437553696334362030e-03
1.100000000000000283e-02 -4.596062935888767242e-03
1.115000000000000713e-02 -4.750480409711599350e-03
1.130000000000000449e-02 -4.900467582046985626e-03
1.145000000000000184e-02 -5.045704543590545654e-03
1.160000000000000614e-02 -5.185861606150865555e-03
1.175000000000000350e-02 -5.320612806826829910e-03
1.190000000000000085e-02 -5.449631717056035995e-03
1.205000000000000515e-02 -5.572611000388860703e-03
1.220000000000000251e-02 -5.689254961907863617e-03
1.235000000000000681e-02 -5.799282807856798172e-03
1.250000000000000416e-02 -5.902431439608335495e-03
1.265000000000000152e-02 -5.998446140438318253e-03
1.280000000000000582e-02 -6.087071727961301804e-03
1.295000000000000318e-02 -6.168074440211057663e-03
1.310000000000000747e-02 -6.241223774850368500e-03
1.325000000000000483e-02 -6.306311581283807755e-03
1.340000000000000219e-02 -6.363150663673877716e-03
1.355000000000000648e-02 -6.411569658666849136e-03
1.370000000000000384e-02 -6.451422348618507385e-03
1.385000000000000120e-02 -6.482565309852361679e-03
1.400000000000000550e-02 -6.504879798740148544e-03
1.415000000000000285e-02 -6.518264301121234894e-03
1.430000000000000715e-02 -6.522636394947767258e-03
1.445000000000000451e-02 -6.517926231026649475e-03
1.460000000000000187e-02 -6.504102610051631927e-03
1.475000000000000616e-02 -6.481142714619636536e-03
1.490000000000000352e-02 -6.449042819440364838e-03
1.505000000000000088e-02 -6.407815963029861450e-03
1.520000000000000517e-02 -6.357493344694375992e-03
1.535000000000000253e-02 -6.298132706433534622e-03
1.550000000000000683e-02 -6.229810882359743118e-03
1.565000000000000419e-02 -6.152628920972347260e-03
1.580000000000000154e-02 -6.066711619496345520e-03
1.595000000000000584e-02 -5.972197279334068298e-03
1.610000000000000320e-02 -5.869241897016763687e-03
1.625000000000000749e-02 -5.758016370236873627e-03
1.640000000000000485e-02 -5.638701841235160828e-03
1.655000000000000221e-02 -5.511516705155372620e-03
1.670000000000000651e-02 -5.376691464334726334e-03
1.685000000000000386e-02 -5.234464537352323532e-03
1.700000000000000122e-02 -5.085103679448366165e-03
1.715000000000000552e-02 -4.928893875330686569e-03
1.730000000000000288e-02 -4.766119178384542465e-03
1.745000000000000717e-02 -4.597086925059556961e-03
1.760000000000000453e-02 -4.422119818627834320e-03
1.775000000000000189e-02 -4.241546615958213806e-03
1.790000000000000618e-02 -4.055710043758153915e-03
1.805000000000000354e-02 -3.864960279315710068e-03
1.820000000000000784e-02 -3.669657511636614799e-03
1.835000000000000520e-02 -3.470178227871656418e-03
1.850000000000000255e-02 -3.266900079324841499e-03
1.865000000000000685e-02 -3.060208866372704506e-03
1.880000000000000421e-02 -2.850491553544998169e-03
1.895000000000000157e-02 -2.638146979734301567e-03
1.910000000000000586e-02 -2.423579804599285126e-03
1.925000000000000322e-02 -2.207187004387378693e-03
1.940000000000000752e-02 -1.989373238757252693e-03
1.955000000000000487e-02 -1.770522678270936012e-03
1.970000000000000223e-02 -1.551046501845121384e-03
1.985000000000000653e-02 -1.331346808001399040e-03
2.000000000000000389e-02 -1.111826044507324696e-03
2.015000000000000818e-02 -8.928774041123688221e-04
2.030000000000000554e-02 -6.748751620762050152e-04
2.045000000000000290e-02 -4.582117253448814154e-04
2.060000000000000719e-02 -2.432631299598142505e-04
2.075000000000000455e-02 -3.038810973521322012e-05
2.090000000000000191e-02 1.800414174795150757e-04
2.105000000000000621e-02 3.876785340253263712e-04
2.120000000000000356e-02 5.921826814301311970e-04
2.135000000000000786e-02 7.932279841043055058e-04
2.150000000000000522e-02 9.904997423291206360e-04
2.165000000000000258e-02 1.183699467219412327e-03
2.180000000000000687e-02 1.372537575662136078e-03
2.195000000000000423e-02 1.556724659167230129e-03
2.210000000000000159e-02 1.735992264002561569e-03
2.225000000000000588e-02 1.910088583827018738e-03
2.240000000000000324e-02 2.078778808936476707e-03
2.255000000000000754e-02 2.241855952888727188e-03
2.270000000000000490e-02 2.399112330749630928e-03
2.285000000000000225e-02 2.550368895754218102e-03
2.299999999999999961e-02 2.695449395105242729e-03
2.315000000000001085e-02 2.834185492247343063e-03
2.330000000000000820e-02 2.966451225802302361e-03
2.345000000000000556e-02 3.092126687988638878e-03
2.360000000000000292e-02 3.211095929145812988e-03
2.375000000000000028e-02 3.323287470266222954e-03
2.390000000000001151e-02 3.428609576076269150e-03
2.405000000000000887e-02 3.527021268382668495e-03
2.420000000000000623e-02 3.618471091613173485e-03
2.435000000000000359e-02 3.702939255163073540e-03
2.450000000000000094e-02 3.780422499403357506e-03
2.464999999999999830e-02 3.850928740575909615e-03
2.480000000000000954e-02 3.914491273462772369e-03
2.495000000000000689e-02 3.971143160015344620e-03
2.510000000000000425e-02 4.020938649773597717e-03
2.525000000000000161e-02 4.063929431140422821e-03
2.539999999999999897e-02 4.100191872566938400e-03
2.555000000000001020e-02 4.129818174988031387e-03
2.570000000000000756e-02 4.152916371822357178e-03
2.585000000000000492e-02 4.169615451246500015e-03
2.600000000000000228e-02 4.180044401437044144e-03
2.614999999999999963e-02 4.184346180409193039e-03
2.630000000000001087e-02 4.182657226920127869e-03
2.645000000000000823e-02 4.175129812210798264e-03
2.660000000000000558e-02 4.161924589425325394e-03
2.675000000000000294e-02 4.143218975514173508e-03
2.690000000000000030e-02 4.119202494621276855e-03
2.705000000000001154e-02 4.090067930519580841e-03
2.720000000000000889e-02 4.056009463965892792e-03
2.735000000000000625e-02 4.017224069684743881e-03
2.750000000000000361e-02 3.973910119384527206e-03
2.765000000000000097e-02 3.926274832338094711e-03
2.780000000000001220e-02 3.874533344060182571e-03
2.795000000000000956e-02 3.818904282525181770e-03
2.810000000000000692e-02 3.759605344384908676e-03
2.825000000000000427e-02 3.696860279887914658e-03
2.840000000000000163e-02 3.630884224548935890e-03
2.854999999999999899e-02 3.561888821423053741e-03
2.870000000000001023e-02 3.490088041871786118e-03
2.885000000000000758e-02 3.415703075006604195e-03
2.900000000000000494e-02 3.338954178616404533e-03
2.915000000000000230e-02 3.260068595409393311e-03
2.929999999999999966e-02 3.179260995239019394e-03
2.945000000000001089e-02 3.096741391345858574e-03
2.960000000000000825e-02 3.012707922607660294e-03
2.975000000000000561e-02 2.927356166765093803e-03
2.990000000000000296e-02 2.840879838913679123e-03
3.005000000000000032e-02 2.753479871898889542e-03
3.020000000000001156e-02 2.665353473275899887e-03
3.035000000000000892e-02 2.576691564172506332e-03
3.050000000000000627e-02 2.487673424184322357e-03
3.065000000000000363e-02 2.398466691374778748e-03
3.080000000000000099e-02 2.309230854734778404e-03
3.095000000000001222e-02 2.220124471932649612e-03
3.110000000000000958e-02 2.131304005160927773e-03
3.125000000000000694e-02 2.042926615104079247e-03
3.140000000000000430e-02 1.955142011865973473e-03
3.155000000000000165e-02 1.868083490990102291e-03
3.169999999999999901e-02 1.781872939318418503e-03
3.185000000000001025e-02 1.696624676696956158e-03
3.200000000000000761e-02 1.612446620129048824e-03
3.215000000000000496e-02 1.529449713416397572e-03
3.230000000000000232e-02 1.447745016776025295e-03
3.244999999999999968e-02 1.367432530969381332e-03
3.260000000000001091e-02 1.288603525608778000e-03
3.275000000000000827e-02 1.211332622915506363e-03
3.290000000000000563e-02 1.135684084147214890e-03
3.305000000000000299e-02 1.061714370734989643e-03
3.320000000000000034e-02 9.894841350615024567e-04
3.335000000000001158e-02 9.190519340336322784e-04
3.350000000000000894e-02 8.504724828526377678e-04
3.365000000000000629e-02 7.837950251996517181e-04
3.380000000000000365e-02 7.190544274635612965e-04
3.395000000000000101e-02 6.562749040313065052e-04
3.410000000000001225e-02 5.954700172878801823e-04
3.425000000000000960e-02 5.366535042412579060e-04
3.440000000000000696e-02 4.798435547854751348e-04
3.455000000000000432e-02 4.250565543770790100e-04
3.470000000000000168e-02 3.723035333678126335e-04
3.485000000000001291e-02 3.215827746316790581e-04
3.500000000000001027e-02 2.728809195104986429e-04
3.515000000000000763e-02 2.261793997604399920e-04
3.530000000000000498e-02 1.814607094274833798e-04
3.545000000000000234e-02 1.387103839078918099e-04
3.559999999999999970e-02 9.791833872441202402e-05
3.575000000000001094e-02 5.907077502342872322e-05
3.590000000000000829e-02 2.214192500105127692e-05
3.605000000000000565e-02 -1.290581167268101126e-05
3.620000000000000301e-02 -4.611569602275267243e-05
3.635000000000000037e-02 -7.753060344839468598e-05
3.650000000000001160e-02 -1.071872247848659754e-04
3.665000000000000896e-02 -1.351146493107080460e-04
3.680000000000000632e-02 -1.613444183021783829e-04
3.695000000000000367e-02 -1.859101030277088284e-04
3.710000000000000103e-02 -2.088591427309438586e-04
3.725000000000001227e-02 -2.302463253727182746e-04
3.740000000000000963e-02 -2.501249255146831274e-04
3.755000000000000698e-02 -2.685470099095255136e-04
3.770000000000000434e-02 -2.855543280020356178e-04
3.785000000000000170e-02 -3.011861117556691170e-04
3.800000000000001293e-02 -3.154829901177436113e-04
3.815000000000001029e-02 -3.284925478510558605e-04
3.830000000000000765e-02 -3.402697038836777210e-04
3.845000000000000501e-02 -3.508732188493013382e-04
3.860000000000000236e-02 -3.603559744078665972e-04
3.874999999999999972e-02 -3.687614516820758581e-04
3.890000000000001096e-02 -3.761298430617898703e-04
3.905000000000000832e-02 -3.824991290457546711e-04
3.920000000000000567e-02 -3.879135183524340391e-04
3.935000000000000303e-02 -3.924250486306846142e-04
3.950000000000000039e-02 -3.960895701311528683e-04
3.965000000000001162e-02 -3.989597607869654894e-04
3.980000000000000898e-02 -4.010779666714370251e-04
3.995000000000000634e-02 -4.024772206321358681e-04
4.010000000000000370e-02 -4.031881398987025023e-04
4.025000000000000105e-02 -4.032464639749377966e-04
4.040000000000001229e-02 -4.026943061035126448e-04
4.055000000000000965e-02 -4.015794838778674603e-04
4.070000000000000701e-02 -3.999506006948649883e-04
4.085000000000000436e-02 -3.978456661570817232e-04
4.100000000000000172e-02 -3.952939005102962255e-04
4.115000000000001296e-02 -3.923186450265347958e-04
4.130000000000001031e-02 -3.889457439072430134e-04
4.145000000000000767e-02 -3.852072113659232855e-04
4.160000000000000503e-02 -3.811396309174597263e-04
4.175000000000000239e-02 -3.767790913116186857e-04
4.190000000000001362e-02 -3.721569664776325226e-04
4.205000000000001098e-02 -3.672962775453925133e-04
4.220000000000000834e-02 -3.622143703978508711e-04
4.235000000000000570e-02 -3.569300170056521893e-04
4.250000000000000305e-02 -3.514656273182481527e-04
4.265000000000000041e-02 -3.458486753515899181e-04
4.280000000000001165e-02 -3.401066060177981853e-04
4.295000000000000900e-02 -3.342641284689307213e-04
4.310000000000000636e-02 -3.283372207079082727e-04
4.325000000000000372e-02 -3.223346720915287733e-04
4.340000000000000108e-02 -3.162653883919119835e-04
4.355000000000001231e-02 -3.101405454799532890e-04
4.370000000000000967e-02 -3.039785369765013456e-04
4.385000000000000703e-02 -2.978023840114474297e-04
4.400000000000000439e-02 -2.916330995503813028e-04
4.415000000000000174e-02 -2.854836056940257549e-04
4.430000000000001298e-02 -2.793588209897279739e-04
4.445000000000001034e-02 -2.732591237872838974e-04
4.460000000000000769e-02 -2.671869879122823477e-04
4.475000000000000505e-02 -2.611529489513486624e-04
4.490000000000000241e-02 -2.551714133005589247e-04
4.505000000000001364e-02 -2.492575149517506361e-04
4.520000000000001100e-02 -2.434201014693826437e-04
4.535000000000000836e-02 -2.376601478317752481e-04
4.550000000000000572e-02 -2.319760969839990139e-04
4.565000000000000308e-02 -2.263681089971214533e-04
4.580000000000000043e-02 -2.208413789048790932e-04
4.595000000000001167e-02 -2.154054091079160571e-04
4.610000000000000903e-02 -2.100691344821825624e-04
4.625000000000000638e-02 -2.048373280558735132e-04
4.640000000000000374e-02 -1.997089275391772389e-04
4.655000000000000110e-02 -1.946790871443226933e-04
4.670000000000001233e-02 -1.897438633022829890e-04
4.685000000000000969e-02 -1.849040709203109145e-04
4.700000000000000705e-02 -1.801659527700394392e-04
4.715000000000000441e-02 -1.755366392899304628e-04
4.730000000000000177e-02 -1.710216893116012216e-04
4.745000000000001300e-02 -1.666197349550202489e-04
4.760000000000001036e-02 -1.623247371753677726e-04
4.775000000000000772e-02 -1.581297692609950900e-04
4.790000000000000507e-02 -1.540293596917763352e-04
4.805000000000000243e-02 -1.500257058069109917e-04
4.820000000000001367e-02 -1.461245701648294926e-04