-4.000000000000000083e-02 -0.000000000000000000e+00
-3.985000000000000347e-02 -0.000000000000000000e+00
-3.969999999999999918e-02 -0.000000000000000000e+00
-3.955000000000000182e-02 -0.000000000000000000e+00
-3.939999999999999752e-02 -0.000000000000000000e+00
-3.925000000000000017e-02 -0.000000000000000000e+00
-3.910000000000000281e-02 -0.000000000000000000e+00
-3.894999999999999851e-02 0.000000000000000000e+00
-3.880000000000000115e-02 -6.726232628759121940e-44
-3.865000000000000380e-02 1.062324365804643821e-41
-3.849999999999999950e-02 7.129194219055759312e-39
-3.835000000000000214e-02 -4.770041496506089339e-37
-3.819999999999999785e-02 -4.312803681840063978e-36
-3.805000000000000049e-02 1.467756317405782797e-33
-3.790000000000000313e-02 -7.707102262543434545e-32
-3.774999999999999883e-02 2.397013537258930532e-30
-3.760000000000000148e-02 -4.907403711541676439e-29
-3.744999999999999718e-02 5.513924430753531633e-28
-3.729999999999999982e-02 2.055348007011186012e-27
-3.715000000000000246e-02 -2.055955298944969972e-25
-3.699999999999999817e-02 3.650421101182665458e-24
-3.685000000000000081e-02 -2.713117005096504455e-23
-3.670000000000000345e-02 -3.262981770572499728e-23
-3.654999999999999916e-02 1.801993375452772342e-21
-3.640000000000000180e-02 -5.468659858443557739e-21
-3.624999999999999750e-02 -4.338782678925693110e-20
-3.610000000000000014e-02 8.025715369651776116e-20
-3.595000000000000279e-02 7.537628531173883049e-19
-3.579999999999999849e-02 1.917575059104104074e-18
-3.565000000000000113e-02 3.361791463181369020e-18
-3.550000000000000377e-02 5.253297511690558150e-18
-3.534999999999999948e-02 7.538538636642844518e-18
-3.520000000000000212e-02 1.019767946053951280e-17
-3.504999999999999782e-02 1.337321838750507306e-17
-3.490000000000000047e-02 1.697575456411540664e-17
-3.475000000000000311e-02 2.113403617117255462e-17
-3.459999999999999881e-02 2.585875120937131469e-17
-3.445000000000000145e-02 3.117986512358203281e-17
-3.429999999999999716e-02 3.735578086536014931e-17
-3.414999999999999980e-02 4.461076364238104105e-17
-3.400000000000000244e-02 5.254985787320778879e-17
-3.384999999999999815e-02 5.620107280168625550e-17
-3.370000000000000079e-02 4.443753216977773578e-17
-3.354999999999999649e-02 2.869827034636374639e-17
-3.339999999999999913e-02 1.555698033316486395e-16
-3.325000000000000178e-02 8.271564721140309273e-16
-3.309999999999999748e-02 2.176314785665416779e-15
-3.295000000000000012e-02 1.431587324813438089e-15
-3.280000000000000276e-02 -1.180694810583998722e-14
-3.264999999999999847e-02 -5.272011668368270509e-14
-3.250000000000000111e-02 -1.017097647423859108e-13
-3.235000000000000375e-02 3.356581505797873177e-15
-3.219999999999999946e-02 6.781732293792419597e-13
-3.205000000000000210e-02 2.356525564961575725e-12
-3.189999999999999780e-02 4.211186954705681273e-12
-3.175000000000000044e-02 1.411721434196877567e-12
-3.160000000000000309e-02 -1.737667822132582529e-11
-3.144999999999999879e-02 -6.608134872632120960e-11
-3.130000000000000143e-02 -1.407468031011660514e-10
-3.115000000000000061e-02 -1.766298218797146546e-10
-3.099999999999999978e-02 2.005839938590270322e-12
-3.085000000000000242e-02 6.901167970418953246e-10
-3.069999999999999812e-02 2.200022386489308701e-09
-3.055000000000000077e-02 4.623629479283408727e-09
-3.039999999999999994e-02 7.555776448953110958e-09
-3.024999999999999911e-02 1.001444616122171283e-08
-3.010000000000000175e-02 1.079659028846435831e-08
-2.994999999999999746e-02 9.251223787032358814e-09
-2.980000000000000010e-02 6.021871001848921878e-09
-2.964999999999999927e-02 3.067768261644232552e-09
-2.949999999999999845e-02 2.609759519600629574e-09
-2.935000000000000109e-02 5.525023993868671823e-09
-2.920000000000000026e-02 1.045415842781949323e-08
-2.904999999999999943e-02 1.461913967659711489e-08
-2.890000000000000208e-02 1.596824006355745951e-08
-2.874999999999999778e-02 1.486986178633742384e-08
-2.860000000000000042e-02 1.370612778828217415e-08
-2.844999999999999959e-02 1.460999499158788240e-08
-2.829999999999999877e-02 1.755178402618184919e-08
-2.815000000000000141e-02 2.076660621241899207e-08
-2.800000000000000058e-02 2.301467816323565785e-08
-2.784999999999999976e-02 2.499062645711092046e-08
-2.769999999999999893e-02 2.810564581068319967e-08
-2.754999999999999810e-02 3.214763921732810559e-08
-2.740000000000000074e-02 3.508384338601899799e-08
-2.724999999999999992e-02 3.581098440008645412e-08
-2.709999999999999909e-02 3.652490931926877238e-08
-2.695000000000000173e-02 4.099413786207151134e-08
-2.679999999999999744e-02 4.985980694982572459e-08
-2.665000000000000008e-02 5.868446351087186486e-08
-2.649999999999999925e-02 6.225599236131529324e-08
-2.634999999999999842e-02 6.106111527515167836e-08
-2.620000000000000107e-02 6.192928481141279917e-08
-2.605000000000000024e-02 7.081797548380563967e-08
-2.589999999999999941e-02 8.549341146135702729e-08
-2.575000000000000205e-02 9.731184036354534328e-08
-2.559999999999999776e-02 1.010863570627407171e-07
-2.545000000000000040e-02 1.017674549075309187e-07
-2.529999999999999957e-02 1.095357902158866636e-07
-2.514999999999999875e-02 1.285343955714779440e-07
-2.500000000000000139e-02 1.524683739262400195e-07
-2.484999999999999709e-02 1.723295781630440615e-07
-2.469999999999999973e-02 1.867797436716500670e-07
-2.454999999999999891e-02 2.025615231104893610e-07
-2.439999999999999808e-02 2.244983079435769469e-07
-2.425000000000000072e-02 2.471327888997620903e-07
-2.409999999999999989e-02 2.574645350250648335e-07
-2.394999999999999907e-02 2.448491613904479891e-07
-2.379999999999999824e-02 2.066681190626695752e-07
-2.365000000000000088e-02 1.451828666176879779e-07
-2.350000000000000006e-02 6.193295121192932129e-08
-2.334999999999999923e-02 -4.244520823704078794e-08
-2.319999999999999840e-02 -1.631419763725716621e-07
-2.304999999999999757e-02 -2.873157427529804409e-07
-2.290000000000000022e-02 -3.959764853789238259e-07
-2.274999999999999939e-02 -4.702324076788499951e-07
-2.259999999999999856e-02 -4.980431640433380380e-07
-2.244999999999999774e-02 -4.786338649864774197e-07
-2.230000000000000038e-02 -4.233479558024555445e-07
-2.214999999999999955e-02 -3.526415639498736709e-07
-2.199999999999999872e-02 -2.907618181779980659e-07
-2.184999999999999790e-02 -2.609963303257245570e-07
-2.170000000000000054e-02 -2.821329871949274093e-07
-2.154999999999999971e-02 -3.640857357822824270e-07
-2.139999999999999888e-02 -5.016336217522621155e-07
-2.124999999999999806e-02 -6.710274647048208863e-07
-2.110000000000000070e-02 -8.359625098819378763e-07
-2.094999999999999987e-02 -9.627206054574344307e-07
-2.079999999999999905e-02 -1.035379682434722781e-06
-2.064999999999999822e-02 -1.061408511304762214e-06
-2.049999999999999739e-02 -1.066990080289542675e-06
-2.035000000000000003e-02 -1.087795681087300181e-06
-2.019999999999999921e-02 -1.159985004051122814e-06
-2.004999999999999838e-02 -1.310550942434929311e-06
-1.989999999999999755e-02 -1.546972271171398461e-06
-1.975000000000000019e-02 -1.850580702011939138e-06
-1.959999999999999937e-02 -2.180629053327720612e-06
-1.944999999999999854e-02 -2.489526195859070867e-06
-1.929999999999999771e-02 -2.743550794548355043e-06
-1.915000000000000036e-02 -2.938762918347492814e-06
-1.899999999999999953e-02 -3.105233190581202507e-06
-1.884999999999999870e-02 -3.296461727586574852e-06
-1.869999999999999787e-02 -3.568113243090920150e-06
-1.855000000000000052e-02 -3.955716238124296069e-06
-1.839999999999999969e-02 -4.462110155145637691e-06
-1.824999999999999886e-02 -5.058847818872891366e-06
-1.809999999999999803e-02 -5.698930181097239256e-06
-1.794999999999999721e-02 -6.334359568427316844e-06
-1.779999999999999985e-02 -6.934891644050367177e-06
-1.764999999999999902e-02 -7.502683729398995638e-06
-1.749999999999999820e-02 -8.077004167716950178e-06
-1.734999999999999737e-02 -8.721035555936396122e-06
-1.720000000000000001e-02 -9.495386620983481407e-06
-1.704999999999999918e-02 -1.043108204612508416e-05
-1.689999999999999836e-02 -1.151772812590934336e-05
-1.674999999999999753e-02 -1.271259679924696684e-05
-1.660000000000000017e-02 -1.396535299136303365e-05
-1.644999999999999934e-02 -1.524360050098039210e-05
-1.629999999999999852e-02 -1.654912557569332421e-05
-1.614999999999999769e-02 -1.791698377928696573e-05
-1.600000000000000033e-02 -1.940056245075538754e-05
-1.584999999999999951e-02 -2.104891973431222141e-05
-1.569999999999999868e-02 -2.288979521836154163e-05
-1.554999999999999785e-02 -2.492267230991274118e-05
-1.539999999999999702e-02 -2.712455170694738626e-05
-1.524999999999999967e-02 -2.946551103377714753e-05
-1.509999999999999884e-02 -3.192827716702595353e-05
-1.494999999999999801e-02 -3.452396049397066236e-05
-1.479999999999999719e-02 -3.729352465597912669e-05
-1.464999999999999983e-02 -4.029058618471026421e-05
-1.449999999999999900e-02 -4.355625424068421125e-05
-1.434999999999999817e-02 -4.710187931777909398e-05
-1.419999999999999735e-02 -5.090966442367061973e-05
-1.404999999999999999e-02 -5.495267396327108145e-05
-1.389999999999999916e-02 -5.921957927057519555e-05
-1.374999999999999833e-02 -6.373089854605495930e-05
-1.359999999999999751e-02 -6.853636296000331640e-05
-1.344999999999999668e-02 -7.369741797447204590e-05
-1.329999999999999932e-02 -7.926348189357668161e-05
-1.314999999999999850e-02 -8.525476732756942511e-05
-1.299999999999999767e-02 -9.166129166260361671e-05
-1.284999999999999684e-02 -9.845918975770473480e-05
-1.269999999999999948e-02 -1.056302135111764073e-04
-1.254999999999999866e-02 -1.131836033891886473e-04
-1.239999999999999783e-02 -1.211628114106133580e-04
-1.224999999999999700e-02 -1.296389527851715684e-04
-1.209999999999999964e-02 -1.386876247124746442e-04
-1.194999999999999882e-02 -1.483610540162771940e-04
-1.179999999999999799e-02 -1.586725556990131736e-04
-1.164999999999999716e-02 -1.696037361398339272e-04
-1.149999999999999981e-02 -1.811283436836674809e-04
-1.134999999999999898e-02 -1.932447339640930295e-04
-1.119999999999999815e-02 -2.059897669823840261e-04
-1.104999999999999732e-02 -2.194346307078376412e-04
-1.089999999999999650e-02 -2.336580510018393397e-04
-1.074999999999999914e-02 -2.487208112142980099e-04
-1.059999999999999831e-02 -2.646509674377739429e-04
-1.044999999999999749e-02 -2.814481849782168865e-04
-1.029999999999999666e-02 -2.991089713759720325e-04
-1.014999999999999930e-02 -3.176451427862048149e-04
-9.999999999999998473e-03 -3.370977938175201416e-04
-9.849999999999997646e-03 -3.575268783606588840e-04
-9.699999999999996819e-03 -3.789996262639760971e-04
-9.549999999999999462e-03 -4.015708400402218103e-04
-9.399999999999998634e-03 -4.252693615853786469e-04
-9.249999999999997807e-03 -4.501019720919430256e-04
-9.099999999999996980e-03 -4.760722513310611248e-04
-8.949999999999999623e-03 -5.031971959397196770e-04
-8.799999999999998795e-03 -5.315257003530859947e-04
-8.649999999999997968e-03 -5.611318047158420086e-04
-8.500000000000000611e-03 -5.920903058722615242e-04
-8.349999999999996314e-03 -6.244543474167585373e-04
-8.199999999999998956e-03 -6.582401692867279053e-04
-8.049999999999994660e-03 -6.934367120265960693e-04
-7.899999999999997302e-03 -7.300301222130656242e-04
-7.749999999999999944e-03 -7.680320413783192635e-04
-7.599999999999995648e-03 -8.074932266026735306e-04
-7.449999999999998290e-03 -8.484877180308103561e-04
-7.300000000000000933e-03 -8.910899050533771515e-04
-7.149999999999996636e-03 -9.353411151096224785e-04
-6.999999999999999278e-03 -9.812513599172234535e-04
-6.849999999999994982e-03 -1.028799801133573055e-03
-6.699999999999997624e-03 -1.077966066077351570e-03
-6.550000000000000266e-03 -1.128745847381651402e-03
-6.399999999999995970e-03 -1.181164756417274475e-03
-6.249999999999998612e-03 -1.235265983268618584e-03
-6.099999999999994316e-03 -1.291095279157161713e-03
-5.949999999999996958e-03 -1.348674180917441845e-03
-5.799999999999999600e-03 -1.407989184372127056e-03
-5.649999999999995304e-03 -1.469008508138358593e-03
-5.499999999999997946e-03 -1.531690591946244240e-03
-5.350000000000000588e-03 -1.596012734808027744e-03
-5.199999999999996292e-03 -1.661977614276111126e-03
-5.049999999999998934e-03 -1.729599200189113617e-03
-4.899999999999994638e-03 -1.798881916329264641e-03
-4.749999999999997280e-03 -1.869788975454866886e-03
-4.599999999999999922e-03 -1.942264032550156116e-03
-4.449999999999995626e-03 -2.016222104430198669e-03
-4.299999999999998268e-03 -2.091589616611599922e-03
-4.150000000000000910e-03 -2.168322913348674774e-03
-3.999999999999996614e-03 -2.246392890810966492e-03
-3.849999999999999256e-03 -2.325775800272822380e-03
-3.699999999999994960e-03 -2.406420186161994934e-03
-3.549999999999997602e-03 -2.488231752067804337e-03
-3.400000000000000244e-03 -2.571085700765252113e-03
-3.249999999999995948e-03 -2.654846524819731712e-03
-3.099999999999998590e-03 -2.739393617957830429e-03
-2.949999999999994293e-03 -2.824621275067329407e-03
-2.799999999999996936e-03 -2.910451497882604599e-03
-2.649999999999999578e-03 -2.996799768880009651e-03
-2.499999999999995282e-03 -3.083548275753855705e-03
-2.349999999999997924e-03 -3.170548705384135246e-03
-2.200000000000000566e-03 -3.257625969126820564e-03
-2.049999999999996270e-03 -3.344578668475151062e-03
-1.899999999999998912e-03 -3.431229619309306145e-03
-1.749999999999994615e-03 -3.517420263960957527e-03
-1.599999999999997258e-03 -3.602997865527868271e-03
-1.449999999999999900e-03 -3.687810152769088745e-03
-1.299999999999995604e-03 -3.771663643419742584e-03
-1.149999999999998246e-03 -3.854339942336082458e-03
-9.999999999999939493e-04 -3.935592249035835266e-03
-8.499999999999965916e-04 -4.015184938907623291e-03
-6.999999999999992339e-04 -4.092899151146411896e-03
-5.499999999999949374e-04 -4.168531857430934906e-03
-3.999999999999975797e-04 -4.241879563778638840e-03
-2.500000000000002220e-04 -4.312711767852306366e-03
-9.999999999999592548e-05 -4.380764439702033997e-03
5.000000000000143219e-05 -4.445755854249000549e-03
2.000000000000057288e-04 -4.507392644882202148e-03
3.500000000000030864e-04 -4.565408919006586075e-03
5.000000000000004441e-04 -4.619543440639972687e-03
6.500000000000047407e-04 -4.669570829719305038e-03
8.000000000000020983e-04 -4.715248942375183105e-03
9.500000000000063949e-04 -4.756314214318990707e-03
1.100000000000003753e-03 -4.792478866875171661e-03
1.250000000000001110e-03 -4.823420662432909012e-03
1.400000000000005407e-03 -4.848846700042486191e-03
1.550000000000002764e-03 -4.868468269705772400e-03
1.700000000000000122e-03 -4.882026463747024536e-03
1.850000000000004419e-03 -4.889285191893577576e-03
2.000000000000001776e-03 -4.889999516308307648e-03
2.150000000000006073e-03 -4.883904475718736649e-03
2.300000000000003431e-03 -4.870732780545949936e-03
2.450000000000000788e-03 -4.850190598517656326e-03
2.600000000000005085e-03 -4.822021815925836563e-03
2.750000000000002442e-03 -4.785989411175251007e-03
2.899999999999999800e-03 -4.741883836686611176e-03
3.050000000000004097e-03 -4.689513240009546280e-03
3.200000000000001454e-03 -4.628669936209917068e-03
3.350000000000005751e-03 -4.559139721095561981e-03
3.500000000000003109e-03 -4.480702802538871765e-03
3.650000000000000466e-03 -4.393170587718486786e-03
3.800000000000004763e-03 -4.296372644603252411e-03
3.950000000000002121e-03 -4.190192557871341705e-03
4.100000000000006417e-03 -4.074529744684696198e-03
4.250000000000003775e-03 -3.949289210140705109e-03
4.400000000000001132e-03 -3.814366180449724197e-03
4.550000000000005429e-03 -3.669654950499534607e-03
4.700000000000002787e-03 -3.515078686177730560e-03
4.850000000000000144e-03 -3.350580576807260513e-03
5.000000000000004441e-03 -3.176141995936632156e-03
5.150000000000001799e-03 -2.991793211549520493e-03
5.300000000000006095e-03 -2.797584515064954758e-03
5.450000000000003453e-03 -2.593579934909939766e-03
5.600000000000000810e-03 -2.379860263317823410e-03
5.750000000000005107e-03 -2.156484173610806465e-03
5.900000000000002465e-03 -1.923558535054326057e-03
6.050000000000006761e-03 -1.681210356764495373e-03
6.200000000000004119e-03 -1.429621479474008083e-03
6.350000000000001477e-03 -1.169015653431415558e-03
6.500000000000005773e-03 -8.996249525807797909e-04
6.650000000000003131e-03 -6.217083428055047989e-04
6.800000000000000488e-03 -3.355054650455713272e-04
6.950000000000004785e-03 -4.131055902689695358e-05
7.100000000000002143e-03 2.605626359581947327e-04
7.250000000000006439e-03 5.697595188394188881e-04
7.400000000000003797e-03 8.858822984620928764e-04
7.550000000000001155e-03 1.208514557220041752e-03
7.700000000000005451e-03 1.537231146357953548e-03
7.850000000000002809e-03 1.871597254648804665e-03
8.000000000000000167e-03 2.211160026490688324e-03
8.150000000000004463e-03 2.555453451350331306e-03
8.300000000000001821e-03 2.903950400650501251e-03
8.450000000000006117e-03 3.256085095927119255e-03
8.600000000000003475e-03 3.611304331570863724e-03
8.750000000000000833e-03 3.969004843384027481e-03
8.900000000000005129e-03 4.328588489443063736e-03
9.050000000000002487e-03 4.689468536525964737e-03
9.200000000000006783e-03 5.051036830991506577e-03
9.350000000000004141e-03 5.412663798779249191e-03
9.500000000000001499e-03 5.773693788796663284e-03
9.650000000000005795e-03 6.133451126515865326e-03
9.800000000000003153e-03 6.491241045296192169e-03
9.950000000000000511e-03 6.846376694738864899e-03
1.010000000000000481e-02 7.198181934654712677e-03
1.025000000000000216e-02 7.545965723693370819e-03
1.040000000000000646e-02 7.889041677117347717e-03
1.055000000000000382e-02 8.226714096963405609e-03
1.070000000000000118e-02 8.558280766010284424e-03
1.085000000000000547e-02 8.883025497198104858e-03
1.100000000000000283e-02 9.200248867273330688e-03
1.115000000000000713e-02 9.509283117949962616e-03
1.130000000000000449e-02 9.809449315071105957e-03
1.145000000000000184e-02 1.010010950267314911e-02
1.160000000000000614e-02 1.038060337305068970e-02
1.175000000000000350e-02 1.065027900040149689e-02
1.190000000000000085e-02 1.090848259627819061e-02
1.205000000000000515e-02 1.115459948778152466e-02
1.220000000000000251e-02 1.138803828507661819e-02
1.235000000000000681e-02 1.160823833197355270e-02
1.250000000000000416e-02 1.181467156857252121e-02
1.265000000000000152e-02 1.200682856142520905e-02
1.280000000000000582e-02 1.218420080840587616e-02
1.295000000000000318e-02 1.234631799161434174e-02
1.310000000000000747e-02 1.249272096902132034e-02
1.325000000000000483e-02 1.262299157679080963e-02
1.340000000000000219e-02 1.273675728589296341e-02
1.355000000000000648e-02 1.283367443829774857e-02
1.370000000000000384e-02 1.291344966739416122e-02
1.385000000000000120e-02 1.297579798847436905e-02
1.400000000000000550e-02 1.302048005163669586e-02
1.415000000000000285e-02 1.304729375988245010e-02
1.430000000000000715e-02 1.305607333779335022e-02
1.445000000000000451e-02 1.304668001830577850e-02
1.460000000000000187e-02 1.301905140280723572e-02
1.475000000000000616e-02 1.297314185649156570e-02
1.490000000000000352e-02 1.290894299745559692e-02
1.505000000000000088e-02 1.282648183405399323e-02
1.520000000000000517e-02 1.272582076489925385e-02
1.535000000000000253e-02 1.260707527399063110e-02
1.550000000000000683e-02 1.247039902955293655e-02
1.565000000000000419e-02 1.231599412858486176e-02
1.580000000000000154e-02 1.214411109685897827e-02
1.595000000000000584e-02 1.195502467453479767e-02
1.610000000000000320e-02 1.174904871731996536e-02
1.625000000000000749e-02 1.152652502059936523e-02
1.640000000000000485e-02 1.128781586885452271e-02
1.655000000000000221e-02 1.103335712105035782e-02
1.670000000000000651e-02 1.076361071318387985e-02
1.685000000000000386e-02 1.047905441373586655e-02
1.700000000000000122e-02 1.018022280186414719e-02
1.715000000000000552e-02 9.867686778306961060e-03
1.730000000000000288e-02 9.542014449834823608e-03
1.745000000000000717e-02 9.203820489346981049e-03
1.760000000000000453e-02 8.853750303387641907e-03
1.775000000000000189e-02 8.492462337017059326e-03
1.790000000000000618e-02 8.120641112327575684e-03
1.805000000000000354e-02 7.738988846540451050e-03
1.820000000000000784e-02 7.348224520683288574e-03
1.835000000000000520e-02 6.949102506041526794e-03
1.850000000000000255e-02 6.542377639561891556e-03
1.865000000000000685e-02 6.128822453320026398e-03
1.880000000000000421e-02 5.709210410714149475e-03
1.895000000000000157e-02 5.284339655190706253e-03
1.910000000000000586e-02 4.855019971728324890e-03
1.925000000000000322e-02 4.422045312821865082e-03
1.940000000000000752e-02 3.986225929111242294e-03
1.955000000000000487e-02 3.548329463228583336e-03
1.970000000000000223e-02 3.109178971499204636e-03
1.985000000000000653e-02 2.669579116627573967e-03
2.000000000000000389e-02 2.230334794148802757e-03
2.015000000000000818e-02 1.792232505977153778e-03
2.030000000000000554e-02 1.356021501123905182e-03
2.045000000000000290e-02 9.224865352734923363e-04
2.060000000000000719e-02 4.923800588585436344e-04
2.075000000000000455e-02 6.641977233812212944e-05
2.090000000000000191e-02 -3.546502557583153248e-04
2.105000000000000621e-02 -7.701359572820365429e-04
2.120000000000000356e-02 -1.179355895146727562e-03
2.135000000000000786e-02 -1.581658143550157547e-03
2.150000000000000522e-02 -1.976412953808903694e-03
2.165000000000000258e-02 -2.363023348152637482e-03
2.180000000000000687e-02 -2.740909811109304428e-03
2.195000000000000423e-02 -3.109493292868137360e-03
2.210000000000000159e-02 -3.468236420303583145e-03
2.225000000000000588e-02 -3.816635813564062119e-03
2.240000000000000324e-02 -4.154221620410680771e-03
2.255000000000000754e-02 -4.480578936636447906e-03
2.270000000000000490e-02 -4.795293323695659637e-03
2.285000000000000225e-02 -5.098005756735801697e-03
2.299999999999999961e-02 -5.388363730162382126e-03
2.315000000000001085e-02 -5.666030105203390121e-03
2.330000000000000820e-02 -5.930753424763679504e-03
2.345000000000000556e-02 -6.182292941957712173e-03
2.360000000000000292e-02 -6.420417688786983490e-03
2.375000000000000028e-02 -6.644983310252428055e-03
2.390000000000001151e-02 -6.855807267129421234e-03
2.405000000000000887e-02 -7.052806671708822250e-03
2.420000000000000623e-02 -7.235879078507423401e-03
2.435000000000000359e-02 -7.404984440654516220e-03
2.450000000000000094e-02 -7.560116238892078400e-03
2.464999999999999830e-02 -7.701290305703878403e-03
2.480000000000000954e-02 -7.828572764992713928e-03
2.495000000000000689e-02 -7.942030206322669983e-03
2.510000000000000425e-02 -8.041771128773689270e-03
2.525000000000000161e-02 -8.127897977828979492e-03
2.539999999999999897e-02 -8.200564421713352203e-03
2.555000000000001020e-02 -8.259953930974006653e-03
2.570000000000000756e-02 -8.306282572448253632e-03
2.585000000000000492e-02 -8.339809253811836243e-03
2.600000000000000228e-02 -8.360791951417922974e-03
2.614999999999999963e-02 -8.369514718651771545e-03
2.630000000000001087e-02 -8.366252295672893524e-03
2.645000000000000823e-02 -8.351309224963188171e-03
2.660000000000000558e-02 -8.325004950165748596e-03
2.675000000000000294e-02 -8.287696167826652527e-03
2.690000000000000030e-02 -8.239760994911193848e-03
2.705000000000001154e-02 -8.181585930287837982e-03
2.720000000000000889e-02 -8.113558404147624969e-03
2.735000000000000625e-02 -8.036072365939617157e-03
2.750000000000000361e-02 -7.949525490403175354e-03
2.765000000000000097e-02 -7.854331284761428833e-03
2.780000000000001220e-02 -7.750920485705137253e-03
2.795000000000000956e-02 -7.639730349183082581e-03
2.810000000000000692e-02 -7.521196734160184860e-03
2.825000000000000427e-02 -7.395766675472259521e-03
2.840000000000000163e-02 -7.263870444148778915e-03
2.854999999999999899e-02 -7.125931791961193085e-03
2.870000000000001023e-02 -6.982378661632537842e-03
2.885000000000000758e-02 -6.833652965724468231e-03
2.900000000000000494e-02 -6.680196151137351990e-03
2.915000000000000230e-02 -6.522462237626314163e-03
2.929999999999999966e-02 -6.360880564898252487e-03
2.945000000000001089e-02 -6.195871159434318542e-03
2.960000000000000825e-02 -6.027831230312585831e-03
2.975000000000000561e-02 -5.857151001691818237e-03
2.990000000000000296e-02 -5.684218369424343109e-03
3.005000000000000032e-02 -5.509435199201107025e-03
3.020000000000001156e-02 -5.333196371793746948e-03
3.035000000000000892e-02 -5.155883263796567917e-03
3.050000000000000627e-02 -4.977854900062084198e-03
3.065000000000000363e-02 -4.799446556717157364e-03
3.080000000000000099e-02 -4.620977677404880524e-03
3.095000000000001222e-02 -4.442764446139335632e-03
3.110000000000000958e-02 -4.265120718628168106e-03
3.125000000000000694e-02 -4.088360816240310669e-03
3.140000000000000430e-02 -3.912784159183502197e-03
3.155000000000000165e-02 -3.738657105714082718e-03
3.169999999999999901e-02 -3.566223662346601486e-03
3.185000000000001025e-02 -3.395712934434413910e-03
3.200000000000000761e-02 -3.227340523153543472e-03
3.215000000000000496e-02 -3.061328548938035965e-03
3.230000000000000232e-02 -2.897899132221937180e-03
3.244999999999999968e-02 -2.737252274528145790e-03
3.260000000000001091e-02 -2.579570747911930084e-03
3.275000000000000827e-02 -2.425003563985228539e-03
3.290000000000000563e-02 -2.273679710924625397e-03
3.305000000000000299e-02 -2.125712111592292786e-03
3.320000000000000034e-02 -1.981222070753574371e-03
3.335000000000001158e-02 -1.840326702222228050e-03
3.350000000000000894e-02 -1.703135552816092968e-03
3.365000000000000629e-02 -1.569747342728078365e-03
3.380000000000000365e-02 -1.440231688320636749e-03
3.395000000000000101e-02 -1.314637134782969952e-03
3.410000000000001225e-02 -1.192990806885063648e-03
3.425000000000000960e-02 -1.075320411473512650e-03
3.440000000000000696e-02 -9.616622701287269592e-04
3.455000000000000432e-02 -8.520492701791226864e-04
3.470000000000000168e-02 -7.465034723281860352e-04
3.485000000000001291e-02 -6.450215587392449379e-04
3.500000000000001027e-02 -5.475768120959401131e-04
3.515000000000000763e-02 -4.541322123259305954e-04
3.530000000000000498e-02 -3.646527766250073910e-04
3.545000000000000234e-02 -2.791096339933574200e-04
3.559999999999999970e-02 -1.974826591322198510e-04
3.575000000000001094e-02 -1.197443052660673857e-04
3.590000000000000829e-02 -4.584308408084325492e-05
3.605000000000000565e-02 2.429615415167063475e-05
3.620000000000000301e-02 9.075988782569766045e-05
3.635000000000000037e-02 1.536338095320388675e-04
3.650000000000001160e-02 2.129912900272756815e-04
3.665000000000000896e-02 2.688904351089149714e-04
3.680000000000000632e-02 3.213942691218107939e-04
3.695000000000000367e-02 3.705699346028268337e-04
3.710000000000000103e-02 4.165122518315911293e-04
3.725000000000001227e-02 4.593307676259428263e-04
3.740000000000000963e-02 4.991319729015231133e-04
3.755000000000000698e-02 5.360199720598757267e-04
3.770000000000000434e-02 5.700782639905810356e-04
3.785000000000000170e-02 6.013851962052285671e-04
3.800000000000001293e-02 6.300220848061144352e-04
3.815000000000001029e-02 6.560839829035103321e-04
3.830000000000000765e-02 6.796807865612208843e-04
3.845000000000000501e-02 7.009299006313085556e-04
3.860000000000000236e-02 7.199370302259922028e-04
3.874999999999999972e-02 7.367891957983374596e-04
3.890000000000001096e-02 7.515667239204049110e-04
3.905000000000000832e-02 7.643455173820257187e-04
3.920000000000000567e-02 7.752139936201274395e-04
3.935000000000000303e-02 7.842761697247624397e-04
3.950000000000000039e-02 7.916437461972236633e-04
3.965000000000001162e-02 7.974220206961035728e-04
3.980000000000000898e-02 8.016956853680312634e-04
3.995000000000000634e-02 8.045307477004826069e-04
4.010000000000000370e-02 8.059884421527385712e-04
4.025000000000000105e-02 8.061401313170790672e-04
4.040000000000001229e-02 8.050701580941677094e-04
4.055000000000000965e-02 8.028740412555634975e-04
4.070000000000000701e-02 7.996489293873310089e-04
4.085000000000000436e-02 7.954708999022841454e-04
4.100000000000000172e-02 7.903983350843191147e-04
4.115000000000001296e-02 7.844779174774885178e-04
4.130000000000001031e-02 7.777612190693616867e-04
4.145000000000000767e-02 7.703123264946043491e-04
4.160000000000000503e-02 7.622043485753238201e-04
4.175000000000000239e-02 7.535094046033918858e-04
4.190000000000001362e-02 7.442903006449341774e-04
4.205000000000001098e-02 7.345930207520723343e-04
4.220000000000000834e-02 7.244522566907107830e-04
4.235000000000000570e-02 7.139054359868168831e-04
4.250000000000000305e-02 7.029974949546158314e-04
4.265000000000000041e-02 6.917832652106881142e-04
4.280000000000001165e-02 6.803176365792751312e-04
4.295000000000000900e-02 6.686499691568315029e-04
4.310000000000000636e-02 6.568123353645205498e-04
4.325000000000000372e-02 6.448221392929553986e-04
4.340000000000000108e-02 6.326973089016973972e-04
4.355000000000001231e-02 6.204600795172154903e-04
4.370000000000000967e-02 6.081472383812069893e-04
4.385000000000000703e-02 5.958048859611153603e-04
4.400000000000000439e-02 5.834749899804592133e-04
4.415000000000000174e-02 5.711833364330232143e-04
4.430000000000001298e-02 5.589398788288235664e-04
4.445000000000001034e-02 5.467451992444694042e-04
4.460000000000000769e-02 5.346044199541211128e-04
4.475000000000000505e-02 5.225384375080466270e-04
4.490000000000000241e-02 5.105761811137199402e-04
4.505000000000001364e-02 4.987479187548160553e-04
4.520000000000001100e-02 4.870712291449308395e-04
4.535000000000000836e-02 4.755481786560267210e-04
4.550000000000000572e-02 4.641755949705839157e-04
4.565000000000000308e-02 4.529538273345679045e-04
4.580000000000000043e-02 4.418932367116212845e-04
4.595000000000001167e-02 4.310128861106932163e-04
4.610000000000000903e-02 4.203306452836841345e-04
4.625000000000000638e-02 4.098560602869838476e-04
4.640000000000000374e-02 3.995870065409690142e-04
4.655000000000000110e-02 3.895137924700975418e-04
4.670000000000001233e-02 3.796285891439765692e-04
4.685000000000000969e-02 3.699330554809421301e-04
4.700000000000000705e-02 3.604396479204297066e-04
4.715000000000000441e-02 3.511626564431935549e-04
4.730000000000000177e-02 3.421132569201290607e-04
4.745000000000001300e-02 3.332886844873428345e-04
4.760000000000001036e-02 3.246769483666867018e-04
4.775000000000000772e-02 3.162641660310328007e-04
4.790000000000000507e-02 3.080394817516207695e-04
4.805000000000000243e-02 3.000072902068495750e-04