-4.000000000000000083e-02 0.000000000000000000e+00
-3.985000000000000347e-02 0.000000000000000000e+00
-3.969999999999999918e-02 0.000000000000000000e+00
-3.955000000000000182e-02 0.000000000000000000e+00
-3.939999999999999752e-02 0.000000000000000000e+00
-3.925000000000000017e-02 0.000000000000000000e+00
-3.910000000000000281e-02 0.000000000000000000e+00
-3.894999999999999851e-02 0.000000000000000000e+00
-3.880000000000000115e-02 0.000000000000000000e+00
-3.865000000000000380e-02 0.000000000000000000e+00
-3.849999999999999950e-02 0.000000000000000000e+00
-3.835000000000000214e-02 0.000000000000000000e+00
-3.819999999999999785e-02 0.000000000000000000e+00
-3.805000000000000049e-02 0.000000000000000000e+00
-3.790000000000000313e-02 0.000000000000000000e+00
-3.774999999999999883e-02 0.000000000000000000e+00
-3.760000000000000148e-02 0.000000000000000000e+00
-3.744999999999999718e-02 0.000000000000000000e+00
-3.729999999999999982e-02 0.000000000000000000e+00
-3.715000000000000246e-02 0.000000000000000000e+00
-3.699999999999999817e-02 0.000000000000000000e+00
-3.685000000000000081e-02 0.000000000000000000e+00
-3.670000000000000345e-02 0.000000000000000000e+00
-3.654999999999999916e-02 0.000000000000000000e+00
-3.640000000000000180e-02 0.000000000000000000e+00
-3.624999999999999750e-02 0.000000000000000000e+00
-3.610000000000000014e-02 0.000000000000000000e+00
-3.595000000000000279e-02 0.000000000000000000e+00
-3.579999999999999849e-02 0.000000000000000000e+00
-3.565000000000000113e-02 0.000000000000000000e+00
-3.550000000000000377e-02 0.000000000000000000e+00
-3.534999999999999948e-02 0.000000000000000000e+00
-3.520000000000000212e-02 0.000000000000000000e+00
-3.504999999999999782e-02 0.000000000000000000e+00
-3.490000000000000047e-02 0.000000000000000000e+00
-3.475000000000000311e-02 0.000000000000000000e+00
-3.459999999999999881e-02 0.000000000000000000e+00
-3.445000000000000145e-02 0.000000000000000000e+00
-3.429999999999999716e-02 0.000000000000000000e+00
-3.414999999999999980e-02 0.000000000000000000e+00
-3.400000000000000244e-02 0.000000000000000000e+00
-3.384999999999999815e-02 0.000000000000000000e+00
-3.370000000000000079e-02 0.000000000000000000e+00
-3.354999999999999649e-02 0.000000000000000000e+00
-3.339999999999999913e-02 0.000000000000000000e+00
-3.325000000000000178e-02 0.000000000000000000e+00
-3.309999999999999748e-02 0.000000000000000000e+00
-3.295000000000000012e-02 0.000000000000000000e+00
-3.280000000000000276e-02 0.000000000000000000e+00
-3.264999999999999847e-02 0.000000000000000000e+00
-3.250000000000000111e-02 0.000000000000000000e+00
-3.235000000000000375e-02 0.000000000000000000e+00
-3.219999999999999946e-02 0.000000000000000000e+00
-3.205000000000000210e-02 -0.000000000000000000e+00
-3.189999999999999780e-02 -0.000000000000000000e+00
-3.175000000000000044e-02 0.000000000000000000e+00
-3.160000000000000309e-02 -0.000000000000000000e+00
-3.144999999999999879e-02 -1.681558157189780485e-44
-3.130000000000000143e-02 7.567011707354012183e-44
-3.115000000000000061e-02 1.021546580492791645e-42
-3.099999999999999978e-02 -1.295360300421860900e-41
-3.085000000000000242e-02 -4.472944698124816090e-42
-3.069999999999999812e-02 9.648542485216025205e-40
-3.055000000000000077e-02 -4.241518855443108226e-39
-3.039999999999999994e-02 -4.276497226930505715e-38
-3.024999999999999911e-02 4.079318390041694931e-37
-3.010000000000000175e-02 9.881163074968416408e-37
-2.994999999999999746e-02 -2.362104240510797877e-35
-2.980000000000000010e-02 1.202058342057837453e-35
-2.964999999999999927e-02 1.024790740423589244e-33
-2.949999999999999845e-02 -2.339928585500283502e-33
-2.935000000000000109e-02 -3.647021475809644646e-32
-2.920000000000000026e-02 1.281493143314466297e-31
-2.904999999999999943e-02 1.133417765633473891e-30
-2.890000000000000208e-02 -4.810486252378526668e-30
-2.874999999999999778e-02 -3.231990910229933153e-29
-2.860000000000000042e-02 1.397342943339982351e-28
-2.844999999999999959e-02 8.691808505867092830e-28
-2.829999999999999877e-02 -3.193831834314556923e-27
-2.815000000000000141e-02 -2.189271744221431221e-26
-2.800000000000000058e-02 5.416042873930639702e-26
-2.784999999999999976e-02 4.966084009163561015e-25
-2.769999999999999893e-02 -5.090146191575406489e-25
-2.754999999999999810e-02 -9.551675357405287269e-24
-2.740000000000000074e-02 -4.697608314884138946e-24
-2.724999999999999992e-02 1.430519229568079290e-22
-2.709999999999999909e-02 3.090756016913965571e-22
-2.695000000000000173e-02 -1.402102440278101079e-21
-2.679999999999999744e-02 -6.670590043090403008e-21
-2.665000000000000008e-02 2.920291682371706823e-21
-2.649999999999999925e-02 8.000832096615561795e-20
-2.634999999999999842e-02 1.532120086442056786e-19
-2.620000000000000107e-02 -3.893185782069176269e-19
-2.605000000000000024e-02 -2.305288260687815270e-18
-2.589999999999999941e-02 -2.866649213518099045e-18
-2.575000000000000205e-02 9.137181802867940476e-18
-2.559999999999999776e-02 4.445972707997375862e-17
-2.545000000000000040e-02 7.265505176157056291e-17
-2.529999999999999957e-02 -2.583042027339137349e-17
-2.514999999999999875e-02 -4.331353268366108008e-16
-2.500000000000000139e-02 -1.262337012941346440e-15
-2.484999999999999709e-02 -2.461321467142228367e-15
-2.469999999999999973e-02 -3.916913705680853328e-15
-2.454999999999999891e-02 -5.638460313613698899e-15
-2.439999999999999808e-02 -7.730825663876741971e-15
-2.425000000000000072e-02 -1.021417379929584479e-14
-2.409999999999999989e-02 -1.303851198829111130e-14
-2.394999999999999907e-02 -1.624931234760294135e-14
-2.379999999999999824e-02 -1.994372447408371968e-14
-2.365000000000000088e-02 -2.412620884323368742e-14
-2.350000000000000006e-02 -2.879828672622611330e-14
-2.334999999999999923e-02 -3.405750074320090803e-14
-2.319999999999999840e-02 -3.996721234674448231e-14
-2.304999999999999757e-02 -4.653320507782068849e-14
-2.290000000000000022e-02 -5.384027371071326007e-14
-2.274999999999999939e-02 -6.198906947647853105e-14
-2.259999999999999856e-02 -7.101177962711216485e-14
-2.244999999999999774e-02 -8.099310068107601346e-14
-2.230000000000000038e-02 -9.205896949696784626e-14
-2.214999999999999955e-02 -1.042729406508860479e-13
-2.199999999999999872e-02 -1.177346523224820363e-13
-2.184999999999999790e-02 -1.325943071702265219e-13
-2.170000000000000054e-02 -1.489490768138285182e-13
-2.154999999999999971e-02 -1.669265311914081007e-13
-2.139999999999999888e-02 -1.867061464200930887e-13
-2.124999999999999806e-02 -2.084217266004953495e-13
-2.110000000000000070e-02 -2.322413095168229802e-13
-2.094999999999999987e-02 -2.583797704871354517e-13
-2.079999999999999905e-02 -2.870134685473146874e-13
-2.064999999999999822e-02 -3.183629575242985510e-13
-2.049999999999999739e-02 -3.526872533170938295e-13
-2.035000000000000003e-02 -3.902150412689320280e-13
-2.019999999999999921e-02 -4.312317647067742676e-13
-2.004999999999999838e-02 -4.760505683230886742e-13
-1.989999999999999755e-02 -5.249688487737880216e-13
-1.975000000000000019e-02 -5.783516569303481791e-13
-1.959999999999999937e-02 -6.365778130318355821e-13
-1.944999999999999854e-02 -7.000297693945944921e-13
-1.929999999999999771e-02 -7.691660893274776534e-13
-1.915000000000000036e-02 -8.444491850570501335e-13
-1.899999999999999953e-02 -9.263716096302720970e-13
-1.884999999999999870e-02 -1.015495955554446272e-12
-1.869999999999999787e-02 -1.112390019507303318e-12
-1.855000000000000052e-02 -1.217684156631926307e-12
-1.839999999999999969e-02 -1.332063474281108828e-12
-1.824999999999999886e-02 -1.456231836505228472e-12
-1.809999999999999803e-02 -1.590973446735644004e-12
-1.794999999999999721e-02 -1.737131597422114648e-12
-1.779999999999999985e-02 -1.895574842925018544e-12
-1.764999999999999902e-02 -2.067291867205445222e-12
-1.749999999999999820e-02 -2.253278509958822617e-12
-1.734999999999999737e-02 -2.454636320592396004e-12
-1.720000000000000001e-02 -2.672535803771580731e-12
-1.704999999999999918e-02 -2.908230297207770043e-12
-1.689999999999999836e-02 -3.163077655701784785e-12
-1.674999999999999753e-02 -3.438459152821371489e-12
-1.660000000000000017e-02 -3.735985912994843616e-12
-1.644999999999999934e-02 -4.057141341634595832e-12
-1.629999999999999852e-02 -4.403892615162385837e-12
-1.614999999999999769e-02 -4.777732029448422679e-12
-1.600000000000000033e-02 -5.181124626552069401e-12
-1.584999999999999951e-02 -5.615560100258321086e-12
-1.569999999999999868e-02 -6.083958857538984688e-12
-1.554999999999999785e-02 -6.587979294037094036e-12
-1.539999999999999702e-02 -7.130819806161481367e-12
-1.524999999999999967e-02 -7.714637088873654847e-12
-1.509999999999999884e-02 -8.342489025980892592e-12
-1.494999999999999801e-02 -9.017688505641441310e-12
-1.479999999999999719e-02 -9.742521893396638433e-12
-1.464999999999999983e-02 -1.052210922558582951e-11
-1.449999999999999900e-02 -1.135736730356606827e-11
-1.434999999999999817e-02 -1.225574502994319914e-11
-1.419999999999999735e-02 -1.321673326337702292e-11
-1.404999999999999999e-02 -1.424991548371057348e-11
-1.389999999999999916e-02 -1.535405656782895534e-11
-1.374999999999999833e-02 -1.653976781923471862e-11
-1.359999999999999751e-02 -1.780655484173720993e-11
-1.344999999999999668e-02 -1.916447035787971487e-11
-1.329999999999999932e-02 -2.061552317744741458e-11
-1.314999999999999850e-02 -2.216790292997039558e-11
-1.299999999999999767e-02 -2.382689878732691113e-11
-1.284999999999999684e-02 -2.559875575403047776e-11
-1.269999999999999948e-02 -2.749159407067214289e-11
-1.254999999999999866e-02 -2.951110883442353838e-11
-1.239999999999999783e-02 -3.166633621987102742e-11
-1.224999999999999700e-02 -3.396441808356520653e-11
-1.209999999999999964e-02 -3.641384069275055424e-11
-1.194999999999999882e-02 -3.902437401004377193e-11
-1.179999999999999799e-02 -4.180330734349091415e-11
-1.164999999999999716e-02 -4.476298845479398381e-11
-1.149999999999999981e-02 -4.791084889932406554e-11
-1.134999999999999898e-02 -5.125978808084852290e-11
-1.119999999999999815e-02 -5.481925677286447751e-11
-1.104999999999999732e-02 -5.860199131513255111e-11
-1.089999999999999650e-02 -6.261977741894853011e-11
-1.074999999999999914e-02 -6.688515713504372684e-11
-1.059999999999999831e-02 -7.141133517851727674e-11
-1.044999999999999749e-02 -7.621276526537101859e-11
-1.029999999999999666e-02 -8.130227741043327683e-11
-1.014999999999999930e-02 -8.669755191537120709e-11
-9.999999999999998473e-03 -9.241061388332028059e-11
-9.849999999999997646e-03 -9.846166937332867519e-11
-9.699999999999996819e-03 -1.048633679889832138e-10
-9.549999999999999462e-03 -1.116371370346591618e-10
-9.399999999999998634e-03 -1.187978604377804004e-10
-9.249999999999997807e-03 -1.263670001971917145e-10
-9.099999999999996980e-03 -1.343620631422126621e-10
-8.949999999999999623e-03 -1.428052398555479385e-10
-8.799999999999998795e-03 -1.517150988172843995e-10
-8.649999999999997968e-03 -1.611158151337832578e-10
-8.500000000000000611e-03 -1.710269148524901084e-10
-8.349999999999996314e-03 -1.814749600592691081e-10
-8.199999999999998956e-03 -1.924797959906854317e-10
-8.049999999999994660e-03 -2.040695668004133267e-10
-7.899999999999997302e-03 -2.162669626715185700e-10
-7.749999999999999944e-03 -2.290993089681947481e-10
-7.599999999999995648e-03 -2.425934730876377898e-10
-7.449999999999998290e-03 -2.567761003824386989e-10
-7.300000000000000933e-03 -2.716764035959329249e-10
-7.149999999999996636e-03 -2.873225268817947153e-10
-6.999999999999999278e-03 -3.037452511733818028e-10
-6.849999999999994982e-03 -3.209737198250905976e-10
-6.699999999999997624e-03 -3.390400460379083825e-10
-6.550000000000000266e-03 -3.579750385007685054e-10
-6.399999999999995970e-03 -3.778136414833710433e-10
-6.249999999999998612e-03 -3.985854701848978721e-10
-6.099999999999994316e-03 -4.203276615655227033e-10
-5.949999999999996958e-03 -4.430716626924180446e-10
-5.799999999999999600e-03 -4.668558317710846950e-10
-5.649999999999995304e-03 -4.917127260917197873e-10
-5.499999999999997946e-03 -5.176806205930972737e-10
-5.350000000000000588e-03 -5.447944873004928468e-10
-5.199999999999996292e-03 -5.730918517521388367e-10
-5.049999999999998934e-03 -6.026116827761995864e-10
-4.899999999999994638e-03 -6.333908397770926513e-10
-4.749999999999997280e-03 -6.654670703376552865e-10
-4.599999999999999922e-03 -6.988787326633882913e-10
-4.449999999999995626e-03 -7.336651841605146274e-10
-4.299999999999998268e-03 -7.698646720122326315e-10
-4.150000000000000910e-03 -8.075188850931169782e-10
-3.999999999999996614e-03 -8.466627399172921287e-10
-3.849999999999999256e-03 -8.873395906938696953e-10
-3.699999999999994960e-03 -9.295854641599987644e-10
-3.549999999999997602e-03 -9.734415495898929294e-10
-3.400000000000000244e-03 -1.018944040254154970e-09
-3.249999999999995948e-03 -1.066134180938149711e-09
-3.099999999999998590e-03 -1.115050052291621796e-09
-2.949999999999994293e-03 -1.165725405094519829e-09
-2.799999999999996936e-03 -1.218198431018890915e-09
-2.649999999999999578e-03 -1.272507654803689547e-09
-2.499999999999995282e-03 -1.328689602786425894e-09
-2.349999999999997924e-03 -1.386776804501721472e-09
-2.200000000000000566e-03 -1.446804342997154436e-09
-2.049999999999996270e-03 -1.508805191896556153e-09
-1.899999999999998912e-03 -1.572812768912967840e-09
-1.749999999999994615e-03 -1.638853275309770652e-09
-1.599999999999997258e-03 -1.706961905156845205e-09
-1.449999999999999900e-03 -1.777164082561455416e-09
-1.299999999999995604e-03 -1.849486563898494751e-09
-1.149999999999998246e-03 -1.923953885096807426e-09
-9.999999999999939493e-04 -2.000590360040632731e-09
-8.499999999999965916e-04 -2.079416638878228696e-09
-6.999999999999992339e-04 -2.160451595401013947e-09
-5.499999999999949374e-04 -2.243714991578826812e-09
-3.999999999999975797e-04 -2.329219928043357868e-09
-2.500000000000002220e-04 -2.416980171560112467e-09
-9.999999999999592548e-05 -2.507006380270127011e-09
5.000000000000143219e-05 -2.599302773020895074e-09
2.000000000000057288e-04 -2.693875567061354559e-09
3.500000000000030864e-04 -2.790732978041887691e-09
5.000000000000004441e-04 -2.889869010758161494e-09
6.500000000000047407e-04 -2.991279002273472543e-09
8.000000000000020983e-04 -3.094959843963351886e-09
9.500000000000063949e-04 -3.200906428801886250e-09
1.100000000000003753e-03 -3.309102991622125955e-09
1.250000000000001110e-03 -3.419528216141998200e-09
1.400000000000005407e-03 -3.532168113551392707e-09
1.550000000000002764e-03 -3.647000701434421899e-09
1.700000000000000122e-03 -3.763995781724815970e-09
1.850000000000004419e-03 -3.883120935910255866e-09
2.000000000000001776e-03 -4.004348852504335809e-09
2.150000000000006073e-03 -4.127640007567379143e-09
2.300000000000003431e-03 -4.252951768535240262e-09
2.450000000000000788e-03 -4.380241058754563710e-09
2.600000000000005085e-03 -4.509456807966216729e-09
2.750000000000002442e-03 -4.640548390000276413e-09
2.899999999999999800e-03 -4.773458517348672103e-09
3.050000000000004097e-03 -4.908119244362296740e-09
3.200000000000001454e-03 -5.044466178105722065e-09
3.350000000000005751e-03 -5.182445583784556220e-09
3.500000000000003109e-03 -5.321966867199989792e-09
3.650000000000000466e-03 -5.462953200918718721e-09
3.800000000000004763e-03 -5.605335307024006397e-09
3.950000000000002121e-03 -5.749023923584672957e-09
4.100000000000006417e-03 -5.893916910082452887e-09
4.250000000000003775e-03 -6.039939215440881526e-09
4.400000000000001132e-03 -6.186984702338804709e-09
4.550000000000005429e-03 -6.334955671150055423e-09
4.700000000000002787e-03 -6.483743764107430252e-09
4.850000000000000144e-03 -6.633237514819256830e-09
5.000000000000004441e-03 -6.783333894588849944e-09
5.150000000000001799e-03 -6.933920104756907676e-09
5.300000000000006095e-03 -7.084869579898622760e-09
5.450000000000003453e-03 -7.236063304105755378e-09
5.600000000000000810e-03 -7.387386258272954365e-09
5.750000000000005107e-03 -7.538700330655956350e-09
5.900000000000002465e-03 -7.689878067651534366e-09
6.050000000000006761e-03 -7.840785798407523544e-09
6.200000000000004119e-03 -7.991294737053067365e-09
6.350000000000001477e-03 -8.141266327754692611e-09
6.500000000000005773e-03 -8.290558461965247261e-09
6.650000000000003131e-03 -8.439024590245480795e-09
6.800000000000000488e-03 -8.586534150367697293e-09
6.950000000000004785e-03 -8.732943257427905337e-09
7.100000000000002143e-03 -8.878100921094755904e-09
7.250000000000006439e-03 -9.021855262858480273e-09
7.400000000000003797e-03 -9.164075720491382526e-09
7.550000000000001155e-03 -9.304596204628978739e-09
7.700000000000005451e-03 -9.443278159437795694e-09
7.850000000000002809e-03 -9.579973259121743467e-09
8.000000000000000167e-03 -9.714529625171053340e-09
8.150000000000004463e-03 -9.846814919001189992e-09
8.300000000000001821e-03 -9.976668380318187701e-09
8.450000000000006117e-03 -1.010394790057489445e-08
8.600000000000003475e-03 -1.022851137122415821e-08
8.750000000000000833e-03 -1.035020602557779057e-08
8.900000000000005129e-03 -1.046888531419654100e-08
9.050000000000002487e-03 -1.058443199752900910e-08
9.200000000000006783e-03 -1.069669952613594432e-08
9.350000000000004141e-03 -1.080555023236229317e-08
9.500000000000001499e-03 -1.091085888305087792e-08
9.650000000000005795e-03 -1.101246649426457225e-08
9.800000000000003153e-03 -1.111028513633982584e-08
9.950000000000000511e-03 -1.120416825983738818e-08
1.010000000000000481e-02 -1.129400484245479674e-08
1.025000000000000216e-02 -1.137967231557013292e-08
1.040000000000000646e-02 -1.146107386773564940e-08
1.055000000000000382e-02 -1.153806650222577446e-08
1.070000000000000118e-02 -1.161059692833532608e-08
1.085000000000000547e-02 -1.167850172123507946e-08
1.100000000000000283e-02 -1.174172936657669197e-08
1.115000000000000713e-02 -1.180019459923187242e-08
1.130000000000000449e-02 -1.185378728507657797e-08
1.145000000000000184e-02 -1.190243015258829473e-08
1.160000000000000614e-02 -1.194606102927764368e-08
1.175000000000000350e-02 -1.198460264362211092e-08
1.190000000000000085e-02 -1.201798305316970072e-08
1.205000000000000515e-02 -1.204615340810732960e-08
1.220000000000000251e-02 -1.206906308226507463e-08
1.235000000000000681e-02 -1.208664812679671741e-08
1.250000000000000416e-02 -1.209887567910072903e-08
1.265000000000000152e-02 -1.210570488296980329e-08
1.280000000000000582e-02 -1.210711353394344769e-08
1.295000000000000318e-02 -1.210305899945751662e-08
1.310000000000000747e-02 -1.209352973319255398e-08
1.325000000000000483e-02 -1.207850619522332636e-08
1.340000000000000219e-02 -1.205799371462035197e-08
1.355000000000000648e-02 -1.203195765242526249e-08
1.370000000000000384e-02 -1.200042909488274745e-08
1.385000000000000120e-02 -1.196337873210495673e-08
1.400000000000000550e-02 -1.192086784840284963e-08
1.415000000000000285e-02 -1.187287335113751396e-08
1.430000000000000715e-02 -1.181943520833783623e-08
1.445000000000000451e-02 -1.176056230178801343e-08
1.460000000000000187e-02 -1.169629726405219117e-08
1.475000000000000616e-02 -1.162666674048296045e-08
1.490000000000000352e-02 -1.155172135725024418e-08
1.505000000000000088e-02 -1.147150463509660767e-08
1.520000000000000517e-02 -1.138608229922510873e-08
1.535000000000000253e-02 -1.129547566591782015e-08
1.550000000000000683e-02 -1.119975578944831796e-08
1.565000000000000419e-02 -1.109896263784548864e-08
1.580000000000000154e-02 -1.099316637720448853e-08
1.595000000000000584e-02 -1.088241852187366021e-08
1.610000000000000320e-02 -1.076680167244603581e-08
1.625000000000000749e-02 -1.064637356051889583e-08
1.640000000000000485e-02 -1.052122744482630878e-08
1.655000000000000221e-02 -1.039141572789503698e-08
1.670000000000000651e-02 -1.025702101031811253e-08
1.685000000000000386e-02 -1.011810812912017354e-08
1.700000000000000122e-02 -9.974765902143190033e-09
1.715000000000000552e-02 -9.827062719125478907e-09
1.730000000000000288e-02 -9.675082068838491978e-09
1.745000000000000717e-02 -9.518930532692593260e-09
1.760000000000000453e-02 -9.358648966895088961e-09
1.775000000000000189e-02 -9.194329742001627892e-09
1.790000000000000618e-02 -9.026067893103117967e-09
1.805000000000000354e-02 -8.853933586294715496e-09
1.820000000000000784e-02 -8.677996987671576790e-09
1.835000000000000520e-02 -8.498370895893003762e-09
1.850000000000000255e-02 -8.315089949917364720e-09
1.865000000000000685e-02 -8.128250073013987276e-09
1.880000000000000421e-02 -7.937932089419064141e-09
1.895000000000000157e-02 -7.744221264260886528e-09
1.910000000000000586e-02 -7.547162006460439443e-09
1.925000000000000322e-02 -7.346824482112879195e-09
1.940000000000000752e-02 -7.143324154412766802e-09
1.955000000000000487e-02 -6.936699659121359218e-09
1.970000000000000223e-02 -6.727017609620133953e-09
1.985000000000000653e-02 -6.514341954755309416e-09
2.000000000000000389e-02 -6.298744192889671467e-09
2.015000000000000818e-02 -6.080305148259412817e-09
2.030000000000000554e-02 -5.859058571644482072e-09
2.045000000000000290e-02 -5.635057753750061238e-09
2.060000000000000719e-02 -5.408376857474195276e-09
2.075000000000000455e-02 -5.179076278949423795e-09
2.090000000000000191e-02 -4.947179110814658998e-09
2.105000000000000621e-02 -4.712748413737699593e-09
2.120000000000000356e-02 -4.475849912921603391e-09
2.135000000000000786e-02 -4.236547557212588799e-09
2.150000000000000522e-02 -3.994870212409296073e-09
2.165000000000000258e-02 -3.750865840146389019e-09
2.180000000000000687e-02 -3.504565748713162066e-09
2.195000000000000423e-02 -3.256017677699674095e-09
2.210000000000000159e-02 -3.005284687773723817e-09
2.225000000000000588e-02 -2.752392092020272685e-09
2.240000000000000324e-02 -2.497398954304230756e-09
2.255000000000000754e-02 -2.240357899196965263e-09
2.270000000000000490e-02 -1.981257158334415180e-09
2.285000000000000225e-02 -1.720195874632679534e-09
2.299999999999999961e-02 -1.457216902700508854e-09
2.315000000000001085e-02 -1.192327681032168130e-09
2.330000000000000820e-02 -9.255942678976225579e-10
2.345000000000000556e-02 -6.570717858700447778e-10
2.360000000000000292e-02 -3.868257936190389046e-10
2.375000000000000028e-02 -1.148736522571525143e-10
2.390000000000001151e-02 1.586947656617709868e-10
2.405000000000000887e-02 4.338592540786834206e-10
2.420000000000000623e-02 7.105479538083159241e-10
2.435000000000000359e-02 9.886946816806130300e-10
2.450000000000000094e-02 1.268206761828594153e-09
2.464999999999999830e-02 1.549071759754383493e-09
2.480000000000000954e-02 1.831175100441839732e-09
2.495000000000000689e-02 2.114475705639051739e-09
2.510000000000000425e-02 2.398848231166539335e-09
2.525000000000000161e-02 2.684242605965891926e-09
2.539999999999999897e-02 2.970567791749090247e-09
2.555000000000001020e-02 3.257733860451139662e-09
2.570000000000000756e-02 3.545616467093282154e-09
2.585000000000000492e-02 3.834115247514091607e-09
2.600000000000000228e-02 4.123132946176610858e-09
2.614999999999999963e-02 4.412564535982710368e-09
2.630000000000001087e-02 4.702254141619732764e-09
2.645000000000000823e-02 4.992111168888868633e-09
2.660000000000000558e-02 5.281982407012719705e-09
2.675000000000000294e-02 5.571722194730455158e-09
2.690000000000000030e-02 5.861214624758304126e-09
2.705000000000001154e-02 6.150258968773414381e-09
2.720000000000000889e-02 6.438721555923621054e-09
2.735000000000000625e-02 6.726457613126513024e-09
2.750000000000000361e-02 7.013269076594497164e-09
2.765000000000000097e-02 7.299000515104125952e-09
2.780000000000001220e-02 7.583483174755656364e-09
2.795000000000000956e-02 7.866455042915276863e-09
2.810000000000000692e-02 8.147811314529462834e-09
2.825000000000000427e-02 8.427291753321242140e-09
2.840000000000000163e-02 8.704722276320353558e-09
2.854999999999999899e-02 8.979895937955006957e-09
2.870000000000001023e-02 9.252558719197168102e-09
2.885000000000000758e-02 9.522533872541316669e-09
2.900000000000000494e-02 9.789575372565195721e-09
2.915000000000000230e-02 1.005344252291706653e-08
2.929999999999999966e-02 1.031390262085096765e-08
2.945000000000001089e-02 1.057073362176197406e-08
2.960000000000000825e-02 1.082366019033997873e-08
2.975000000000000561e-02 1.107247538101319151e-08
2.990000000000000296e-02 1.131687987765417347e-08
3.005000000000000032e-02 1.155669160368688608e-08
3.020000000000001156e-02 1.179159614395075550e-08
3.035000000000000892e-02 1.202139987555028711e-08
3.050000000000000627e-02 1.224579371239542525e-08
3.065000000000000363e-02 1.246454672809704789e-08
3.080000000000000099e-02 1.267735960652771610e-08
3.095000000000001222e-02 1.288402096122354124e-08
3.110000000000000958e-02 1.308426345048019357e-08
3.125000000000000694e-02 1.327783394344805856e-08
3.140000000000000430e-02 1.346448463834803988e-08
3.155000000000000165e-02 1.364392510083689558e-08
3.169999999999999901e-02 1.381594039173705823e-08
3.185000000000001025e-02 1.398029425558888761e-08
3.200000000000000761e-02 1.413671135708227666e-08
3.215000000000000496e-02 1.428499540878647167e-08
3.230000000000000232e-02 1.442487640446188379e-08
3.244999999999999968e-02 1.455617404388931391e-08
3.260000000000001091e-02 1.467865295978754148e-08
3.275000000000000827e-02 1.479207600851850657e-08
3.290000000000000563e-02 1.489627443618246616e-08
3.305000000000000299e-02 1.499101820456871792e-08
3.320000000000000034e-02 1.507613056617174152e-08
3.335000000000001158e-02 1.515144631980547274e-08
3.350000000000000894e-02 1.521675407900602295e-08
3.365000000000000629e-02 1.527195792050406453e-08
3.380000000000000365e-02 1.531687487954513927e-08
3.395000000000000101e-02 1.535138416386416793e-08
3.410000000000001225e-02 1.537529570327933470e-08
3.425000000000000960e-02 1.538858462879488798e-08
3.440000000000000696e-02 1.539111238457735453e-08
3.455000000000000432e-02 1.538278304735740676e-08
3.470000000000000168e-02 1.536353977371618384e-08
3.485000000000001291e-02 1.533331506209378858e-08
3.500000000000001027e-02 1.529206450356923597e-08
3.515000000000000763e-02 1.523975079464889859e-08
3.530000000000000498e-02 1.517636682990541885e-08
3.545000000000000234e-02 1.510190372755459975e-08
3.559999999999999970e-02 1.501637392209431709e-08
3.575000000000001094e-02 1.491983780965711048e-08
3.590000000000000829e-02 1.481233358191502703e-08
3.605000000000000565e-02 1.469390387143221233e-08
3.620000000000000301e-02 1.456467746407952291e-08
3.635000000000000037e-02 1.442469876877794377e-08
3.650000000000001160e-02 1.427409745957675113e-08
3.665000000000000896e-02 1.411303429676991072e-08
3.680000000000000632e-02 1.394167981061400496e-08
3.695000000000000367e-02 1.376014502341149637e-08
3.710000000000000103e-02 1.356864309798311297e-08
3.725000000000001227e-02 1.336739785529061919e-08
3.740000000000000963e-02 1.315660913547844757e-08
3.755000000000000698e-02 1.293652562850411414e-08
3.770000000000000434e-02 1.270738714254093793e-08
3.785000000000000170e-02 1.246949565825161699e-08
3.800000000000001293e-02 1.222315582083410845e-08
3.815000000000001029e-02 1.196863674834958147e-08
3.830000000000000765e-02 1.170627594859752207e-08
3.845000000000000501e-02 1.143643757473000733e-08
3.860000000000000236e-02 1.115946890450913997e-08
3.874999999999999972e-02 1.087573497926541677e-08
3.890000000000001096e-02 1.058564613742873917e-08
3.905000000000000832e-02 1.028957186122170242e-08
3.920000000000000567e-02 9.987988214277265797e-09
3.935000000000000303e-02 9.681277113315900351e-09
3.950000000000000039e-02 9.369951037285773054e-09
3.965000000000001162e-02 9.054403449226811063e-09
3.980000000000000898e-02 8.735193013365005754e-09
3.995000000000000634e-02 8.412743390806554089e-09
4.010000000000000370e-02 8.087560843250685139e-09
4.025000000000000105e-02 7.760176501392379578e-09
4.040000000000001229e-02 7.431131265889234783e-09
4.055000000000000965e-02 7.100920296210233573e-09
4.070000000000000701e-02 6.770084048923763476e-09
4.085000000000000436e-02 6.439247357548083528e-09
4.100000000000000172e-02 6.108899608392448499e-09
4.115000000000001296e-02 5.779610123823886170e-09
4.130000000000001031e-02 5.451976647918854724e-09
4.145000000000000767e-02 5.126513435982360534e-09
4.160000000000000503e-02 4.803905717665202246e-09
4.175000000000000239e-02 4.484666416004756684e-09
4.190000000000001362e-02 4.169370182438569827e-09
4.205000000000001098e-02 3.858669384015911419e-09
4.220000000000000834e-02 3.553112915000156136e-09
4.235000000000000570e-02 3.253271430025961308e-09
4.250000000000000305e-02 2.959787748224584902e-09
4.265000000000000041e-02 2.673232746275289173e-09
4.280000000000001165e-02 2.394146658701856722e-09
4.295000000000000900e-02 2.123086151328834603e-09
4.310000000000000636e-02 1.860723797264540735e-09
4.325000000000000372e-02 1.607548427706717575e-09
4.340000000000000108e-02 1.364151458460582944e-09
4.355000000000001231e-02 1.131072124849197280e-09
4.370000000000000967e-02 9.088316765826220944e-10
4.385000000000000703e-02 6.980023226077491927e-10
4.400000000000000439e-02 4.990460267251251025e-10
4.415000000000000174e-02 3.125141256887786767e-10
4.430000000000001298e-02 1.388140991043229633e-10
4.445000000000001034e-02 -2.148949768132624172e-11
4.460000000000000769e-02 -1.679804767507064867e-10
4.475000000000000505e-02 -3.001700832339082581e-10
4.490000000000000241e-02 -4.177081458500708777e-10
4.505000000000001364e-02 -5.201653552333596053e-10
4.520000000000001100e-02 -6.071503300120184576e-10
4.535000000000000836e-02 -6.783472672466928088e-10
4.550000000000000572e-02 -7.333808560439081248e-10
4.565000000000000308e-02 -7.719785366511189295e-10
4.580000000000000043e-02 -7.938388280059882618e-10
4.595000000000001167e-02 -7.986654115832436673e-10
4.610000000000000903e-02 -7.862602235952920182e-10
4.625000000000000638e-02 -7.563949466771191510e-10
4.640000000000000374e-02 -7.089088760459105742e-10
4.655000000000000110e-02 -6.436842725499047901e-10
4.670000000000001233e-02 -5.605018671417383302e-10
4.685000000000000969e-02 -4.594459535045558596e-10
4.700000000000000705e-02 -3.402890191850360679e-10
4.715000000000000441e-02 -2.031541462832464617e-10
4.730000000000000177e-02 -4.788497376395639549e-11
4.745000000000001300e-02 1.253507853071766931e-10
4.760000000000001036e-02 3.165346040834293717e-10
4.775000000000000772e-02 5.254924828612672627e-10
4.790000000000000507e-02 7.521449574277028205e-10