-4.000000000000000083e-02 0.000000000000000000e+00
-3.985000000000000347e-02 0.000000000000000000e+00
-3.969999999999999918e-02 0.000000000000000000e+00
-3.955000000000000182e-02 0.000000000000000000e+00
-3.939999999999999752e-02 0.000000000000000000e+00
-3.925000000000000017e-02 0.000000000000000000e+00
-3.910000000000000281e-02 0.000000000000000000e+00
-3.894999999999999851e-02 0.000000000000000000e+00
-3.880000000000000115e-02 0.000000000000000000e+00
-3.865000000000000380e-02 0.000000000000000000e+00
-3.849999999999999950e-02 0.000000000000000000e+00
-3.835000000000000214e-02 0.000000000000000000e+00
-3.819999999999999785e-02 0.000000000000000000e+00
-3.805000000000000049e-02 0.000000000000000000e+00
-3.790000000000000313e-02 0.000000000000000000e+00
-3.774999999999999883e-02 0.000000000000000000e+00
-3.760000000000000148e-02 0.000000000000000000e+00
-3.744999999999999718e-02 0.000000000000000000e+00
-3.729999999999999982e-02 0.000000000000000000e+00
-3.715000000000000246e-02 0.000000000000000000e+00
-3.699999999999999817e-02 0.000000000000000000e+00
-3.685000000000000081e-02 0.000000000000000000e+00
-3.670000000000000345e-02 0.000000000000000000e+00
-3.654999999999999916e-02 0.000000000000000000e+00
-3.640000000000000180e-02 0.000000000000000000e+00
-3.624999999999999750e-02 0.000000000000000000e+00
-3.610000000000000014e-02 0.000000000000000000e+00
-3.595000000000000279e-02 0.000000000000000000e+00
-3.579999999999999849e-02 0.000000000000000000e+00
-3.565000000000000113e-02 0.000000000000000000e+00
-3.550000000000000377e-02 0.000000000000000000e+00
-3.534999999999999948e-02 0.000000000000000000e+00
-3.520000000000000212e-02 0.000000000000000000e+00
-3.504999999999999782e-02 0.000000000000000000e+00
-3.490000000000000047e-02 0.000000000000000000e+00
-3.475000000000000311e-02 0.000000000000000000e+00
-3.459999999999999881e-02 0.000000000000000000e+00
-3.445000000000000145e-02 0.000000000000000000e+00
-3.429999999999999716e-02 0.000000000000000000e+00
-3.414999999999999980e-02 0.000000000000000000e+00
-3.400000000000000244e-02 -1.401298464324817071e-45
-3.384999999999999815e-02 -4.203895392974451213e-44
-3.370000000000000079e-02 8.071479154510946329e-43
-3.354999999999999649e-02 -6.164311944564870295e-42
-3.339999999999999913e-02 -4.715089072760144480e-41
-3.325000000000000178e-02 1.623251529387689172e-39
-3.309999999999999748e-02 -1.344243476311060684e-38
-3.295000000000000012e-02 -5.577345012138662599e-38
-3.280000000000000276e-02 2.054799316886472232e-36
-3.264999999999999847e-02 -1.208331997882092975e-35
-3.250000000000000111e-02 -9.597022292066797950e-35
-3.235000000000000375e-02 1.647626514042274438e-33
-3.219999999999999946e-02 -2.475839426013348700e-33
-3.205000000000000210e-02 -1.004250214585457979e-31
-3.189999999999999780e-02 6.029478220000449840e-31
-3.175000000000000044e-02 3.446809738079993061e-30
-3.160000000000000309e-02 -4.288510336884591545e-29
-3.144999999999999879e-02 -4.906979104174249816e-29
-3.130000000000000143e-02 2.007852648652652388e-27
-3.115000000000000061e-02 -1.601513497120519671e-27
-3.099999999999999978e-02 -7.302765815030809064e-26
-3.085000000000000242e-02 1.278509211022506208e-25
-3.069999999999999812e-02 2.242812214570895411e-24
-3.055000000000000077e-02 -4.442305315822936791e-24
-3.039999999999999994e-02 -6.075090406310292247e-23
-3.024999999999999911e-02 9.363832587514965159e-23
-3.010000000000000175e-02 1.452775734629426960e-21
-2.994999999999999746e-02 -8.266193979723917218e-22
-2.980000000000000010e-02 -2.934575734457305141e-20
-2.964999999999999927e-02 -2.182018283825211200e-20
-2.949999999999999845e-02 4.561489038887319650e-19
-2.935000000000000109e-02 1.084979308670998004e-18
-2.920000000000000026e-02 -4.414204671136154323e-18
-2.904999999999999943e-02 -2.274280981835958751e-17
-2.890000000000000208e-02 2.779427360622598180e-18
-2.874999999999999778e-02 2.494262154944474480e-16
-2.860000000000000042e-02 5.833713901691787128e-16
-2.844999999999999959e-02 -6.804527479297502613e-16
-2.829999999999999877e-02 -6.446907945505250467e-15
-2.815000000000000141e-02 -1.349546000531344145e-14
-2.800000000000000058e-02 4.928202329154641927e-16
-2.784999999999999976e-02 7.655072458085179776e-14
-2.769999999999999893e-02 2.448164013093417912e-13
-2.754999999999999810e-02 4.951293823725333443e-13
-2.740000000000000074e-02 7.985604365268184068e-13
-2.724999999999999992e-02 1.156608337750386628e-12
-2.709999999999999909e-02 1.594940867745420210e-12
-2.695000000000000173e-02 2.114957080995294447e-12
-2.679999999999999744e-02 2.702911679197672612e-12
-2.665000000000000008e-02 3.373574856968541980e-12
-2.649999999999999925e-02 4.147478801369564039e-12
-2.634999999999999842e-02 5.018427947506287623e-12
-2.620000000000000107e-02 5.990872728456331231e-12
-2.605000000000000024e-02 7.090068115944703209e-12
-2.589999999999999941e-02 8.320315790510957044e-12
-2.575000000000000205e-02 9.683795432202657594e-12
-2.559999999999999776e-02 1.120670396759226861e-11
-2.545000000000000040e-02 1.290110466373173281e-11
-2.529999999999999957e-02 1.477175326503044062e-11
-2.514999999999999875e-02 1.684681560920608945e-11
-2.500000000000000139e-02 1.914382888323906684e-11
-2.484999999999999709e-02 2.167271570541196013e-11
-2.469999999999999973e-02 2.446572631986665414e-11
-2.454999999999999891e-02 2.754481538691511133e-11
-2.439999999999999808e-02 3.092715666896950211e-11
-2.425000000000000072e-02 3.465098347144035529e-11
-2.409999999999999989e-02 3.874265144809818651e-11
-2.394999999999999907e-02 4.322903493503282846e-11
-2.379999999999999824e-02 4.815561144289048912e-11
-2.365000000000000088e-02 5.355425131137181438e-11
-2.350000000000000006e-02 5.946441949955527662e-11
-2.334999999999999923e-02 6.593947610156192241e-11
-2.319999999999999840e-02 7.301936139070264176e-11
-2.304999999999999757e-02 8.075902446780247601e-11
-2.290000000000000022e-02 8.922009658851592917e-11
-2.274999999999999939e-02 9.845495946292359690e-11
-2.259999999999999856e-02 1.085361661656847332e-10
-2.244999999999999774e-02 1.195347709703753480e-10
-2.230000000000000038e-02 1.315214326336189288e-10
-2.214999999999999955e-02 1.445871616878591226e-10
-2.199999999999999872e-02 1.588157799714551288e-10
-2.184999999999999790e-02 1.743024058420417077e-10
-2.170000000000000054e-02 1.911563685119688216e-10
-2.154999999999999971e-02 2.094810436226168804e-10
-2.139999999999999888e-02 2.294003320635340515e-10
-2.124999999999999806e-02 2.510433805280598563e-10
-2.110000000000000070e-02 2.745419724892173008e-10
-2.094999999999999987e-02 3.000512338591221351e-10
-2.079999999999999905e-02 3.277246252153531714e-10
-2.064999999999999822e-02 3.577320661918292899e-10
-2.049999999999999739e-02 3.902605183458973670e-10
-2.035000000000000003e-02 4.254977203910215167e-10
-2.019999999999999921e-02 4.636585004824667067e-10
-2.004999999999999838e-02 5.049639595355870370e-10
-1.989999999999999755e-02 5.496509913882619003e-10
-1.975000000000000019e-02 5.979793327171023520e-10
-1.959999999999999937e-02 6.502178240275213739e-10
-1.944999999999999854e-02 7.066581764192392257e-10
-1.929999999999999771e-02 7.676153046531908331e-10
-1.915000000000000036e-02 8.334131162968105855e-10
-1.899999999999999953e-02 9.044132109892188964e-10
-1.884999999999999870e-02 9.809864032206405682e-10
-1.869999999999999787e-02 1.063534593725989907e-09
-1.855000000000000052e-02 1.152488993128031325e-09
-1.839999999999999969e-02 1.248295355971151821e-09
-1.824999999999999886e-02 1.351445511055260340e-09
-1.809999999999999803e-02 1.462445164968073641e-09
-1.794999999999999721e-02 1.581842989928361476e-09
-1.779999999999999985e-02 1.710216523953533851e-09
-1.764999999999999902e-02 1.848178055041671541e-09
-1.749999999999999820e-02 1.996379284108229513e-09
-1.734999999999999737e-02 2.155509770673802450e-09
-1.720000000000000001e-02 2.326297154908729681e-09
-1.704999999999999918e-02 2.509519037019458665e-09
-1.689999999999999836e-02 2.705987434126200242e-09
-1.674999999999999753e-02 2.916571650857235909e-09
-1.660000000000000017e-02 3.142182736226573070e-09
-1.644999999999999934e-02 3.383785474042610986e-09
-1.629999999999999852e-02 3.642400825398794950e-09
-1.614999999999999769e-02 3.919100599603098090e-09
-1.600000000000000033e-02 4.215018556408267614e-09
-1.584999999999999951e-02 4.531350406011824816e-09
-1.569999999999999868e-02 4.869349812253176424e-09
-1.554999999999999785e-02 5.230344601869774124e-09
-1.539999999999999702e-02 5.615722109553189512e-09
-1.524999999999999967e-02 6.026948273785137644e-09
-1.509999999999999884e-02 6.465560087320909588e-09
-1.494999999999999801e-02 6.933169149903051220e-09
-1.479999999999999719e-02 7.431474102759239031e-09
-1.464999999999999983e-02 7.962244197301515669e-09
-1.449999999999999900e-02 8.527347716835720348e-09
-1.434999999999999817e-02 9.128732436636255443e-09
-1.419999999999999735e-02 9.768436726176332741e-09
-1.404999999999999999e-02 1.044859931909059014e-08
-1.389999999999999916e-02 1.117144954321247496e-08
-1.374999999999999833e-02 1.193932064325053943e-08
-1.359999999999999751e-02 1.275464711625318159e-08
-1.344999999999999668e-02 1.361996204707338620e-08
-1.329999999999999932e-02 1.453792020100763693e-08
-1.314999999999999850e-02 1.551127049026490567e-08
-1.299999999999999767e-02 1.654289150110344053e-08
-1.284999999999999684e-02 1.763577017754869303e-08
-1.269999999999999948e-02 1.879302935492432880e-08
-1.254999999999999866e-02 2.001791976624645031e-08
-1.239999999999999783e-02 2.131382537129411503e-08
-1.224999999999999700e-02 2.268428644924824766e-08
-1.209999999999999964e-02 2.413295696612749452e-08
-1.194999999999999882e-02 2.566359391664718714e-08
-1.179999999999999799e-02 2.728002357343939366e-08
-1.164999999999999716e-02 2.898607931456353981e-08
-1.149999999999999981e-02 3.078556076729910274e-08
-1.134999999999999898e-02 3.268221959729089576e-08
-1.119999999999999815e-02 3.467982878646580502e-08
-1.104999999999999732e-02 3.678231763615258387e-08
-1.089999999999999650e-02 3.899407730045822973e-08
-1.074999999999999914e-02 4.132027697778539732e-08
-1.059999999999999831e-02 4.376724760390970914e-08
-1.044999999999999749e-02 4.634270922565519868e-08
-1.029999999999999666e-02 4.905568928847969801e-08
-1.014999999999999930e-02 5.191607499455130892e-08
-9.999999999999998473e-03 5.493360788477730239e-08
-9.849999999999997646e-03 5.811655867660192598e-08
-9.699999999999996819e-03 6.147037368009478087e-08
-9.549999999999999462e-03 6.499665516912500607e-08
-9.399999999999998634e-03 6.869318269764335128e-08
-9.249999999999997807e-03 7.255506062620042940e-08
-9.099999999999996980e-03 7.657728673393648933e-08
-8.949999999999999623e-03 8.075802071516591241e-08
-8.799999999999998795e-03 8.510173188369662967e-08
-8.649999999999997968e-03 8.962108921650724369e-08
-8.500000000000000611e-03 9.433647818468671176e-08
-8.349999999999996314e-03 9.927280331112342537e-08
-8.199999999999998956e-03 1.044542941031068040e-07
-8.049999999999994660e-03 1.098986359693299164e-07
-7.899999999999997302e-03 1.156127211743296357e-07
-7.749999999999999944e-03 1.215918530306225875e-07
-7.599999999999995648e-03 1.278232133472556598e-07
-7.449999999999998290e-03 1.342928896974626696e-07
-7.300000000000000933e-03 1.409939756058520288e-07
-7.149999999999996636e-03 1.479326954267889960e-07
-6.999999999999999278e-03 1.551296406887558987e-07
-6.849999999999994982e-03 1.626149526146036806e-07
-6.699999999999997624e-03 1.704193692830813234e-07
-6.550000000000000266e-03 1.785642353979710606e-07
-6.399999999999995970e-03 1.870551216143212514e-07
-6.249999999999998612e-03 1.958821940206689760e-07
-6.099999999999994316e-03 2.050277458920390927e-07
-5.949999999999996958e-03 2.144775379520069691e-07
-5.799999999999999600e-03 2.242311865074952948e-07
-5.649999999999995304e-03 2.343062845966414898e-07
-5.499999999999997946e-03 2.447337124067416880e-07
-5.350000000000000588e-03 2.555466096509917406e-07
-5.199999999999996292e-03 2.667671310518926475e-07
-5.049999999999998934e-03 2.783988009014137788e-07
-4.899999999999994638e-03 2.904279199356096797e-07
-4.749999999999997280e-03 3.028337118848867249e-07
-4.599999999999999922e-03 3.156026195938466117e-07
-4.449999999999995626e-03 3.287387357886473183e-07
-4.299999999999998268e-03 3.422655368012783583e-07
-4.150000000000000910e-03 3.562161339232261525e-07
-3.999999999999996614e-03 3.706186362251173705e-07
-3.849999999999999256e-03 3.854834460526035400e-07
-3.699999999999994960e-03 4.008003031685802853e-07
-3.549999999999997602e-03 4.165462428318278398e-07
-3.400000000000000244e-03 4.327013698457449209e-07
-3.249999999999995948e-03 4.492624441354564624e-07
-3.099999999999998590e-03 4.662469450522621628e-07
-2.949999999999994293e-03 4.836852554035431240e-07
-2.799999999999996936e-03 5.016045747652242426e-07
-2.649999999999999578e-03 5.200141686145798303e-07
-2.499999999999995282e-03 5.389011334955284838e-07
-2.349999999999997924e-03 5.582393214353942312e-07
-2.200000000000000566e-03 5.780057108495384455e-07
-2.049999999999996270e-03 5.981951289868447930e-07
-1.899999999999998912e-03 6.188226393533113878e-07
-1.749999999999994615e-03 6.399164931281120516e-07
-1.599999999999997258e-03 6.614977223762252834e-07
-1.449999999999999900e-03 6.835671229055151343e-07
-1.299999999999995604e-03 7.061042879286105745e-07
-1.149999999999998246e-03 7.290782377822324634e-07
-9.999999999999939493e-04 7.524661782554176170e-07
-8.499999999999965916e-04 7.762641871522646397e-07
-6.999999999999992339e-04 8.004900564628769644e-07
-5.499999999999949374e-04 8.251661256508668885e-07
-3.999999999999975797e-04 8.503037634000065736e-07
-2.500000000000002220e-04 8.758901230976334773e-07
-9.999999999999592548e-05 9.018925766213214956e-07
5.000000000000143219e-05 9.282799169341160450e-07
2.000000000000057288e-04 9.550324193696724251e-07
3.500000000000030864e-04 9.821532103160279803e-07
5.000000000000004441e-04 1.009659513329097535e-06
6.500000000000047407e-04 1.037565425576758571e-06
8.000000000000020983e-04 1.065865490090800449e-06
9.500000000000063949e-04 1.094532990464358591e-06
1.100000000000003753e-03 1.123527340496366378e-06
1.250000000000001110e-03 1.152818185801152140e-06
1.400000000000005407e-03 1.182395749310671818e-06
1.550000000000002764e-03 1.212272309203399345e-06
1.700000000000000122e-03 1.242460825778834987e-06
1.850000000000004419e-03 1.272962094844842795e-06
2.000000000000001776e-03 1.303747808378830086e-06
2.150000000000006073e-03 1.334776470685028471e-06
2.300000000000003431e-03 1.366008632430748548e-06
2.450000000000000788e-03 1.397430082761275116e-06
2.600000000000005085e-03 1.429048893442086410e-06
2.750000000000002442e-03 1.460873818359686993e-06
2.899999999999999800e-03 1.492891101406712551e-06
3.050000000000004097e-03 1.525086076981096994e-06
3.200000000000001454e-03 1.557423388476308901e-06
3.350000000000005751e-03 1.589877001606510021e-06
3.500000000000003109e-03 1.622406102796958294e-06
3.650000000000000466e-03 1.654998754929692950e-06
3.800000000000004763e-03 1.687665871941135265e-06
3.950000000000002121e-03 1.720420755191298667e-06
4.100000000000006417e-03 1.753257720338297077e-06
4.250000000000003775e-03 1.786128677849774249e-06
4.400000000000001132e-03 1.818954842747189105e-06
4.550000000000005429e-03 1.851722231549501885e-06
4.700000000000002787e-03 1.884468815660511609e-06
4.850000000000000144e-03 1.917209601742797531e-06
5.000000000000004441e-03 1.949919806065736338e-06
5.150000000000001799e-03 1.982517460419330746e-06
5.300000000000006095e-03 2.014998244703747332e-06
5.450000000000003453e-03 2.047383077297126874e-06
5.600000000000000810e-03 2.079683326883241534e-06
5.750000000000005107e-03 2.111810317728668451e-06
5.900000000000002465e-03 2.143710389646003023e-06
6.050000000000006761e-03 2.175405597881763242e-06
6.200000000000004119e-03 2.206989847763907164e-06
6.350000000000001477e-03 2.238481556560145691e-06
6.500000000000005773e-03 2.269724063808098435e-06
6.650000000000003131e-03 2.300566848134621978e-06
6.800000000000000488e-03 2.331047198822489008e-06
6.950000000000004785e-03 2.361354745517019182e-06
7.100000000000002143e-03 2.391606358287390321e-06
7.250000000000006439e-03 2.421563067400711589e-06
7.400000000000003797e-03 2.450993861202732660e-06
7.550000000000001155e-03 2.479933982613147236e-06
7.700000000000005451e-03 2.508668558220961131e-06
7.850000000000002809e-03 2.537360842325142585e-06
8.000000000000000167e-03 2.565708200563676655e-06
8.150000000000004463e-03 2.593405497464118525e-06
8.300000000000001821e-03 2.620580971779418178e-06
8.450000000000006117e-03 2.647705969138769433e-06
8.600000000000003475e-03 2.674904862942639738e-06
8.750000000000000833e-03 2.701691528272931464e-06
8.900000000000005129e-03 2.727693981796619482e-06
9.050000000000002487e-03 2.753145281531033106e-06
9.200000000000006783e-03 2.778733232844388112e-06
9.350000000000004141e-03 2.804557198032853194e-06
9.500000000000001499e-03 2.829836375894956291e-06
9.650000000000005795e-03 2.853816567949252203e-06
9.800000000000003153e-03 2.876869530155090615e-06
9.950000000000000511e-03 2.899713990700547583e-06
1.010000000000000481e-02 2.922333123933640309e-06
1.025000000000000216e-02 2.943415438494412228e-06
1.040000000000000646e-02 2.961803375001181848e-06
1.055000000000000382e-02 2.977836174977710471e-06
1.070000000000000118e-02 2.992351028296980076e-06
1.085000000000000547e-02 3.005093276442494243e-06
1.100000000000000283e-02 3.014376488863490522e-06
1.115000000000000713e-02 3.018886900463257916e-06
1.130000000000000449e-02 3.019371433765627444e-06
1.145000000000000184e-02 3.017189101228723302e-06
1.160000000000000614e-02 3.012310571648413315e-06
1.175000000000000350e-02 3.003198798978701234e-06
1.190000000000000085e-02 2.989001131936674938e-06
1.205000000000000515e-02 2.971314643218647689e-06
1.220000000000000251e-02 2.952418981294613332e-06
1.235000000000000681e-02 2.932970801339251921e-06
1.250000000000000416e-02 2.911515366577077657e-06
1.265000000000000152e-02 2.887293703679461032e-06
1.280000000000000582e-02 2.862381279555847868e-06
1.295000000000000318e-02 2.839182798197725788e-06
1.310000000000000747e-02 2.817225777107523754e-06
1.325000000000000483e-02 2.794673946482362226e-06
1.340000000000000219e-02 2.769736511254450306e-06
1.355000000000000648e-02 2.743008735706098378e-06
1.370000000000000384e-02 2.715586106205591932e-06
1.385000000000000120e-02 2.685718754946719855e-06
1.400000000000000550e-02 2.649897396622691303e-06
1.415000000000000285e-02 2.605362169560976326e-06
1.430000000000000715e-02 2.552708338043885306e-06
1.445000000000000451e-02 2.492021621947060339e-06
1.460000000000000187e-02 2.422238594590453431e-06
1.475000000000000616e-02 2.340462742722593248e-06
1.490000000000000352e-02 2.245579707960132509e-06
1.505000000000000088e-02 2.139044227078557014e-06
1.520000000000000517e-02 2.022667558776447549e-06
1.535000000000000253e-02 1.896761318675999064e-06
1.550000000000000683e-02 1.759891461006191093e-06
1.565000000000000419e-02 1.612144160390016623e-06
1.580000000000000154e-02 1.454820448998361826e-06
1.595000000000000584e-02 1.288638941332465038e-06
1.610000000000000320e-02 1.113015287046437152e-06
1.625000000000000749e-02 9.260988349524268415e-07
1.640000000000000485e-02 7.255511036419193260e-07
1.655000000000000221e-02 5.096001700621854980e-07
1.670000000000000651e-02 2.768447870948875789e-07
1.685000000000000386e-02 2.463150394760305062e-08
1.700000000000000122e-02 -2.491918280611571390e-07
1.715000000000000552e-02 -5.473384021570382174e-07
1.730000000000000288e-02 -8.718237154425878543e-07
1.745000000000000717e-02 -1.224147695211286191e-06
1.760000000000000453e-02 -1.604763383511453867e-06
1.775000000000000189e-02 -2.014081019297009334e-06
1.790000000000000618e-02 -2.452410399200743996e-06
1.805000000000000354e-02 -2.922055500675924122e-06
1.820000000000000784e-02 -3.423953785386402160e-06
1.835000000000000520e-02 -3.958083198085660115e-06
1.850000000000000255e-02 -4.525266831478802487e-06
1.865000000000000685e-02 -5.128060820425162092e-06
1.880000000000000421e-02 -5.770536063209874555e-06
1.895000000000000157e-02 -6.457069957832572982e-06
1.910000000000000586e-02 -7.190090400399640203e-06
1.925000000000000322e-02 -7.973090760060586035e-06
1.940000000000000752e-02 -8.809665814624167979e-06
1.955000000000000487e-02 -9.705740012577734888e-06
1.970000000000000223e-02 -1.066495497070718557e-05
1.985000000000000653e-02 -1.169041570392437279e-05
2.000000000000000389e-02 -1.278278159588808194e-05
2.015000000000000818e-02 -1.394558330503059551e-05
2.030000000000000554e-02 -1.518224780738819391e-05
2.045000000000000290e-02 -1.649650948820635676e-05
2.060000000000000719e-02 -1.789095767890103161e-05
2.075000000000000455e-02 -1.936875924002379179e-05
2.090000000000000191e-02 -2.093435250571928918e-05
2.105000000000000621e-02 -2.259371831314638257e-05
2.120000000000000356e-02 -2.435329042782541364e-05
2.135000000000000786e-02 -2.621998100948985666e-05
2.150000000000000522e-02 -2.819979272317141294e-05
2.165000000000000258e-02 -3.029912841157056391e-05
2.180000000000000687e-02 -3.252485112170688808e-05
2.195000000000000423e-02 -3.488348374958150089e-05
2.210000000000000159e-02 -3.738217856152914464e-05
2.225000000000000588e-02 -4.002695641247555614e-05
2.240000000000000324e-02 -4.282177906134165823e-05
2.255000000000000754e-02 -4.577240179060027003e-05
2.270000000000000490e-02 -4.888516195933334529e-05
2.285000000000000225e-02 -5.216842691879719496e-05
2.299999999999999961e-02 -5.562971637118607759e-05
2.315000000000001085e-02 -5.927653546677902341e-05
2.330000000000000820e-02 -6.311746983556076884e-05
2.345000000000000556e-02 -6.716210918966680765e-05
2.360000000000000292e-02 -7.142157119233161211e-05
2.375000000000000028e-02 -7.590691529912874103e-05
2.390000000000001151e-02 -8.062679262366145849e-05
2.405000000000000887e-02 -8.559010893804952502e-05
2.420000000000000623e-02 -9.080544987227767706e-05
2.435000000000000359e-02 -9.628335828892886639e-05
2.450000000000000094e-02 -1.020333147607743740e-04
2.464999999999999830e-02 -1.080633592209778726e-04
2.480000000000000954e-02 -1.143818444688804448e-04
2.495000000000000689e-02 -1.209983602166175842e-04
2.510000000000000425e-02 -1.279232383240014315e-04
2.525000000000000161e-02 -1.351679675281047821e-04
2.539999999999999897e-02 -1.427442184649407864e-04
2.555000000000001020e-02 -1.506633707322180271e-04
2.570000000000000756e-02 -1.589368621353060007e-04
2.585000000000000492e-02 -1.675759995123371482e-04
2.600000000000000228e-02 -1.765923225320875645e-04
2.614999999999999963e-02 -1.859966287156566978e-04
2.630000000000001087e-02 -1.957998174475505948e-04
2.645000000000000823e-02 -2.060092956526204944e-04
2.660000000000000558e-02 -2.166335034416988492e-04
2.675000000000000294e-02 -2.276807645102962852e-04
2.690000000000000030e-02 -2.391617745161056519e-04
2.705000000000001154e-02 -2.510854392312467098e-04
2.720000000000000889e-02 -2.634595148265361786e-04
2.735000000000000625e-02 -2.762924705166369677e-04
2.750000000000000361e-02 -2.895930665545165539e-04
2.765000000000000097e-02 -3.033713146578520536e-04
2.780000000000001220e-02 -3.176351601723581553e-04
2.795000000000000956e-02 -3.323912096675485373e-04
2.810000000000000692e-02 -3.476447018329054117e-04
2.825000000000000427e-02 -3.633996821008622646e-04
2.840000000000000163e-02 -3.796606615651398897e-04
2.854999999999999899e-02 -3.964294446632266045e-04
2.870000000000001023e-02 -4.137062351219356060e-04
2.885000000000000758e-02 -4.314910038374364376e-04
2.900000000000000494e-02 -4.497828194871544838e-04
2.915000000000000230e-02 -4.685807798523455858e-04
2.929999999999999966e-02 -4.878839536104351282e-04
2.945000000000001089e-02 -5.076904199086129665e-04
2.960000000000000825e-02 -5.279968609102070332e-04
2.975000000000000561e-02 -5.487973103299736977e-04
2.990000000000000296e-02 -5.700834444724023342e-04
3.005000000000000032e-02 -5.918459501117467880e-04
3.020000000000001156e-02 -6.140735931694507599e-04
3.035000000000000892e-02 -6.367536261677742004e-04
3.050000000000000627e-02 -6.598699255846440792e-04
3.065000000000000363e-02 -6.834043888375163078e-04
3.080000000000000099e-02 -7.073382148519158363e-04
3.095000000000001222e-02 -7.316518458537757397e-04
3.110000000000000958e-02 -7.563230465166270733e-04
3.125000000000000694e-02 -7.813264965079724789e-04
3.140000000000000430e-02 -8.066356531344354153e-04
3.155000000000000165e-02 -8.322224603034555912e-04
3.169999999999999901e-02 -8.580588037148118019e-04
3.185000000000001025e-02 -8.841120870783925056e-04
3.200000000000000761e-02 -9.103481424972414970e-04
3.215000000000000496e-02 -9.367279126308858395e-04
3.230000000000000232e-02 -9.632082073949277401e-04
3.244999999999999968e-02 -9.897446725517511368e-04
3.260000000000001091e-02 -1.016291324049234390e-03
3.275000000000000827e-02 -1.042798976413905621e-03
3.290000000000000563e-02 -1.069217687472701073e-03
3.305000000000000299e-02 -1.095496001653373241e-03
3.320000000000000034e-02 -1.121579436585307121e-03
3.335000000000001158e-02 -1.147412927821278572e-03
3.350000000000000894e-02 -1.172937569208443165e-03
3.365000000000000629e-02 -1.198092591948807240e-03
3.380000000000000365e-02 -1.222811522893607616e-03
3.395000000000000101e-02 -1.247026375494897366e-03
3.410000000000001225e-02 -1.270666834898293018e-03
3.425000000000000960e-02 -1.293663517571985722e-03
3.440000000000000696e-02 -1.315942616201937199e-03
3.455000000000000432e-02 -1.337429042905569077e-03
3.470000000000000168e-02 -1.358044683001935482e-03
3.485000000000001291e-02 -1.377713051624596119e-03
3.500000000000001027e-02 -1.396351261064410210e-03
3.515000000000000763e-02 -1.413879566825926304e-03
3.530000000000000498e-02 -1.430216943845152855e-03
3.545000000000000234e-02 -1.445278874598443508e-03
3.559999999999999970e-02 -1.458981190808117390e-03
3.575000000000001094e-02 -1.471241586841642857e-03
3.590000000000000829e-02 -1.481974031776189804e-03
3.605000000000000565e-02 -1.491092261858284473e-03
3.620000000000000301e-02 -1.498505822382867336e-03
3.635000000000000037e-02 -1.504127169027924538e-03
3.650000000000001160e-02 -1.507869339548051357e-03
3.665000000000000896e-02 -1.509642926976084709e-03
3.680000000000000632e-02 -1.509366673417389393e-03
3.695000000000000367e-02 -1.506960950791835785e-03
3.710000000000000103e-02 -1.502345199696719646e-03
3.725000000000001227e-02 -1.495437580160796642e-03
3.740000000000000963e-02 -1.486157882027328014e-03
3.755000000000000698e-02 -1.474429853260517120e-03
3.770000000000000434e-02 -1.460180850699543953e-03
3.785000000000000170e-02 -1.443332643248140812e-03
3.800000000000001293e-02 -1.423820271156728268e-03
3.815000000000001029e-02 -1.401576446369290352e-03
3.830000000000000765e-02 -1.376542262732982635e-03
3.845000000000000501e-02 -1.348659163340926170e-03
3.860000000000000236e-02 -1.317871618084609509e-03
3.874999999999999972e-02 -1.284128637053072453e-03
3.890000000000001096e-02 -1.247393782250583172e-03
3.905000000000000832e-02 -1.207624794915318489e-03
3.920000000000000567e-02 -1.164787914603948593e-03
3.935000000000000303e-02 -1.118858926929533482e-03
3.950000000000000039e-02 -1.069815480150282383e-03
3.965000000000001162e-02 -1.017639297060668468e-03
3.980000000000000898e-02 -9.623209480196237564e-04
3.995000000000000634e-02 -9.038559510372579098e-04
4.010000000000000370e-02 -8.422474493272602558e-04
4.025000000000000105e-02 -7.775070262141525745e-04
4.040000000000001229e-02 -7.096516201272606850e-04
4.055000000000000965e-02 -6.387108005583286285e-04
4.070000000000000701e-02 -5.647200741805136204e-04
4.085000000000000436e-02 -4.877201281487941742e-04
4.100000000000000172e-02 -4.077629710081964731e-04
4.115000000000001296e-02 -3.249057626817375422e-04
4.130000000000001031e-02 -2.392137248534709215e-04
4.145000000000000767e-02 -1.507553824922069907e-04
4.160000000000000503e-02 -5.961850911262445152e-05
4.175000000000000239e-02 3.411116631468757987e-05
4.190000000000001362e-02 1.303283934248611331e-04
4.205000000000001098e-02 2.289328695042058825e-04
4.220000000000000834e-02 3.298083902336657047e-04
4.235000000000000570e-02 4.328289069235324860e-04
4.250000000000000305e-02 5.378670175559818745e-04
4.265000000000000041e-02 6.447787745855748653e-04
4.280000000000001165e-02 7.534144679084420204e-04
4.295000000000000900e-02 8.636242710053920746e-04
4.310000000000000636e-02 9.752424666658043861e-04
4.325000000000000372e-02 1.088107936084270477e-03
4.340000000000000108e-02 1.202039769850671291e-03
4.355000000000001231e-02 1.316859968937933445e-03
4.370000000000000967e-02 1.432383316569030285e-03
4.385000000000000703e-02 1.548413070850074291e-03
4.400000000000000439e-02 1.664752722717821598e-03
4.415000000000000174e-02 1.781195052899420261e-03
4.430000000000001298e-02 1.897530164569616318e-03
4.445000000000001034e-02 2.013547113165259361e-03
4.460000000000000769e-02 2.129025058820843697e-03
4.475000000000000505e-02 2.243748866021633148e-03
4.490000000000000241e-02 2.357497811317443848e-03
4.505000000000001364e-02 2.470046048983931541e-03
4.520000000000001100e-02 2.581170294433832169e-03
4.535000000000000836e-02 2.690645400434732437e-03
4.550000000000000572e-02 2.798244357109069824e-03
4.565000000000000308e-02 2.903738990426063538e-03
4.580000000000000043e-02 3.006909042596817017e-03
4.595000000000001167e-02 3.107522381469607353e-03
4.610000000000000903e-02 3.205359214916825294e-03
4.625000000000000638e-02 3.300196724012494087e-03
4.640000000000000374e-02 3.391818841919302940e-03
4.655000000000000110e-02 3.480013459920883179e-03
4.670000000000001233e-02 3.564570099115371704e-03
4.685000000000000969e-02 3.645288292318582535e-03
4.700000000000000705e-02 3.721969202160835266e-03
4.715000000000000441e-02 3.794425632804632187e-03
4.730000000000000177e-02 3.862473182380199432e-03
4.745000000000001300e-02 3.925933036953210831e-03
4.760000000000001036e-02 3.984636161476373672e-03
4.775000000000000772e-02 4.038420971482992172e-03
4.790000000000000507e-02 4.087133798748254776e-03
4.805000000000000243e-02 4.130630753934383392e-03
4.820000000000001367e-02 4.168783780187368393e-03
4.835000000000001102e-02 4.201471339911222458e-03