-4.000000000000000083e-02 -0.000000000000000000e+00
-3.985000000000000347e-02 -0.000000000000000000e+00
-3.969999999999999918e-02 -0.000000000000000000e+00
-3.955000000000000182e-02 -0.000000000000000000e+00
-3.939999999999999752e-02 -0.000000000000000000e+00
-3.925000000000000017e-02 -0.000000000000000000e+00
-3.910000000000000281e-02 -0.000000000000000000e+00
-3.894999999999999851e-02 -0.000000000000000000e+00
-3.880000000000000115e-02 -0.000000000000000000e+00
-3.865000000000000380e-02 -0.000000000000000000e+00
-3.849999999999999950e-02 -0.000000000000000000e+00
-3.835000000000000214e-02 -0.000000000000000000e+00
-3.819999999999999785e-02 -0.000000000000000000e+00
-3.805000000000000049e-02 -0.000000000000000000e+00
-3.790000000000000313e-02 -0.000000000000000000e+00
-3.774999999999999883e-02 -0.000000000000000000e+00
-3.760000000000000148e-02 -0.000000000000000000e+00
-3.744999999999999718e-02 -0.000000000000000000e+00
-3.729999999999999982e-02 4.203895392974451213e-45
-3.715000000000000246e-02 -1.219129663962590852e-43
-3.699999999999999817e-02 4.072173337327918408e-42
-3.685000000000000081e-02 -1.325165918758049759e-40
-3.670000000000000345e-02 3.693382744242419806e-39
-3.654999999999999916e-02 -7.846244528704318371e-38
-3.640000000000000180e-02 1.124752548701945860e-36
-3.624999999999999750e-02 -7.454492418080874654e-36
-3.610000000000000014e-02 -7.402358841841610512e-35
-3.595000000000000279e-02 2.349534394727417067e-33
-3.579999999999999849e-02 -2.146931551612663219e-32
-3.565000000000000113e-02 -1.129290369868866675e-32
-3.550000000000000377e-02 1.885541839283943370e-30
-3.534999999999999948e-02 -1.183415113876772279e-29
-3.520000000000000212e-02 -4.932105869564319412e-29
-3.504999999999999782e-02 7.941451273576756741e-28
-3.490000000000000047e-02 -2.341238440559871586e-28
-3.475000000000000311e-02 -2.902168425757570609e-26
-3.459999999999999881e-02 4.506081958996887322e-26
-3.445000000000000145e-02 7.799669422489040841e-25
-3.429999999999999716e-02 -1.102899923487028532e-24
-3.414999999999999980e-02 -1.692423132694244993e-23
-3.400000000000000244e-02 3.663740228706417021e-24
-3.384999999999999815e-02 2.725147638772104226e-22
-3.370000000000000079e-02 4.285329221649847266e-22
-3.354999999999999649e-02 -2.314997826271410617e-21
-3.339999999999999913e-02 -9.884317989313544301e-21
-3.325000000000000178e-02 -6.547731507803187374e-21
-3.309999999999999748e-02 5.300631526376621475e-20
-3.295000000000000012e-02 2.113004569680123397e-19
-3.280000000000000276e-02 4.592577588234359504e-19
-3.264999999999999847e-02 7.622716981872033087e-19
-3.250000000000000111e-02 1.127431768670867921e-18
-3.235000000000000375e-02 1.579588647224630690e-18
-3.219999999999999946e-02 2.108204621531237173e-18
-3.205000000000000210e-02 2.710324485454765110e-18
-3.189999999999999780e-02 3.410676596612334126e-18
-3.175000000000000044e-02 4.209894368558006700e-18
-3.160000000000000309e-02 5.107128907188150289e-18
-3.144999999999999879e-02 6.126055775995257650e-18
-3.130000000000000143e-02 7.270822458570669664e-18
-3.115000000000000061e-02 8.546291122554973028e-18
-3.099999999999999978e-02 9.977046402933856278e-18
-3.085000000000000242e-02 1.157117068147257505e-17
-3.069999999999999812e-02 1.334831446080293906e-17
-3.055000000000000077e-02 1.533996850684484208e-17
-3.039999999999999994e-02 1.754761760879781679e-17
-3.024999999999999911e-02 1.993982394030117283e-17
-3.010000000000000175e-02 2.241787176705283186e-17
-2.994999999999999746e-02 2.486680283624262433e-17
-2.980000000000000010e-02 2.746892113743233709e-17
-2.964999999999999927e-02 3.120251002003128450e-17
-2.949999999999999845e-02 3.821682294346864773e-17
-2.935000000000000109e-02 5.084030054018729501e-17
-2.920000000000000026e-02 6.752755105025645666e-17
-2.904999999999999943e-02 7.567632564019804628e-17
-2.890000000000000208e-02 4.637733357194113971e-17
-2.874999999999999778e-02 -5.508205625157961923e-17
-2.860000000000000042e-02 -2.252676711684523277e-16
-2.844999999999999959e-02 -3.428435204834337068e-16
-2.829999999999999877e-02 -1.013833586903373348e-16
-2.815000000000000141e-02 9.221926158838977643e-16
-2.800000000000000058e-02 2.902016192456169374e-15
-2.784999999999999976e-02 5.059410803178766847e-15
-2.769999999999999893e-02 4.958856133878419836e-15
-2.754999999999999810e-02 -1.291698563024969507e-15
-2.740000000000000074e-02 -1.672729473380443754e-14
-2.724999999999999992e-02 -3.863858695886748795e-14
-2.709999999999999909e-02 -5.309667703884586587e-14
-2.695000000000000173e-02 -3.445322098363096108e-14
-2.679999999999999744e-02 4.270334899494215852e-14
-2.665000000000000008e-02 1.760688627229847758e-13
-2.649999999999999925e-02 3.037497824879414887e-13
-2.634999999999999842e-02 2.996187282652829076e-13
-2.620000000000000107e-02 3.891647475193910077e-14
-2.605000000000000024e-02 -4.458429068640579196e-13
-2.589999999999999941e-02 -7.759430034268155474e-13
-2.575000000000000205e-02 -1.811591241601684388e-13
-2.559999999999999776e-02 2.133606225723783112e-12
-2.545000000000000040e-02 6.000893792296180251e-12
-2.529999999999999957e-02 8.803498728615632984e-12
-2.514999999999999875e-02 4.213563092186900505e-12
-2.500000000000000139e-02 -1.745446842615905325e-11
-2.484999999999999709e-02 -6.562498461315513509e-11
-2.469999999999999973e-02 -1.415717820751893896e-10
-2.454999999999999891e-02 -2.270478249855045760e-10
-2.439999999999999808e-02 -2.727799930379859461e-10
-2.425000000000000072e-02 -1.924086445725947669e-10
-2.409999999999999989e-02 1.320276110661211533e-10
-2.394999999999999907e-02 8.290952369094384267e-10
-2.379999999999999824e-02 2.002027654768312459e-09
-2.365000000000000088e-02 3.683772620277636634e-09
-2.350000000000000006e-02 5.793128643460931926e-09
-2.334999999999999923e-02 8.103867799036379438e-09
-2.319999999999999840e-02 1.023902029828605009e-08
-2.304999999999999757e-02 1.170266017425092286e-08
-2.290000000000000022e-02 1.196183596618993761e-08
-2.274999999999999939e-02 1.058659648833781830e-08
-2.259999999999999856e-02 7.439197702296951320e-09
-2.244999999999999774e-02 2.869469994948303793e-09
-2.230000000000000038e-02 -2.169574742083568708e-09
-2.214999999999999955e-02 -6.197666380103328265e-09
-2.199999999999999872e-02 -7.559318504490875057e-09
-2.184999999999999790e-02 -5.033847116919787368e-09
-2.170000000000000054e-02 1.476962552260374650e-09
-2.154999999999999971e-02 1.050844744554524368e-08
-2.139999999999999888e-02 1.918915515375374525e-08
-2.124999999999999806e-02 2.415802669020195026e-08
-2.110000000000000070e-02 2.303389834423796856e-08
-2.094999999999999987e-02 1.582446174097640323e-08
-2.079999999999999905e-02 5.473374642406270141e-09
-2.064999999999999822e-02 -3.013852278854756150e-09
-2.049999999999999739e-02 -4.759925786856911145e-09
-2.035000000000000003e-02 2.392752662672137376e-09
-2.019999999999999921e-02 1.627250867386464961e-08
-2.004999999999999838e-02 3.090110567427473143e-08
-1.989999999999999755e-02 3.926372471596550895e-08
-1.975000000000000019e-02 3.712477791850687936e-08
-1.959999999999999937e-02 2.579572822014597477e-08
-1.944999999999999854e-02 1.201613031298620626e-08
-1.929999999999999771e-02 4.579817414196440950e-09
-1.915000000000000036e-02 9.326043937107897364e-09
-1.899999999999999953e-02 2.538820353947812691e-08
-1.884999999999999870e-02 4.518111040852090809e-08
-1.869999999999999787e-02 5.853590323567914311e-08
-1.855000000000000052e-02 5.878217734789359383e-08
-1.839999999999999969e-02 4.711651513389369939e-08
-1.824999999999999886e-02 3.233515144529519603e-08
-1.809999999999999803e-02 2.571266577433561906e-08
-1.794999999999999721e-02 3.393790848349453881e-08
-1.779999999999999985e-02 5.457326324176392518e-08
-1.764999999999999902e-02 7.724980832790606655e-08
-1.749999999999999820e-02 9.021391633723396808e-08
-1.734999999999999737e-02 8.809314522295608185e-08
-1.720000000000000001e-02 7.565438409073976800e-08
-1.704999999999999918e-02 6.476938096966478042e-08
-1.689999999999999836e-02 6.652544470853172243e-08
-1.674999999999999753e-02 8.382039595744572580e-08
-1.660000000000000017e-02 1.094515482691349462e-07
-1.644999999999999934e-02 1.309791741732624359e-07
-1.629999999999999852e-02 1.391044861520640552e-07
-1.614999999999999769e-02 1.339935806754510850e-07
-1.600000000000000033e-02 1.252927859241026454e-07
-1.584999999999999951e-02 1.255843926628585905e-07
-1.569999999999999868e-02 1.414967982782400213e-07
-1.554999999999999785e-02 1.688135853328276426e-07
-1.539999999999999702e-02 1.955791049113031477e-07
-1.524999999999999967e-02 2.111062258336460218e-07
-1.509999999999999884e-02 2.139890966645907611e-07
-1.494999999999999801e-02 2.127214884239947423e-07
-1.479999999999999719e-02 2.186559413530630991e-07
-1.464999999999999983e-02 2.375436451984569430e-07
-1.449999999999999900e-02 2.661306552909081802e-07
-1.434999999999999817e-02 2.955293894046917558e-07
-1.419999999999999735e-02 3.177988219249527901e-07
-1.404999999999999999e-02 3.309564817755017430e-07
-1.389999999999999916e-02 3.402024049137253314e-07
-1.374999999999999833e-02 3.545060280885081738e-07
-1.359999999999999751e-02 3.801810635195579380e-07
-1.344999999999999668e-02 4.153976078669074923e-07
-1.329999999999999932e-02 4.508178790274541825e-07
-1.314999999999999850e-02 4.774851731781382114e-07
-1.299999999999999767e-02 4.954363248543813825e-07
-1.284999999999999684e-02 5.141705514688510448e-07
-1.269999999999999948e-02 5.433930709841661155e-07
-1.254999999999999866e-02 5.834517651237547398e-07
-1.239999999999999783e-02 6.257241693674586713e-07
-1.224999999999999700e-02 6.614200174226425588e-07
-1.209999999999999964e-02 6.891777957207523286e-07
-1.194999999999999882e-02 7.140461093513295054e-07
-1.179999999999999799e-02 7.418839231831952929e-07
-1.164999999999999716e-02 7.766047929180786014e-07
-1.149999999999999981e-02 8.196147973649203777e-07
-1.134999999999999898e-02 8.688011803315021098e-07
-1.119999999999999815e-02 9.168243195745162666e-07
-1.104999999999999732e-02 9.549985406920313835e-07
-1.089999999999999650e-02 9.819304978009313345e-07
-1.074999999999999914e-02 1.007727405522018671e-06
-1.059999999999999831e-02 1.045847966452129185e-06
-1.044999999999999749e-02 1.100388544728048146e-06
-1.029999999999999666e-02 1.162929038400761783e-06
-1.014999999999999930e-02 1.222888386109843850e-06
-9.999999999999998473e-03 1.277181581826880574e-06
-9.849999999999997646e-03 1.329131919192150235e-06
-9.699999999999996819e-03 1.380154571961611509e-06
-9.549999999999999462e-03 1.428272298653610051e-06
-9.399999999999998634e-03 1.474872988183051348e-06
-9.249999999999997807e-03 1.528227585367858410e-06
-9.099999999999996980e-03 1.596090442035347223e-06
-8.949999999999999623e-03 1.676093233982101083e-06
-8.799999999999998795e-03 1.755808625603094697e-06
-8.649999999999997968e-03 1.822336344048380852e-06
-8.500000000000000611e-03 1.870968844741582870e-06
-8.349999999999996314e-03 1.905547833302989602e-06
-8.199999999999998956e-03 1.935972250066697598e-06
-8.049999999999994660e-03 1.975171471713110805e-06
-7.899999999999997302e-03 2.034204953815788031e-06
-7.749999999999999944e-03 2.113683876814320683e-06
-7.599999999999995648e-03 2.198390575358644128e-06
-7.449999999999998290e-03 2.264678187202662230e-06
-7.300000000000000933e-03 2.297521859873086214e-06
-7.149999999999996636e-03 2.301523636560887098e-06
-6.999999999999999278e-03 2.297419996466487646e-06
-6.849999999999994982e-03 2.308021066710352898e-06
-6.699999999999997624e-03 2.345070242881774902e-06
-6.550000000000000266e-03 2.401546225883066654e-06
-6.399999999999995970e-03 2.455642970744520426e-06
-6.249999999999998612e-03 2.482622221577912569e-06
-6.099999999999994316e-03 2.467968442942947149e-06
-5.949999999999996958e-03 2.418215444777160883e-06
-5.799999999999999600e-03 2.352833689656108618e-06
-5.649999999999995304e-03 2.292174031026661396e-06
-5.499999999999997946e-03 2.244494680780917406e-06
-5.350000000000000588e-03 2.206616045441478491e-06
-5.199999999999996292e-03 2.166067133657634258e-06
-5.049999999999998934e-03 2.105487510561943054e-06
-4.899999999999994638e-03 2.006287104450166225e-06
-4.749999999999997280e-03 1.859734766185283661e-06
-4.599999999999999922e-03 1.672306098043918610e-06
-4.449999999999995626e-03 1.464490196667611599e-06
-4.299999999999998268e-03 1.255044480785727501e-06
-4.150000000000000910e-03 1.049353159032762051e-06
-3.999999999999996614e-03 8.370261639356613159e-07
-3.849999999999999256e-03 5.973270162940025330e-07
-3.699999999999994960e-03 3.093446139246225357e-07
-3.549999999999997602e-03 -3.894092515110969543e-08
-3.400000000000000244e-03 -4.444154910743236542e-07
-3.249999999999995948e-03 -8.924689609557390213e-07
-3.099999999999998590e-03 -1.364169293083250523e-06
-2.949999999999994293e-03 -1.854074071161448956e-06
-2.799999999999996936e-03 -2.371540176682174206e-06
-2.649999999999999578e-03 -2.934219082817435265e-06
-2.499999999999995282e-03 -3.556517185643315315e-06
-2.349999999999997924e-03 -4.249333869665861130e-06
-2.200000000000000566e-03 -5.009816959500312805e-06
-2.049999999999996270e-03 -5.833047907799482346e-06
-1.899999999999998912e-03 -6.713496986776590347e-06
-1.749999999999994615e-03 -7.652124622836709023e-06
-1.599999999999997258e-03 -8.657603757455945015e-06
-1.449999999999999900e-03 -9.737501386553049088e-06
-1.299999999999995604e-03 -1.089565921574831009e-05
-1.149999999999998246e-03 -1.213440555147826672e-05
-9.999999999999939493e-04 -1.345164491795003414e-05
-8.499999999999965916e-04 -1.485625398345291615e-05
-6.999999999999992339e-04 -1.635871012695133686e-05
-5.499999999999949374e-04 -1.796789001673460007e-05
-3.999999999999975797e-04 -1.968568540178239346e-05
-2.500000000000002220e-04 -2.151244552806019783e-05
-9.999999999999592548e-05 -2.344866516068577766e-05
5.000000000000143219e-05 -2.549422788433730602e-05
2.000000000000057288e-04 -2.765163662843406200e-05
3.500000000000030864e-04 -2.992397639900445938e-05
5.000000000000004441e-04 -3.232870949432253838e-05
6.500000000000047407e-04 -3.487293724901974201e-05
8.000000000000020983e-04 -3.756824298761785030e-05
9.500000000000063949e-04 -4.042722866870462894e-05
1.100000000000003753e-03 -4.344905028119683266e-05
1.250000000000001110e-03 -4.662151332013309002e-05
1.400000000000005407e-03 -4.994013579562306404e-05
1.550000000000002764e-03 -5.340590723790228367e-05
1.700000000000000122e-03 -5.703239003196358681e-05
1.850000000000004419e-03 -6.084414781071245670e-05
2.000000000000001776e-03 -6.485817721113562584e-05
2.150000000000006073e-03 -6.908524665050208569e-05
2.300000000000003431e-03 -7.351976819336414337e-05
2.450000000000000788e-03 -7.815597928129136562e-05
2.600000000000005085e-03 -8.297964814119040966e-05
2.750000000000002442e-03 -8.800078649073839188e-05
2.899999999999999800e-03 -9.322652476839721203e-05
3.050000000000004097e-03 -9.867589687928557396e-05
3.200000000000001454e-03 -1.043668016791343689e-04
3.350000000000005751e-03 -1.103015674743801355e-04
3.500000000000003109e-03 -1.164778950624167919e-04
3.650000000000000466e-03 -1.229004701599478722e-04
3.800000000000004763e-03 -1.295681577175855637e-04
3.950000000000002121e-03 -1.364845375064760447e-04
4.100000000000006417e-03 -1.436520542483776808e-04
4.250000000000003775e-03 -1.510759757366031408e-04
4.400000000000001132e-03 -1.587631704751402140e-04
4.550000000000005429e-03 -1.667153846938163042e-04
4.700000000000002787e-03 -1.749338698573410511e-04
4.850000000000000144e-03 -1.834220311138778925e-04
5.000000000000004441e-03 -1.921869406942278147e-04
5.150000000000001799e-03 -2.012380573432892561e-04
5.300000000000006095e-03 -2.105648163706064224e-04
5.450000000000003453e-03 -2.201724273618310690e-04
5.600000000000000810e-03 -2.300625783391296864e-04
5.750000000000005107e-03 -2.402190875727683306e-04
5.900000000000002465e-03 -2.506436139810830355e-04
6.050000000000006761e-03 -2.613340911921113729e-04
6.200000000000004119e-03 -2.722989593166857958e-04
6.350000000000001477e-03 -2.835328341461718082e-04
6.500000000000005773e-03 -2.950443013105541468e-04
6.650000000000003131e-03 -3.068301011808216572e-04
6.800000000000000488e-03 -3.188835689797997475e-04
6.950000000000004785e-03 -3.311779582872986794e-04
7.100000000000002143e-03 -3.437012201175093651e-04
7.250000000000006439e-03 -3.564417129382491112e-04
7.400000000000003797e-03 -3.693973412737250328e-04
7.550000000000001155e-03 -3.825787862297147512e-04
7.700000000000005451e-03 -3.959859022870659828e-04
7.850000000000002809e-03 -4.096021584700793028e-04
8.000000000000000167e-03 -4.234061634633690119e-04
8.150000000000004463e-03 -4.373767005745321512e-04
8.300000000000001821e-03 -4.514923784881830215e-04
8.450000000000006117e-03 -4.657367826439440250e-04
8.600000000000003475e-03 -4.801037139259278774e-04
8.750000000000000833e-03 -4.945728578604757786e-04
8.900000000000005129e-03 -5.091294879093766212e-04
9.050000000000002487e-03 -5.237574223428964615e-04
9.200000000000006783e-03 -5.384205724112689495e-04
9.350000000000004141e-03 -5.531102651730179787e-04
9.500000000000001499e-03 -5.677972221747040749e-04
9.650000000000005795e-03 -5.824670661240816116e-04
9.800000000000003153e-03 -5.970757920295000076e-04
9.950000000000000511e-03 -6.116042495705187321e-04
1.010000000000000481e-02 -6.260079680941998959e-04
1.025000000000000216e-02 -6.402738508768379688e-04
1.040000000000000646e-02 -6.543550989590585232e-04
1.055000000000000382e-02 -6.682289531454443932e-04
1.070000000000000118e-02 -6.818636902607977390e-04
1.085000000000000547e-02 -6.952309631742537022e-04
1.100000000000000283e-02 -7.083026575855910778e-04
1.115000000000000713e-02 -7.210375042632222176e-04
1.130000000000000449e-02 -7.333871908485889435e-04
1.145000000000000184e-02 -7.453066646121442318e-04
1.160000000000000614e-02 -7.567511056549847126e-04
1.175000000000000350e-02 -7.676801178604364395e-04
1.190000000000000085e-02 -7.780650630593299866e-04
1.205000000000000515e-02 -7.878715405240654945e-04
1.220000000000000251e-02 -7.970647420734167099e-04
1.235000000000000681e-02 -8.056001970544457436e-04
1.250000000000000416e-02 -8.134234230965375900e-04
1.265000000000000152e-02 -8.204814512282609940e-04
1.280000000000000582e-02 -8.267273660749197006e-04
1.295000000000000318e-02 -8.321188506670296192e-04
1.310000000000000747e-02 -8.366129477508366108e-04
1.325000000000000483e-02 -8.401703671552240849e-04
1.340000000000000219e-02 -8.427522843703627586e-04
1.355000000000000648e-02 -8.443135884590446949e-04
1.370000000000000384e-02 -8.448066655546426773e-04
1.385000000000000120e-02 -8.441857644356787205e-04
1.400000000000000550e-02 -8.424103725701570511e-04
1.415000000000000285e-02 -8.394390461035072803e-04
1.430000000000000715e-02 -8.352311560884118080e-04
1.445000000000000451e-02 -8.297423482872545719e-04
1.460000000000000187e-02 -8.229288505390286446e-04
1.475000000000000616e-02 -8.147518383339047432e-04
1.490000000000000352e-02 -8.051776094362139702e-04
1.505000000000000088e-02 -7.941770600154995918e-04
1.520000000000000517e-02 -7.817212026566267014e-04
1.535000000000000253e-02 -7.677827961742877960e-04
1.550000000000000683e-02 -7.523333188146352768e-04
1.565000000000000419e-02 -7.353383116424083710e-04
1.580000000000000154e-02 -7.167656440287828445e-04
1.595000000000000584e-02 -6.965892389416694641e-04
1.610000000000000320e-02 -6.747897714376449585e-04
1.625000000000000749e-02 -6.513528060168027878e-04
1.640000000000000485e-02 -6.262758979573845863e-04
1.655000000000000221e-02 -5.995498504489660263e-04
1.670000000000000651e-02 -5.711794365197420120e-04
1.685000000000000386e-02 -5.411480087786912918e-04
1.700000000000000122e-02 -5.094505613669753075e-04
1.715000000000000552e-02 -4.760812735185027122e-04
1.730000000000000288e-02 -4.410395631566643715e-04
1.745000000000000717e-02 -4.043456865474581718e-04
1.760000000000000453e-02 -3.660165239125490189e-04
1.775000000000000189e-02 -3.260788507759571075e-04
1.790000000000000618e-02 -2.845504786819219589e-04
1.805000000000000354e-02 -2.414585324004292488e-04
1.820000000000000784e-02 -1.968265278264880180e-04
1.835000000000000520e-02 -1.506895059719681740e-04
1.850000000000000255e-02 -1.030865823850035667e-04
1.865000000000000685e-02 -5.406222771853208542e-05
1.880000000000000421e-02 -3.666966222226619720e-06
1.895000000000000157e-02 4.804925993084907532e-05
1.910000000000000586e-02 1.010468695312738419e-04
1.925000000000000322e-02 1.552581088617444038e-04
1.940000000000000752e-02 2.106279134750366211e-04
1.955000000000000487e-02 2.670768881216645241e-04
1.970000000000000223e-02 3.245217958465218544e-04
1.985000000000000653e-02 3.828780027106404305e-04
2.000000000000000389e-02 4.420818295329809189e-04
2.015000000000000818e-02 5.020517855882644653e-04
2.030000000000000554e-02 5.627069040201604366e-04
2.045000000000000290e-02 6.239642389118671417e-04
2.060000000000000719e-02 6.857308326289057732e-04
2.075000000000000455e-02 7.479010964743793011e-04
2.090000000000000191e-02 8.103635045699775219e-04
2.105000000000000621e-02 8.730072877369821072e-04
2.120000000000000356e-02 9.357328526675701141e-04
2.135000000000000786e-02 9.984301868826150894e-04
2.150000000000000522e-02 1.060999347828328609e-03
2.165000000000000258e-02 1.123341731727123260e-03
2.180000000000000687e-02 1.185338944196701050e-03
2.195000000000000423e-02 1.246865605935454369e-03
2.210000000000000159e-02 1.307808095589280128e-03
2.225000000000000588e-02 1.368042547255754471e-03
2.240000000000000324e-02 1.427443581633269787e-03
2.255000000000000754e-02 1.485908054746687412e-03
2.270000000000000490e-02 1.543313963338732719e-03
2.285000000000000225e-02 1.599537907168269157e-03
2.299999999999999961e-02 1.654469291679561138e-03
2.315000000000001085e-02 1.707977848127484322e-03
2.330000000000000820e-02 1.759950304403901100e-03
2.345000000000000556e-02 1.810289453715085983e-03
2.360000000000000292e-02 1.858885632827877998e-03
2.375000000000000028e-02 1.905626151710748672e-03
2.390000000000001151e-02 1.950392732396721840e-03
2.405000000000000887e-02 1.993083162233233452e-03
2.420000000000000623e-02 2.033585915341973305e-03
2.435000000000000359e-02 2.071793656796216965e-03
2.450000000000000094e-02 2.107626292854547501e-03
2.464999999999999830e-02 2.141003496944904327e-03
2.480000000000000954e-02 2.171836327761411667e-03
2.495000000000000689e-02 2.200040733441710472e-03
2.510000000000000425e-02 2.225546166300773621e-03
2.525000000000000161e-02 2.248274628072977066e-03
2.539999999999999897e-02 2.268142998218536377e-03
2.555000000000001020e-02 2.285090275108814240e-03
2.570000000000000756e-02 2.299066400155425072e-03
2.585000000000000492e-02 2.310022478923201561e-03
2.600000000000000228e-02 2.317917533218860626e-03
2.614999999999999963e-02 2.322722692042589188e-03
2.630000000000001087e-02 2.324393484741449356e-03
2.645000000000000823e-02 2.322908723726868629e-03
2.660000000000000558e-02 2.318251645192503929e-03
2.675000000000000294e-02 2.310407813638448715e-03
2.690000000000000030e-02 2.299369079992175102e-03
2.705000000000001154e-02 2.285145223140716553e-03
2.720000000000000889e-02 2.267740899696946144e-03
2.735000000000000625e-02 2.247179625555872917e-03
2.750000000000000361e-02 2.223460935056209564e-03
2.765000000000000097e-02 2.196625573560595512e-03
2.780000000000001220e-02 2.166703110560774803e-03
2.795000000000000956e-02 2.133762696757912636e-03
2.810000000000000692e-02 2.097841119393706322e-03
2.825000000000000427e-02 2.059007296338677406e-03
2.840000000000000163e-02 2.017317106947302818e-03
2.854999999999999899e-02 1.972819678485393524e-03
2.870000000000001023e-02 1.925592892803251743e-03
2.885000000000000758e-02 1.875713816843926907e-03
2.900000000000000494e-02 1.823281636461615562e-03
2.915000000000000230e-02 1.768390531651675701e-03
2.929999999999999966e-02 1.711147255264222622e-03
2.945000000000001089e-02 1.651654019951820374e-03
2.960000000000000825e-02 1.590014901012182236e-03
2.975000000000000561e-02 1.526328735053539276e-03
2.990000000000000296e-02 1.460714032873511314e-03
3.005000000000000032e-02 1.393287209793925285e-03
3.020000000000001156e-02 1.324179582297801971e-03
3.035000000000000892e-02 1.253516646102070808e-03
3.050000000000000627e-02 1.181433908641338348e-03
3.065000000000000363e-02 1.108062453567981720e-03
3.080000000000000099e-02 1.033528707921504974e-03
3.095000000000001222e-02 9.579754550941288471e-04
3.110000000000000958e-02 8.815406472422182560e-04
3.125000000000000694e-02 8.043670677579939365e-04
3.140000000000000430e-02 7.265927852131426334e-04
3.155000000000000165e-02 6.483581964857876301e-04
3.169999999999999901e-02 5.698040477000176907e-04
3.185000000000001025e-02 4.910581628791987896e-04
3.200000000000000761e-02 4.122661775909364223e-04
3.215000000000000496e-02 3.335618530400097370e-04
3.230000000000000232e-02 2.550916979089379311e-04
3.244999999999999968e-02 1.770005328580737114e-04
3.260000000000001091e-02 9.942427277565002441e-05
3.275000000000000827e-02 2.249144017696380615e-05
3.290000000000000563e-02 -5.367514677345752716e-05
3.305000000000000299e-02 -1.289606443606317043e-04
3.320000000000000034e-02 -2.032439806498587132e-04
3.335000000000001158e-02 -2.764018136076629162e-04
3.350000000000000894e-02 -3.483102191239595413e-04
3.365000000000000629e-02 -4.188536549918353558e-04
3.380000000000000365e-02 -4.879214684478938580e-04
3.395000000000000101e-02 -5.554157542064785957e-04
3.410000000000001225e-02 -6.212405860424041748e-04
3.425000000000000960e-02 -6.853085942566394806e-04
3.440000000000000696e-02 -7.475245511159300804e-04
3.455000000000000432e-02 -8.078091195784509182e-04
3.470000000000000168e-02 -8.660836028866469860e-04
3.485000000000001291e-02 -9.222807129845023155e-04
3.500000000000001027e-02 -9.763297857716679573e-04
3.515000000000000763e-02 -1.028168480843305588e-03
3.530000000000000498e-02 -1.077747088856995106e-03
3.545000000000000234e-02 -1.125006936490535736e-03
3.559999999999999970e-02 -1.169902039691805840e-03
3.575000000000001094e-02 -1.212395029142498970e-03
3.590000000000000829e-02 -1.252453075721859932e-03
3.605000000000000565e-02 -1.290053711272776127e-03
3.620000000000000301e-02 -1.325182034634053707e-03
3.635000000000000037e-02 -1.357823959551751614e-03
3.650000000000001160e-02 -1.387972850352525711e-03
3.665000000000000896e-02 -1.415620907209813595e-03
3.680000000000000632e-02 -1.440761145204305649e-03
3.695000000000000367e-02 -1.463396940380334854e-03
3.710000000000000103e-02 -1.483540982007980347e-03
3.725000000000001227e-02 -1.501212827861309052e-03
3.740000000000000963e-02 -1.516442745923995972e-03
3.755000000000000698e-02 -1.529260189272463322e-03
3.770000000000000434e-02 -1.539697404950857162e-03
3.785000000000000170e-02 -1.547786174342036247e-03
3.800000000000001293e-02 -1.553560607135295868e-03
3.815000000000001029e-02 -1.557066570967435837e-03
3.830000000000000765e-02 -1.558348769322037697e-03
3.845000000000000501e-02 -1.557466108351945877e-03
3.860000000000000236e-02 -1.554470742121338844e-03
3.874999999999999972e-02 -1.549421111121773720e-03
3.890000000000001096e-02 -1.542375423014163971e-03
3.905000000000000832e-02 -1.533396309241652489e-03
3.920000000000000567e-02 -1.522553851827979088e-03
3.935000000000000303e-02 -1.509917434304952621e-03
3.950000000000000039e-02 -1.495563192293047905e-03
3.965000000000001162e-02 -1.479563070461153984e-03
3.980000000000000898e-02 -1.461986335925757885e-03
3.995000000000000634e-02 -1.442902255803346634e-03
4.010000000000000370e-02 -1.422386034391820431e-03
4.025000000000000105e-02 -1.400512177497148514e-03
4.040000000000001229e-02 -1.377365668304264545e-03
4.055000000000000965e-02 -1.353026716969907284e-03
4.070000000000000701e-02 -1.327577745541930199e-03
4.085000000000000436e-02 -1.301096752285957336e-03
4.100000000000000172e-02 -1.273662433959543705e-03
4.115000000000001296e-02 -1.245347782969474792e-03
4.130000000000001031e-02 -1.216226955875754356e-03
4.145000000000000767e-02 -1.186373294331133366e-03
4.160000000000000503e-02 -1.155864680185914040e-03
4.175000000000000239e-02 -1.124780625104904175e-03
4.190000000000001362e-02 -1.093195867724716663e-03
4.205000000000001098e-02 -1.061186078004539013e-03
4.220000000000000834e-02 -1.028816564939916134e-03
4.235000000000000570e-02 -9.961567120626568794e-04
4.250000000000000305e-02 -9.632726432755589485e-04
4.265000000000000041e-02 -9.302313555963337421e-04
4.280000000000001165e-02 -8.970997878350317478e-04
4.295000000000000900e-02 -8.639385923743247986e-04
4.310000000000000636e-02 -8.308010874316096306e-04
4.325000000000000372e-02 -7.977420464158058167e-04
4.340000000000000108e-02 -7.648139144293963909e-04
4.355000000000001231e-02 -7.320718141272664070e-04
4.370000000000000967e-02 -6.995713920332491398e-04
4.385000000000000703e-02 -6.673670141026377678e-04
4.400000000000000439e-02 -6.355060613714158535e-04
4.415000000000000174e-02 -6.040274165570735931e-04
4.430000000000001298e-02 -5.729664699174463749e-04
4.445000000000001034e-02 -5.423551774583756924e-04
4.460000000000000769e-02 -5.122263683006167412e-04
4.475000000000000505e-02 -4.826128715649247169e-04
4.490000000000000241e-02 -4.535536863841116428e-04
4.505000000000001364e-02 -4.250803031027317047e-04
4.520000000000001100e-02 -3.972208651248365641e-04
4.535000000000000836e-02 -3.699996450450271368e-04
4.550000000000000572e-02 -3.434310492593795061e-04
4.565000000000000308e-02 -3.175332094542682171e-04
4.580000000000000043e-02 -2.923197171185165644e-04
4.595000000000001167e-02 -2.678051823750138283e-04
4.610000000000000903e-02 -2.440042881062254310e-04
4.625000000000000638e-02 -2.209288795711472631e-04
4.640000000000000374e-02 -1.985858252737671137e-04
4.655000000000000110e-02 -1.769794034771621227e-04
4.670000000000001233e-02 -1.561158860567957163e-04
4.685000000000000969e-02 -1.359980960842221975e-04
4.700000000000000705e-02 -1.166299261967651546e-04
4.715000000000000441e-02 -9.801403939491137862e-05
4.730000000000000177e-02 -8.014801278477534652e-05
4.745000000000001300e-02 -6.302248948486521840e-05
4.760000000000001036e-02 -4.662657011067494750e-05
4.775000000000000772e-02 -3.095276042586192489e-05
4.790000000000000507e-02 -1.599176175659522414e-05
4.805000000000000243e-02 -1.742482709232717752e-06