-4.000000000000000083e-02 0.000000000000000000e+00
-3.985000000000000347e-02 0.000000000000000000e+00
-3.969999999999999918e-02 0.000000000000000000e+00
-3.955000000000000182e-02 0.000000000000000000e+00
-3.939999999999999752e-02 0.000000000000000000e+00
-3.925000000000000017e-02 0.000000000000000000e+00
-3.910000000000000281e-02 0.000000000000000000e+00
-3.894999999999999851e-02 0.000000000000000000e+00
-3.880000000000000115e-02 0.000000000000000000e+00
-3.865000000000000380e-02 0.000000000000000000e+00
-3.849999999999999950e-02 0.000000000000000000e+00
-3.835000000000000214e-02 0.000000000000000000e+00
-3.819999999999999785e-02 0.000000000000000000e+00
-3.805000000000000049e-02 0.000000000000000000e+00
-3.790000000000000313e-02 0.000000000000000000e+00
-3.774999999999999883e-02 0.000000000000000000e+00
-3.760000000000000148e-02 0.000000000000000000e+00
-3.744999999999999718e-02 0.000000000000000000e+00
-3.729999999999999982e-02 0.000000000000000000e+00
-3.715000000000000246e-02 0.000000000000000000e+00
-3.699999999999999817e-02 0.000000000000000000e+00
-3.685000000000000081e-02 0.000000000000000000e+00
-3.670000000000000345e-02 0.000000000000000000e+00
-3.654999999999999916e-02 0.000000000000000000e+00
-3.640000000000000180e-02 0.000000000000000000e+00
-3.624999999999999750e-02 0.000000000000000000e+00
-3.610000000000000014e-02 0.000000000000000000e+00
-3.595000000000000279e-02 0.000000000000000000e+00
-3.579999999999999849e-02 0.000000000000000000e+00
-3.565000000000000113e-02 0.000000000000000000e+00
-3.550000000000000377e-02 0.000000000000000000e+00
-3.534999999999999948e-02 0.000000000000000000e+00
-3.520000000000000212e-02 0.000000000000000000e+00
-3.504999999999999782e-02 0.000000000000000000e+00
-3.490000000000000047e-02 0.000000000000000000e+00
-3.475000000000000311e-02 0.000000000000000000e+00
-3.459999999999999881e-02 0.000000000000000000e+00
-3.445000000000000145e-02 0.000000000000000000e+00
-3.429999999999999716e-02 0.000000000000000000e+00
-3.414999999999999980e-02 0.000000000000000000e+00
-3.400000000000000244e-02 0.000000000000000000e+00
-3.384999999999999815e-02 0.000000000000000000e+00
-3.370000000000000079e-02 0.000000000000000000e+00
-3.354999999999999649e-02 0.000000000000000000e+00
-3.339999999999999913e-02 0.000000000000000000e+00
-3.325000000000000178e-02 0.000000000000000000e+00
-3.309999999999999748e-02 0.000000000000000000e+00
-3.295000000000000012e-02 0.000000000000000000e+00
-3.280000000000000276e-02 0.000000000000000000e+00
-3.264999999999999847e-02 0.000000000000000000e+00
-3.250000000000000111e-02 -0.000000000000000000e+00
-3.235000000000000375e-02 -0.000000000000000000e+00
-3.219999999999999946e-02 0.000000000000000000e+00
-3.205000000000000210e-02 -0.000000000000000000e+00
-3.189999999999999780e-02 -2.802596928649634142e-45
-3.175000000000000044e-02 1.401298464324817071e-44
-3.160000000000000309e-02 8.828180325246347547e-44
-3.144999999999999879e-02 -1.703978932618977558e-42
-3.130000000000000143e-02 3.136105963158940605e-42
-3.115000000000000061e-02 1.001956427961530702e-40
-3.099999999999999978e-02 -6.379747570470167671e-40
-3.085000000000000242e-02 -3.348510580485903402e-39
-3.069999999999999812e-02 4.543794348481078841e-38
-3.055000000000000077e-02 3.566309916640823880e-38
-3.039999999999999994e-02 -2.181961345543113219e-36
-3.024999999999999911e-02 2.908727373122671107e-36
-3.010000000000000175e-02 8.200583216925403336e-35
-2.994999999999999746e-02 -2.140742353450393096e-34
-2.980000000000000010e-02 -2.617597983579770146e-33
-2.964999999999999927e-02 8.581681079814755409e-33
-2.949999999999999845e-02 7.508889229613429603e-32
-2.935000000000000109e-02 -2.457969972315171073e-31
-2.920000000000000026e-02 -1.989780916732941195e-30
-2.904999999999999943e-02 5.136744427330608369e-30
-2.890000000000000208e-02 4.813905530346198538e-29
-2.874999999999999778e-02 -6.709546314312745571e-29
-2.860000000000000042e-02 -1.013306469823967007e-27
-2.844999999999999959e-02 -3.548645089448791019e-29
-2.829999999999999877e-02 1.714799026824609592e-26
-2.815000000000000141e-02 2.790119978634658941e-26
-2.800000000000000058e-02 -2.024116749550733495e-25
-2.784999999999999976e-02 -7.663134363089519644e-25
-2.769999999999999893e-02 9.750447992352672803e-25
-2.754999999999999810e-02 1.107709805641387346e-23
-2.740000000000000074e-02 1.531557512496308956e-23
-2.724999999999999992e-02 -7.220123903504763413e-23
-2.709999999999999909e-02 -3.259889814477267868e-22
-2.695000000000000173e-02 -2.777010762560444097e-22
-2.679999999999999744e-02 1.705691457575700323e-21
-2.665000000000000008e-02 6.942550307171002718e-21
-2.649999999999999925e-02 1.042035445226134768e-20
-2.634999999999999842e-02 -6.827681254157669624e-21
-2.620000000000000107e-02 -7.737524998003447717e-20
-2.605000000000000024e-02 -2.352183456058919215e-19
-2.589999999999999941e-02 -5.051736757468536790e-19
-2.575000000000000205e-02 -9.084702362880279327e-19
-2.559999999999999776e-02 -1.474196221210754035e-18
-2.545000000000000040e-02 -2.236651501795155831e-18
-2.529999999999999957e-02 -3.226596857070549038e-18
-2.514999999999999875e-02 -4.475977692101001877e-18
-2.500000000000000139e-02 -6.025381691592960034e-18
-2.484999999999999709e-02 -7.918094596615864032e-18
-2.469999999999999973e-02 -1.019672489411262660e-17
-2.454999999999999891e-02 -1.291112800037273755e-17
-2.439999999999999808e-02 -1.611812708757552712e-17
-2.425000000000000072e-02 -1.987554869798335237e-17
-2.409999999999999989e-02 -2.424754234246092569e-17
-2.394999999999999907e-02 -2.930759143790500785e-17
-2.379999999999999824e-02 -3.513277598251574019e-17
-2.365000000000000088e-02 -4.180704819102235459e-17
-2.350000000000000006e-02 -4.942551398153374796e-17
-2.334999999999999923e-02 -5.808953275758971810e-17
-2.319999999999999840e-02 -6.790917248021902108e-17
-2.304999999999999757e-02 -7.900769960430430909e-17
-2.290000000000000022e-02 -9.151738361851526147e-17
-2.274999999999999939e-02 -1.055820546877625987e-16
-2.259999999999999856e-02 -1.213612660260404491e-16
-2.244999999999999774e-02 -1.390267469459597217e-16
-2.230000000000000038e-02 -1.587656057020799113e-16
-2.214999999999999955e-02 -1.807838698239308257e-16
-2.199999999999999872e-02 -2.053035281181420958e-16
-2.184999999999999790e-02 -2.325669246518570574e-16
-2.170000000000000054e-02 -2.628391675026765057e-16
-2.154999999999999971e-02 -2.964062626391967756e-16
-2.139999999999999888e-02 -3.335804475815994834e-16
-2.124999999999999806e-02 -3.747015413604112138e-16
-2.110000000000000070e-02 -4.201366798187075027e-16
-2.094999999999999987e-02 -4.702862977823028204e-16
-2.079999999999999905e-02 -5.255844202273261909e-16
-2.064999999999999822e-02 -5.865005945741321152e-16
-2.049999999999999739e-02 -6.535459522668293601e-16
-2.035000000000000003e-02 -7.272728646661461363e-16
-2.019999999999999921e-02 -8.082797076097584035e-16
-2.004999999999999838e-02 -8.972153083352629559e-16
-1.989999999999999755e-02 -9.947800572109206929e-16
-1.975000000000000019e-02 -1.101732895757471468e-15
-1.959999999999999937e-02 -1.218894387142567884e-15
-1.944999999999999854e-02 -1.347150316070801126e-15
-1.929999999999999771e-02 -1.487459100321989434e-15
-1.915000000000000036e-02 -1.640854225970901463e-15
-1.899999999999999953e-02 -1.808450917771715905e-15
-1.884999999999999870e-02 -1.991453021300717934e-15
-1.869999999999999787e-02 -2.191157132241917070e-15
-1.855000000000000052e-02 -2.408961278474756537e-15
-1.839999999999999969e-02 -2.646372119854164921e-15
-1.824999999999999886e-02 -2.905011300957660580e-15
-1.809999999999999803e-02 -3.186624556689534628e-15
-1.794999999999999721e-02 -3.493090394368560288e-15
-1.779999999999999985e-02 -3.826426869991570931e-15
-1.764999999999999902e-02 -4.188804929002379329e-15
-1.749999999999999820e-02 -4.582552429698277113e-15
-1.734999999999999737e-02 -5.010174048504295249e-15
-1.720000000000000001e-02 -5.474354032830282615e-15
-1.704999999999999918e-02 -5.977975259312219222e-15
-1.689999999999999836e-02 -6.524126857108741503e-15
-1.674999999999999753e-02 -7.116119454494192892e-15
-1.660000000000000017e-02 -7.757502966550516160e-15
-1.644999999999999934e-02 -8.452074218463778710e-15
-1.629999999999999852e-02 -9.203900662446695691e-15
-1.614999999999999769e-02 -1.001732588345278716e-14
-1.600000000000000033e-02 -1.089700432752721548e-14
-1.584999999999999951e-02 -1.184789791367499637e-14
-1.569999999999999868e-02 -1.287532346770604505e-14
-1.554999999999999785e-02 -1.398494509893865104e-14
-1.539999999999999702e-02 -1.518281824591273532e-14
-1.524999999999999967e-02 -1.647539221748869215e-14
-1.509999999999999884e-02 -1.786954746229706820e-14
-1.494999999999999801e-02 -1.937261420346340218e-14
-1.479999999999999719e-02 -2.099240547289316777e-14
-1.464999999999999983e-02 -2.273723913412840220e-14
-1.449999999999999900e-02 -2.461597345773149093e-14
-1.434999999999999817e-02 -2.663802575601000727e-14
-1.419999999999999735e-02 -2.881340457026870805e-14
-1.404999999999999999e-02 -3.115273338773205669e-14
-1.389999999999999916e-02 -3.366730993385053106e-14
-1.374999999999999833e-02 -3.636911464263009597e-14
-1.359999999999999751e-02 -3.927088350146566709e-14
-1.344999999999999668e-02 -4.238614532059079010e-14
-1.329999999999999932e-02 -4.572932337703131123e-14
-1.314999999999999850e-02 -4.931577607218684545e-14
-1.299999999999999767e-02 -5.316188163512550191e-14
-1.284999999999999684e-02 -5.728490598544411228e-14
-1.269999999999999948e-02 -6.170263681503501685e-14
-1.254999999999999866e-02 -6.643251622634807618e-14
-1.239999999999999783e-02 -7.149042778121020292e-14
-1.224999999999999700e-02 -7.688970039007939072e-14
-1.209999999999999964e-02 -8.264205698894563912e-14
-1.194999999999999882e-02 -8.876388935940421332e-14
-1.179999999999999799e-02 -9.529213491421897886e-14
-1.164999999999999716e-02 -1.023131300276376721e-13
-1.149999999999999981e-02 -1.100008755958170603e-13
-1.134999999999999898e-02 -1.186444741280504034e-13
-1.119999999999999815e-02 -1.286161390064155530e-13
-1.104999999999999732e-02 -1.401951742630719311e-13
-1.089999999999999650e-02 -1.531395588680664610e-13
-1.074999999999999914e-02 -1.659273846793540841e-13
-1.059999999999999831e-02 -1.747412707153034317e-13
-1.044999999999999749e-02 -1.726155026207654153e-13
-1.029999999999999666e-02 -1.497466565894903234e-13
-1.014999999999999930e-02 -9.670209240569133113e-14
-9.999999999999998473e-03 -1.282965907448661846e-14
-9.849999999999997646e-03 7.808133344533105258e-14
-9.699999999999996819e-03 1.049278258681216047e-13
-9.549999999999999462e-03 -7.566048617702395007e-14
-9.399999999999998634e-03 -6.923699352560930276e-13
-9.249999999999997807e-03 -2.034340361098396777e-12
-9.099999999999996980e-03 -4.350414559844972828e-12
-8.949999999999999623e-03 -7.629570586420442169e-12
-8.799999999999998795e-03 -1.123259991964165039e-11
-8.649999999999997968e-03 -1.338928447280895995e-11
-8.500000000000000611e-03 -1.066175880221065242e-11
-8.349999999999996314e-03 2.395280588457504578e-12
-8.199999999999998956e-03 3.299086698271835871e-11
-8.049999999999994660e-03 8.874651014068035693e-11
-7.899999999999997302e-03 1.746671002278432638e-10
-7.749999999999999944e-03 2.879987914816695138e-10
-7.599999999999995648e-03 4.109350359993158008e-10
-7.449999999999998290e-03 5.018200854856047499e-10
-7.300000000000000933e-03 4.864066371901287766e-10
-7.149999999999996636e-03 2.516532537910620704e-10
-6.999999999999999278e-03 -3.548416005472176948e-10
-6.849999999999994982e-03 -1.516773040499685976e-09
-6.699999999999997624e-03 -3.430601580589609512e-09
-6.550000000000000266e-03 -6.277072639448988411e-09
-6.399999999999995970e-03 -1.018654138817964849e-08
-6.249999999999998612e-03 -1.520524683940038813e-08
-6.099999999999994316e-03 -2.127208453828188794e-08
-5.949999999999996958e-03 -2.821554900833689317e-08
-5.799999999999999600e-03 -3.577753560080054740e-08
-5.649999999999995304e-03 -4.366440009562211344e-08
-5.499999999999997946e-03 -5.161735927572408400e-08
-5.350000000000000588e-03 -5.948628256646770751e-08
-5.199999999999996292e-03 -6.728605939088083687e-08
-5.049999999999998934e-03 -7.521585843051070697e-08
-4.899999999999994638e-03 -8.362976444686864852e-08
-4.749999999999997280e-03 -9.296136482817018987e-08
-4.599999999999999922e-03 -1.036207208926498424e-07
-4.449999999999995626e-03 -1.158945295287594490e-07
-4.299999999999998268e-03 -1.298833609553184942e-07
-4.150000000000000910e-03 -1.455009623896330595e-07
-3.999999999999996614e-03 -1.625408145855544717e-07
-3.849999999999999256e-03 -1.807908915907319169e-07
-3.699999999999994960e-03 -2.001573164989167708e-07
-3.549999999999997602e-03 -2.207505218621008680e-07
-3.400000000000000244e-03 -2.428990626412996789e-07
-3.249999999999995948e-03 -2.670819867489626631e-07
-3.099999999999998590e-03 -2.938041632205568021e-07
-2.949999999999994293e-03 -3.234640075788774993e-07
-2.799999999999996936e-03 -3.562695383152458817e-07
-2.649999999999999578e-03 -3.922410201084858272e-07
-2.499999999999995282e-03 -4.313024533075804356e-07
-2.349999999999997924e-03 -4.734246772386541124e-07
-2.200000000000000566e-03 -5.187575311538239475e-07
-2.049999999999996270e-03 -5.676910745933128055e-07
-1.899999999999998912e-03 -6.208157401488278992e-07
-1.749999999999994615e-03 -6.787990969314705580e-07
-1.599999999999997258e-03 -7.422362955367134418e-07
-1.449999999999999900e-03 -8.115471246128436178e-07
-1.299999999999995604e-03 -8.869719181348045822e-07
-1.149999999999998246e-03 -9.686708608569460921e-07
-9.999999999999939493e-04 -1.056880023497797083e-06
-8.499999999999965916e-04 -1.152046706920373254e-06
-6.999999999999992339e-04 -1.254875201084360015e-06
-5.499999999999949374e-04 -1.366259084534249268e-06
-3.999999999999975797e-04 -1.487136046307568904e-06
-2.500000000000002220e-04 -1.618340775166871026e-06
-9.999999999999592548e-05 -1.760537202244449873e-06
5.000000000000143219e-05 -1.914269432745641097e-06
2.000000000000057288e-04 -2.080103968182811514e-06
3.500000000000030864e-04 -2.258791482745436952e-06
5.000000000000004441e-04 -2.451355840094038285e-06
6.500000000000047407e-04 -2.659066467458615080e-06
8.000000000000020983e-04 -2.883306024159537628e-06
9.500000000000063949e-04 -3.125413741145166568e-06
1.100000000000003753e-03 -3.386593107279622927e-06
1.250000000000001110e-03 -3.667941655294271186e-06
1.400000000000005407e-03 -3.970587840740336105e-06
1.550000000000002764e-03 -4.295856342650949955e-06
1.700000000000000122e-03 -4.645372428058180958e-06
1.850000000000004419e-03 -5.021036031394032761e-06
2.000000000000001776e-03 -5.424894879979547113e-06
2.150000000000006073e-03 -5.858986241946695372e-06
2.300000000000003431e-03 -6.325247795757604763e-06
2.450000000000000788e-03 -6.825560376455541700e-06
2.600000000000005085e-03 -7.361894859059248120e-06
2.750000000000002442e-03 -7.936476322356611490e-06
2.899999999999999800e-03 -8.551865903427824378e-06
3.050000000000004097e-03 -9.210922144120559096e-06
3.200000000000001454e-03 -9.916653652908280492e-06
3.350000000000005751e-03 -1.067207267624326050e-05
3.500000000000003109e-03 -1.148014143836917356e-05
3.650000000000000466e-03 -1.234384581039194018e-05
3.800000000000004763e-03 -1.326636174781015143e-05
3.950000000000002121e-03 -1.425119990017265081e-05
4.100000000000006417e-03 -1.530225381429772824e-05
4.250000000000003775e-03 -1.642370261834003031e-05
4.400000000000001132e-03 -1.761986641213297844e-05
4.550000000000005429e-03 -1.889507620944641531e-05
4.700000000000002787e-03 -2.025368848990183324e-05
4.850000000000000144e-03 -2.170020161429420114e-05
5.000000000000004441e-03 -2.323942862858530134e-05
5.150000000000001799e-03 -2.487660276528913528e-05
5.300000000000006095e-03 -2.661734288267325610e-05
5.450000000000003453e-03 -2.846752795448992401e-05
5.600000000000000810e-03 -3.043313881789799780e-05
5.750000000000005107e-03 -3.252020906074903905e-05
5.900000000000002465e-03 -3.473491597105748951e-05
6.050000000000006761e-03 -3.708371878019534051e-05
6.200000000000004119e-03 -3.957350054406560957e-05
6.350000000000001477e-03 -4.221159906592220068e-05
6.500000000000005773e-03 -4.500570867094211280e-05
6.650000000000003131e-03 -4.796370194526389241e-05
6.800000000000000488e-03 -5.109355333843268454e-05
6.950000000000004785e-03 -5.440335735329426825e-05
7.100000000000002143e-03 -5.790148861706256866e-05
7.250000000000006439e-03 -6.159675103845074773e-05
7.400000000000003797e-03 -6.549841054948046803e-05
7.550000000000001155e-03 -6.961614417377859354e-05
7.700000000000005451e-03 -7.395985448965802789e-05
7.850000000000002809e-03 -7.853956776671111584e-05
8.000000000000000167e-03 -8.336544124176725745e-05
8.150000000000004463e-03 -8.844787225825712085e-05
8.300000000000001821e-03 -9.379765106132254004e-05
8.450000000000006117e-03 -9.942601172951981425e-05
8.600000000000003475e-03 -1.053445957950316370e-04
8.750000000000000833e-03 -1.115652921725995839e-04
8.900000000000005129e-03 -1.181001061922870576e-04
9.050000000000002487e-03 -1.249611086677759886e-04
9.200000000000006783e-03 -1.321605232078582048e-04
9.350000000000004141e-03 -1.397109299432486296e-04
9.500000000000001499e-03 -1.476253237342461944e-04
9.650000000000005795e-03 -1.559170341352000833e-04
9.800000000000003153e-03 -1.645995507715269923e-04
9.950000000000000511e-03 -1.736863341648131609e-04
1.010000000000000481e-02 -1.831908593885600567e-04
1.025000000000000216e-02 -1.931267324835062027e-04
1.040000000000000646e-02 -2.035078068729490042e-04
1.055000000000000382e-02 -2.143480960512533784e-04
1.070000000000000118e-02 -2.256617299281060696e-04
1.085000000000000547e-02 -2.374629402766004205e-04
1.100000000000000283e-02 -2.497659297659993172e-04
1.115000000000000713e-02 -2.625847409944981337e-04
1.130000000000000449e-02 -2.759332419373095036e-04
1.145000000000000184e-02 -2.898250822909176350e-04
1.160000000000000614e-02 -3.042741736862808466e-04
1.175000000000000350e-02 -3.192944277543574572e-04
1.190000000000000085e-02 -3.348997561261057854e-04
1.205000000000000515e-02 -3.511033719405531883e-04
1.220000000000000251e-02 -3.679178480524569750e-04
1.235000000000000681e-02 -3.853556700050830841e-04
1.250000000000000416e-02 -4.034292651340365410e-04
1.265000000000000152e-02 -4.221509443596005440e-04
1.280000000000000582e-02 -4.415321454871445894e-04
1.295000000000000318e-02 -4.615836369339376688e-04
1.310000000000000747e-02 -4.823156923521310091e-04
1.325000000000000483e-02 -5.037382943555712700e-04
1.340000000000000219e-02 -5.258608725853264332e-04
1.355000000000000648e-02 -5.486914888024330139e-04
1.370000000000000384e-02 -5.722373607568442822e-04
1.385000000000000120e-02 -5.965052987448871136e-04
1.400000000000000550e-02 -6.215018802322447300e-04
1.415000000000000285e-02 -6.472325767390429974e-04
1.430000000000000715e-02 -6.737007643096148968e-04
1.445000000000000451e-02 -7.009083637967705727e-04
1.460000000000000187e-02 -7.288570050150156021e-04
1.475000000000000616e-02 -7.575483177788555622e-04
1.490000000000000352e-02 -7.869823020882904530e-04
1.505000000000000088e-02 -8.171564550139009953e-04
1.520000000000000517e-02 -8.480661781504750252e-04
1.535000000000000253e-02 -8.797064656391739845e-04
1.550000000000000683e-02 -9.120721369981765747e-04
1.565000000000000419e-02 -9.451561491005122662e-04
1.580000000000000154e-02 -9.789481991901993752e-04
1.595000000000000584e-02 -1.013435772620141506e-03
1.610000000000000320e-02 -1.048606121912598610e-03
1.625000000000000749e-02 -1.084446208551526070e-03
1.640000000000000485e-02 -1.120940432883799076e-03
1.655000000000000221e-02 -1.158068771474063396e-03
1.670000000000000651e-02 -1.195809221826493740e-03
1.685000000000000386e-02 -1.234140014275908470e-03
1.700000000000000122e-02 -1.273039262741804123e-03
1.715000000000000552e-02 -1.312481705099344254e-03
1.730000000000000288e-02 -1.352437073364853859e-03
1.745000000000000717e-02 -1.392872654832899570e-03
1.760000000000000453e-02 -1.433756668120622635e-03
1.775000000000000189e-02 -1.475057215429842472e-03
1.790000000000000618e-02 -1.516738440841436386e-03
1.805000000000000354e-02 -1.558759366162121296e-03
1.820000000000000784e-02 -1.601076568476855755e-03
1.835000000000000520e-02 -1.643647789023816586e-03
1.850000000000000255e-02 -1.686430769041180611e-03
1.865000000000000685e-02 -1.729378942400217056e-03
1.880000000000000421e-02 -1.772440155036747456e-03
1.895000000000000157e-02 -1.815560623072087765e-03
1.910000000000000586e-02 -1.858688308857381344e-03
1.925000000000000322e-02 -1.901770825497806072e-03
1.940000000000000752e-02 -1.944750896655023098e-03
1.955000000000000487e-02 -1.987565774470567703e-03
1.970000000000000223e-02 -2.030152129009366035e-03
1.985000000000000653e-02 -2.072448609396815300e-03
2.000000000000000389e-02 -2.114393748342990875e-03
2.015000000000000818e-02 -2.155920723453164101e-03
2.030000000000000554e-02 -2.196958288550376892e-03
2.045000000000000290e-02 -2.237434731796383858e-03
2.060000000000000719e-02 -2.277281368151307106e-03
2.075000000000000455e-02 -2.316428348422050476e-03
2.090000000000000191e-02 -2.354801865294575691e-03
2.105000000000000621e-02 -2.392324618995189667e-03
2.120000000000000356e-02 -2.428920473903417587e-03
2.135000000000000786e-02 -2.464514691382646561e-03
2.150000000000000522e-02 -2.499032299965620041e-03
2.165000000000000258e-02 -2.532395534217357635e-03
2.180000000000000687e-02 -2.564525231719017029e-03
2.195000000000000423e-02 -2.595343394204974174e-03
2.210000000000000159e-02 -2.624773420393466949e-03
2.225000000000000588e-02 -2.652738709002733231e-03
2.240000000000000324e-02 -2.679161261767148972e-03
2.255000000000000754e-02 -2.703963080421090126e-03
2.270000000000000490e-02 -2.727068727836012840e-03
2.285000000000000225e-02 -2.748403465375304222e-03
2.299999999999999961e-02 -2.767892787232995033e-03
2.315000000000001085e-02 -2.785463118925690651e-03
2.330000000000000820e-02 -2.801043214276432991e-03
2.345000000000000556e-02 -2.814562991261482239e-03
2.360000000000000292e-02 -2.825953764840960503e-03
2.375000000000000028e-02 -2.835148246958851814e-03
2.390000000000001151e-02 -2.842082642018795013e-03
2.405000000000000887e-02 -2.846696181222796440e-03
2.420000000000000623e-02 -2.848929958418011665e-03
2.435000000000000359e-02 -2.848725998774170876e-03
2.450000000000000094e-02 -2.846028655767440796e-03
2.464999999999999830e-02 -2.840788336470723152e-03
2.480000000000000954e-02 -2.832960104569792747e-03
2.495000000000000689e-02 -2.822499955072999001e-03
2.510000000000000425e-02 -2.809364814311265945e-03
2.525000000000000161e-02 -2.793516730889678001e-03
2.539999999999999897e-02 -2.774923807010054588e-03
2.555000000000001020e-02 -2.753559267148375511e-03
2.570000000000000756e-02 -2.729397965595126152e-03
2.585000000000000492e-02 -2.702417317777872086e-03
2.600000000000000228e-02 -2.672599628567695618e-03
2.614999999999999963e-02 -2.639934420585632324e-03
2.630000000000001087e-02 -2.604416338726878166e-03
2.645000000000000823e-02 -2.566041890531778336e-03
2.660000000000000558e-02 -2.524811541661620140e-03
2.675000000000000294e-02 -2.480732277035713196e-03
2.690000000000000030e-02 -2.433816669508814812e-03
2.705000000000001154e-02 -2.384082181379199028e-03
2.720000000000000889e-02 -2.331549534574151039e-03
2.735000000000000625e-02 -2.276243874803185463e-03
2.750000000000000361e-02 -2.218197332695126534e-03
2.765000000000000097e-02 -2.157446229830384254e-03
2.780000000000001220e-02 -2.094031311571598053e-03
2.795000000000000956e-02 -2.027997747063636780e-03
2.810000000000000692e-02 -1.959396759048104286e-03
2.825000000000000427e-02 -1.888283761218190193e-03
2.840000000000000163e-02 -1.814717776142060757e-03
2.854999999999999899e-02 -1.738761784508824348e-03
2.870000000000001023e-02 -1.660484937019646168e-03
2.885000000000000758e-02 -1.579961855895817280e-03
2.900000000000000494e-02 -1.497269491665065289e-03
2.915000000000000230e-02 -1.412487123161554337e-03
2.929999999999999966e-02 -1.325698336586356163e-03
2.945000000000001089e-02 -1.236992422491312027e-03
2.960000000000000825e-02 -1.146463095210492611e-03
2.975000000000000561e-02 -1.054205349646508694e-03
2.990000000000000296e-02 -9.603150538168847561e-04
3.005000000000000032e-02 -8.648918592371046543e-04
3.020000000000001156e-02 -7.680403650738298893e-04
3.035000000000000892e-02 -6.698674405924975872e-04
3.050000000000000627e-02 -5.704803625121712685e-04
3.065000000000000363e-02 -4.699869896285235882e-04
3.080000000000000099e-02 -3.684981202241033316e-04
3.095000000000001222e-02 -2.661267935764044523e-04
3.110000000000000958e-02 -1.629865873837843537e-04
3.125000000000000694e-02 -5.919082468608394265e-05
3.140000000000000430e-02 4.514640750130638480e-05
3.155000000000000165e-02 1.499101635999977589e-04
3.169999999999999901e-02 2.549859636928886175e-04
3.185000000000001025e-02 3.602606884669512510e-04
3.200000000000000761e-02 4.656216478906571865e-04
3.215000000000000496e-02 5.709562101401388645e-04
3.230000000000000232e-02 6.761531112715601921e-04
3.244999999999999968e-02 7.811040850356221199e-04
3.260000000000001091e-02 8.857030188664793968e-04
3.275000000000000827e-02 9.898443240672349930e-04
3.290000000000000563e-02 1.093423808924853802e-03
3.305000000000000299e-02 1.196341356262564659e-03
3.320000000000000034e-02 1.298501738347113132e-03
3.335000000000001158e-02 1.399812288582324982e-03
3.350000000000000894e-02 1.500181504525244236e-03
3.365000000000000629e-02 1.599521143361926079e-03
3.380000000000000365e-02 1.697748666629195213e-03
3.395000000000000101e-02 1.794787123799324036e-03
3.410000000000001225e-02 1.890562591142952442e-03
3.425000000000000960e-02 1.985004171729087830e-03
3.440000000000000696e-02 2.078045159578323364e-03
3.455000000000000432e-02 2.169625135138630867e-03
3.470000000000000168e-02 2.259689616039395332e-03
3.485000000000001291e-02 2.348187379539012909e-03
3.500000000000001027e-02 2.435072558000683784e-03
3.515000000000000763e-02 2.520304638892412186e-03
3.530000000000000498e-02 2.603847999125719070e-03
3.545000000000000234e-02 2.685672603547573090e-03
3.559999999999999970e-02 2.765752607956528664e-03
3.575000000000001094e-02 2.844069153070449829e-03
3.590000000000000829e-02 2.920609433203935623e-03
3.605000000000000565e-02 2.995364135131239891e-03
3.620000000000000301e-02 3.068327903747558594e-03
3.635000000000000037e-02 3.139501903206110001e-03
3.650000000000001160e-02 3.208893351256847382e-03
3.665000000000000896e-02 3.276514820754528046e-03
3.680000000000000632e-02 3.342381678521633148e-03
3.695000000000000367e-02 3.406513249501585960e-03
3.710000000000000103e-02 3.468934912234544754e-03
3.725000000000001227e-02 3.529678098857402802e-03
3.740000000000000963e-02 3.588777501136064529e-03
3.755000000000000698e-02 3.646269906312227249e-03
3.770000000000000434e-02 3.702195361256599426e-03
3.785000000000000170e-02 3.756598569452762604e-03
3.800000000000001293e-02 3.809528890997171402e-03
3.815000000000001029e-02 3.861037548631429672e-03
3.830000000000000765e-02 3.911178093403577805e-03
3.845000000000000501e-02 3.960006870329380035e-03
3.860000000000000236e-02 4.007583484053611755e-03
3.874999999999999972e-02 4.053967073559761047e-03
3.890000000000001096e-02 4.099219106137752533e-03
3.905000000000000832e-02 4.143401049077510834e-03
3.920000000000000567e-02 4.186577629297971725e-03
3.935000000000000303e-02 4.228812642395496368e-03
3.950000000000000039e-02 4.270169418305158615e-03
3.965000000000001162e-02 4.310712218284606934e-03
3.980000000000000898e-02 4.350505769252777100e-03
3.995000000000000634e-02 4.389613866806030273e-03
4.010000000000000370e-02 4.428097046911716461e-03
4.025000000000000105e-02 4.466012120246887207e-03
4.040000000000001229e-02 4.503416363149881363e-03
4.055000000000000965e-02 4.540366120636463165e-03
4.070000000000000701e-02 4.576915875077247620e-03
4.085000000000000436e-02 4.613114986568689346e-03
4.100000000000000172e-02 4.649009089916944504e-03
4.115000000000001296e-02 4.684641957283020020e-03
4.130000000000001031e-02 4.720053635537624359e-03
4.145000000000000767e-02 4.755278583616018295e-03
4.160000000000000503e-02 4.790346138179302216e-03
4.175000000000000239e-02 4.825281444936990738e-03
4.190000000000001362e-02 4.860105924308300018e-03
4.205000000000001098e-02 4.894836340099573135e-03
4.220000000000000834e-02 4.929482936859130859e-03
4.235000000000000570e-02 4.964052233844995499e-03
4.250000000000000305e-02 4.998543765395879745e-03
4.265000000000000041e-02 5.032950546592473984e-03
4.280000000000001165e-02 5.067258141934871674e-03
4.295000000000000900e-02 5.101445596665143967e-03
4.310000000000000636e-02 5.135488696396350861e-03
4.325000000000000372e-02 5.169357638806104660e-03
4.340000000000000108e-02 5.203015170991420746e-03
4.355000000000001231e-02 5.236416589468717575e-03
4.370000000000000967e-02 5.269510671496391296e-03
4.385000000000000703e-02 5.302242469042539597e-03
4.400000000000000439e-02 5.334547720849514008e-03
4.415000000000000174e-02 5.366355646401643753e-03
4.430000000000001298e-02 5.397588945925235748e-03
4.445000000000001034e-02 5.428165663033723831e-03
4.460000000000000769e-02 5.458000116050243378e-03
4.475000000000000505e-02 5.486999638378620148e-03
4.490000000000000241e-02 5.515065509825944901e-03
4.505000000000001364e-02 5.542092956602573395e-03
4.520000000000001100e-02 5.567972082644701004e-03
4.535000000000000836e-02 5.592588335275650024e-03
4.550000000000000572e-02 5.615821108222007751e-03
4.565000000000000308e-02 5.637547001242637634e-03
4.580000000000000043e-02 5.657640751451253891e-03
4.595000000000001167e-02 5.675972439348697662e-03
4.610000000000000903e-02 5.692407488822937012e-03
4.625000000000000638e-02 5.706808529794216156e-03
4.640000000000000374e-02 5.719037260860204697e-03
4.655000000000000110e-02 5.728952120989561081e-03
4.670000000000001233e-02 5.736409220844507217e-03
4.685000000000000969e-02 5.741262808442115784e-03
4.700000000000000705e-02 5.743369460105895996e-03
4.715000000000000441e-02 5.742585752159357071e-03
4.730000000000000177e-02 5.738766863942146301e-03
4.745000000000001300e-02 5.731768906116485596e-03
4.760000000000001036e-02 5.721447989344596863e-03
4.775000000000000772e-02 5.707662552595138550e-03