-4.000000000000000083e-02 0.000000000000000000e+00
-3.985000000000000347e-02 0.000000000000000000e+00
-3.969999999999999918e-02 0.000000000000000000e+00
-3.955000000000000182e-02 0.000000000000000000e+00
-3.939999999999999752e-02 0.000000000000000000e+00
-3.925000000000000017e-02 0.000000000000000000e+00
-3.910000000000000281e-02 0.000000000000000000e+00
-3.894999999999999851e-02 0.000000000000000000e+00
-3.880000000000000115e-02 0.000000000000000000e+00
-3.865000000000000380e-02 0.000000000000000000e+00
-3.849999999999999950e-02 0.000000000000000000e+00
-3.835000000000000214e-02 0.000000000000000000e+00
-3.819999999999999785e-02 0.000000000000000000e+00
-3.805000000000000049e-02 0.000000000000000000e+00
-3.790000000000000313e-02 0.000000000000000000e+00
-3.774999999999999883e-02 0.000000000000000000e+00
-3.760000000000000148e-02 0.000000000000000000e+00
-3.744999999999999718e-02 0.000000000000000000e+00
-3.729999999999999982e-02 0.000000000000000000e+00
-3.715000000000000246e-02 0.000000000000000000e+00
-3.699999999999999817e-02 0.000000000000000000e+00
-3.685000000000000081e-02 0.000000000000000000e+00
-3.670000000000000345e-02 0.000000000000000000e+00
-3.654999999999999916e-02 0.000000000000000000e+00
-3.640000000000000180e-02 0.000000000000000000e+00
-3.624999999999999750e-02 0.000000000000000000e+00
-3.610000000000000014e-02 0.000000000000000000e+00
-3.595000000000000279e-02 0.000000000000000000e+00
-3.579999999999999849e-02 0.000000000000000000e+00
-3.565000000000000113e-02 0.000000000000000000e+00
-3.550000000000000377e-02 0.000000000000000000e+00
-3.534999999999999948e-02 0.000000000000000000e+00
-3.520000000000000212e-02 0.000000000000000000e+00
-3.504999999999999782e-02 0.000000000000000000e+00
-3.490000000000000047e-02 0.000000000000000000e+00
-3.475000000000000311e-02 0.000000000000000000e+00
-3.459999999999999881e-02 0.000000000000000000e+00
-3.445000000000000145e-02 0.000000000000000000e+00
-3.429999999999999716e-02 0.000000000000000000e+00
-3.414999999999999980e-02 0.000000000000000000e+00
-3.400000000000000244e-02 0.000000000000000000e+00
-3.384999999999999815e-02 0.000000000000000000e+00
-3.370000000000000079e-02 0.000000000000000000e+00
-3.354999999999999649e-02 0.000000000000000000e+00
-3.339999999999999913e-02 0.000000000000000000e+00
-3.325000000000000178e-02 0.000000000000000000e+00
-3.309999999999999748e-02 0.000000000000000000e+00
-3.295000000000000012e-02 0.000000000000000000e+00
-3.280000000000000276e-02 0.000000000000000000e+00
-3.264999999999999847e-02 0.000000000000000000e+00
-3.250000000000000111e-02 0.000000000000000000e+00
-3.235000000000000375e-02 0.000000000000000000e+00
-3.219999999999999946e-02 0.000000000000000000e+00
-3.205000000000000210e-02 0.000000000000000000e+00
-3.189999999999999780e-02 0.000000000000000000e+00
-3.175000000000000044e-02 0.000000000000000000e+00
-3.160000000000000309e-02 0.000000000000000000e+00
-3.144999999999999879e-02 0.000000000000000000e+00
-3.130000000000000143e-02 0.000000000000000000e+00
-3.115000000000000061e-02 0.000000000000000000e+00
-3.099999999999999978e-02 0.000000000000000000e+00
-3.085000000000000242e-02 -0.000000000000000000e+00
-3.069999999999999812e-02 0.000000000000000000e+00
-3.055000000000000077e-02 -0.000000000000000000e+00
-3.039999999999999994e-02 4.203895392974451213e-45
-3.024999999999999911e-02 -4.624284932271896334e-44
-3.010000000000000175e-02 5.479076995510034747e-43
-2.994999999999999746e-02 -4.181474617545254140e-42
-2.980000000000000010e-02 -2.733933303897718105e-42
-2.964999999999999927e-02 7.599395714864558705e-40
-2.949999999999999845e-02 -1.510630152718828651e-38
-2.935000000000000109e-02 1.832742903259259247e-37
-2.920000000000000026e-02 -1.374900422700683871e-36
-2.904999999999999943e-02 2.204325082519618415e-36
-2.890000000000000208e-02 1.025932898489306181e-34
-2.874999999999999778e-02 -1.605230106227960847e-33
-2.860000000000000042e-02 1.203162402167973247e-32
-2.844999999999999959e-02 -2.307448243953323634e-32
-2.829999999999999877e-02 -5.391188078888130025e-31
-2.815000000000000141e-02 6.509518327509025824e-30
-2.800000000000000058e-02 -2.795636874775316662e-29
-2.784999999999999976e-02 -9.018120621903945064e-29
-2.769999999999999893e-02 1.811639676290458555e-27
-2.754999999999999810e-02 -7.728964096887993545e-27
-2.740000000000000074e-02 -1.964694446010279932e-26
-2.724999999999999992e-02 3.247067842873204690e-25
-2.709999999999999909e-02 -7.648446759110435931e-25
-2.695000000000000173e-02 -5.140774594219198958e-24
-2.679999999999999744e-02 2.956835266220173963e-23
-2.665000000000000008e-02 3.281442062387757669e-23
-2.649999999999999925e-02 -5.128654598380255751e-22
-2.634999999999999842e-02 -1.414835345541660278e-24
-2.620000000000000107e-02 5.923061915206116831e-21
-2.605000000000000024e-02 1.583061022996951155e-21
-2.589999999999999941e-02 -4.684947102404051500e-20
-2.575000000000000205e-02 -7.630206714577788618e-20
-2.559999999999999776e-02 1.118648687378597446e-19
-2.545000000000000040e-02 6.793075506996660154e-19
-2.529999999999999957e-02 1.749359402940167228e-18
-2.514999999999999875e-02 3.496468047433577667e-18
-2.500000000000000139e-02 6.050878293203988282e-18
-2.484999999999999709e-02 9.563103717716394850e-18
-2.469999999999999973e-02 1.420972711582586123e-17
-2.454999999999999891e-02 2.014160307020490819e-17
-2.439999999999999808e-02 2.756337192849609200e-17
-2.425000000000000072e-02 3.666432404771482242e-17
-2.409999999999999989e-02 4.766331156560792929e-17
-2.394999999999999907e-02 6.080466378278887572e-17
-2.379999999999999824e-02 7.633208134260558450e-17
-2.365000000000000088e-02 9.454137726699681919e-17
-2.350000000000000006e-02 1.157253602579165507e-16
-2.334999999999999923e-02 1.402247427009529210e-16
-2.319999999999999840e-02 1.684031068712699380e-16
-2.304999999999999757e-02 2.006499952803759740e-16
-2.290000000000000022e-02 2.374112384261024096e-16
-2.274999999999999939e-02 2.791422223967168379e-16
-2.259999999999999856e-02 3.263753206344583878e-16
-2.244999999999999774e-02 3.796559694177996250e-16
-2.230000000000000038e-02 4.396082202706301555e-16
-2.214999999999999955e-02 5.068912501143710368e-16
-2.199999999999999872e-02 5.822344601957266282e-16
-2.184999999999999790e-02 6.664293763341264717e-16
-2.170000000000000054e-02 7.603346781798496143e-16
-2.154999999999999971e-02 8.648898311505194818e-16
-2.139999999999999888e-02 9.811138158816829977e-16
-2.124999999999999806e-02 1.110112169188184634e-15
-2.110000000000000070e-02 1.253096730519749277e-15
-2.094999999999999987e-02 1.411365366109807330e-15
-2.079999999999999905e-02 1.586353690924836423e-15
-2.064999999999999822e-02 1.779589328885209688e-15
-2.049999999999999739e-02 1.992762534237173082e-15
-2.035000000000000003e-02 2.227676322488075789e-15
-2.019999999999999921e-02 2.486308727327993413e-15
-2.004999999999999838e-02 2.770789824861033708e-15
-1.989999999999999755e-02 3.083429262176122336e-15
-1.975000000000000019e-02 3.426736586137736976e-15
-1.959999999999999937e-02 3.803409173166408946e-15
-1.944999999999999854e-02 4.216390250995610128e-15
-1.929999999999999771e-02 4.668833746804441909e-15
-1.915000000000000036e-02 5.164175226226967730e-15
-1.899999999999999953e-02 5.706104788297900951e-15
-1.884999999999999870e-02 6.298619581495334616e-15
-1.869999999999999787e-02 6.946029732971372231e-15
-1.855000000000000052e-02 7.652979947892282753e-15
-1.839999999999999969e-02 8.424493131635284182e-15
-1.824999999999999886e-02 9.265961919459071022e-15
-1.809999999999999803e-02 1.018321728617254188e-14
-1.794999999999999721e-02 1.118251880525590602e-14
-1.779999999999999985e-02 1.227061902336467475e-14
-1.764999999999999902e-02 1.345477023659323937e-14
-1.749999999999999820e-02 1.474277615948465375e-14
-1.734999999999999737e-02 1.614302834744736626e-14
-1.720000000000000001e-02 1.766453160774363734e-14
-1.704999999999999918e-02 1.931696583289468916e-14
-1.689999999999999836e-02 2.111070887057028139e-14
-1.674999999999999753e-02 2.305690428622449162e-14
-1.660000000000000017e-02 2.516749185628181645e-14
-1.644999999999999934e-02 2.745527363670705739e-14
-1.629999999999999852e-02 2.993396478498215607e-14
-1.614999999999999769e-02 3.261823252362176795e-14
-1.600000000000000033e-02 3.552380286632461637e-14
-1.584999999999999951e-02 3.866747417050064861e-14
-1.569999999999999868e-02 4.206722047529060093e-14
-1.554999999999999785e-02 4.574224232354283382e-14
-1.539999999999999702e-02 4.971305146510805739e-14
-1.524999999999999967e-02 5.400155217200226787e-14
-1.509999999999999884e-02 5.863109883664716082e-14
-1.494999999999999801e-02 6.362662810900990285e-14
-1.479999999999999719e-02 6.901470633044817782e-14
-1.464999999999999983e-02 7.482363795392743544e-14
-1.449999999999999900e-02 8.108359090489708487e-14
-1.434999999999999817e-02 8.782665079139911901e-14
-1.419999999999999735e-02 9.508698353439398732e-14
-1.404999999999999999e-02 1.029008895778692201e-13
-1.389999999999999916e-02 1.113070004004831914e-13
-1.374999999999999833e-02 1.203463056206194315e-13
-1.359999999999999751e-02 1.300623698368211234e-13
-1.344999999999999668e-02 1.405014342717447740e-13
-1.329999999999999932e-02 1.517124913110595719e-13
-1.314999999999999850e-02 1.637475555539905092e-13
-1.299999999999999767e-02 1.766617315759541618e-13
-1.284999999999999684e-02 1.905133765588845618e-13
-1.269999999999999948e-02 2.053642629215590709e-13
-1.254999999999999866e-02 2.212797816075057211e-13
-1.239999999999999783e-02 2.383290776102747754e-13
-1.224999999999999700e-02 2.565852261562917569e-13
-1.209999999999999964e-02 2.761254766503462577e-13
-1.194999999999999882e-02 2.970313068857005634e-13
-1.179999999999999799e-02 3.193888296199043353e-13
-1.164999999999999716e-02 3.432887925747946101e-13
-1.149999999999999981e-02 3.688269579072561699e-13
-1.134999999999999898e-02 3.961041564193301667e-13
-1.119999999999999815e-02 4.252266670289744921e-13
-1.104999999999999732e-02 4.563062709801724015e-13
-1.089999999999999650e-02 4.894606855238015086e-13
-1.074999999999999914e-02 5.248135368125794731e-13
-1.059999999999999831e-02 5.624948748970959311e-13
-1.044999999999999749e-02 6.026414176713013049e-13
-1.029999999999999666e-02 6.453964966623981780e-13
-1.014999999999999930e-02 6.909108701824706600e-13
-9.999999999999998473e-03 7.393425064880498887e-13
-9.849999999999997646e-03 7.908565295700054065e-13
-9.699999999999996819e-03 8.456241349513726746e-13
-9.549999999999999462e-03 9.038217223256150845e-13
-9.399999999999998634e-03 9.656324134396654379e-13
-9.249999999999997807e-03 1.031257002535868050e-12
-9.099999999999996980e-03 1.100941278246725386e-12
-8.949999999999999623e-03 1.175013970670935048e-12
-8.799999999999998795e-03 1.253887835575562271e-12
-8.649999999999997968e-03 1.337901794559726021e-12
-8.500000000000000611e-03 1.426825888342642124e-12
-8.349999999999996314e-03 1.518980470918696035e-12
-8.199999999999998956e-03 1.610522479267295637e-12
-8.049999999999994660e-03 1.696733465533784013e-12
-7.899999999999997302e-03 1.778712485460409720e-12
-7.749999999999999944e-03 1.878795946944067374e-12
-7.599999999999995648e-03 2.062286105775079648e-12
-7.449999999999998290e-03 2.446753520277122895e-12
-7.300000000000000933e-03 3.152802238032270665e-12
-7.149999999999996636e-03 4.125863279497155034e-12
-6.999999999999999278e-03 4.777388554200179271e-12
-6.849999999999994982e-03 3.521673404283109932e-12
-6.699999999999997624e-03 -2.418923351552026979e-12
-6.550000000000000266e-03 -1.613025511770782572e-11
-6.399999999999995970e-03 -3.789020833200318350e-11
-6.249999999999998612e-03 -5.894179588850079199e-11
-6.099999999999994316e-03 -5.290394858303848480e-11
-5.949999999999996958e-03 3.092465866716409550e-11
-5.799999999999999600e-03 2.631530271468562887e-10
-5.649999999999995304e-03 7.053412298674288650e-10
-5.499999999999997946e-03 1.343739897130546979e-09
-5.350000000000000588e-03 1.983358810520030602e-09
-5.199999999999996292e-03 2.122412245952887133e-09
-5.049999999999998934e-03 8.571477416730033383e-10
-4.899999999999994638e-03 -3.109337232132247664e-09
-4.749999999999997280e-03 -1.128438409381260499e-08
-4.599999999999999922e-03 -2.500813600647688872e-08
-4.449999999999995626e-03 -4.495359817724420282e-08
-4.299999999999998268e-03 -7.068406659982429119e-08
-4.150000000000000910e-03 -1.005081458060885780e-07
-3.999999999999996614e-03 -1.318228584068492637e-07
-3.849999999999999256e-03 -1.619512772776943166e-07
-3.699999999999994960e-03 -1.892164505079563241e-07
-3.549999999999997602e-03 -2.137795434009603923e-07
-3.400000000000000244e-03 -2.377624070959427627e-07
-3.249999999999995948e-03 -2.644507901550241513e-07
-3.099999999999998590e-03 -2.968498051814094651e-07
-2.949999999999994293e-03 -3.362912366355885752e-07
-2.799999999999996936e-03 -3.818816480816167314e-07
-2.649999999999999578e-03 -4.311911823151604040e-07
-2.499999999999995282e-03 -4.818721208721399307e-07
-2.349999999999997924e-03 -5.332775003807910252e-07
-2.200000000000000566e-03 -5.870657560080871917e-07
-2.049999999999996270e-03 -6.463637873821426183e-07
-1.899999999999998912e-03 -7.139991566873504780e-07
-1.749999999999994615e-03 -7.909722512522421312e-07
-1.599999999999997258e-03 -8.762157222008681856e-07
-1.449999999999999900e-03 -9.678063861429109238e-07
-1.299999999999995604e-03 -1.064755110746773425e-06
-1.149999999999998246e-03 -1.168080302704765927e-06
-9.999999999999939493e-04 -1.280417677662626375e-06
-8.499999999999965916e-04 -1.404533122695283964e-06
-6.999999999999992339e-04 -1.541916958558431361e-06
-5.499999999999949374e-04 -1.692505406936106738e-06
-3.999999999999975797e-04 -1.855626578617375344e-06
-2.500000000000002220e-04 -2.031302756222430617e-06
-9.999999999999592548e-05 -2.220871238023391925e-06
5.000000000000143219e-05 -2.426582113912445493e-06
2.000000000000057288e-04 -2.650707529028295539e-06
3.500000000000030864e-04 -2.894980070777819492e-06
5.000000000000004441e-04 -3.160670985380420461e-06
6.500000000000047407e-04 -3.448971256148070097e-06
8.000000000000020983e-04 -3.761198513529961929e-06
9.500000000000063949e-04 -4.098799308849265799e-06
1.100000000000003753e-03 -4.463488949113525450e-06
1.250000000000001110e-03 -4.857657131651649252e-06
1.400000000000005407e-03 -5.284578946884721518e-06
1.550000000000002764e-03 -5.747864634031429887e-06
1.700000000000000122e-03 -6.250338628888130188e-06
1.850000000000004419e-03 -6.793436114094220102e-06
2.000000000000001776e-03 -7.378103873634245247e-06
2.150000000000006073e-03 -8.006751158973202109e-06
2.300000000000003431e-03 -8.684408385306596756e-06
2.450000000000000788e-03 -9.417587534699123353e-06
2.600000000000005085e-03 -1.021151365421246737e-05
2.750000000000002442e-03 -1.106840318243484944e-05
2.899999999999999800e-03 -1.198889640363631770e-05
3.050000000000004097e-03 -1.297568178415531293e-05
3.200000000000001454e-03 -1.403578426106832922e-05
3.350000000000005751e-03 -1.517883720225654542e-05
3.500000000000003109e-03 -1.641266317164991051e-05
3.650000000000000466e-03 -1.774062729964498430e-05
3.800000000000004763e-03 -1.916383916977792978e-05
3.950000000000002121e-03 -2.068637513730209321e-05
4.100000000000006417e-03 -2.231811595265753567e-05
4.250000000000003775e-03 -2.407193642284255475e-05
4.400000000000001132e-03 -2.595788646431174129e-05
4.550000000000005429e-03 -2.798054811137262732e-05
4.700000000000002787e-03 -3.014266803802456707e-05
4.850000000000000144e-03 -3.245147672714665532e-05
5.000000000000004441e-03 -3.492082032607868314e-05
5.150000000000001799e-03 -3.756664227694272995e-05
5.300000000000006095e-03 -4.040053681819699705e-05
5.450000000000003453e-03 -4.342860847827978432e-05
5.600000000000000810e-03 -4.665700180339626968e-05
5.750000000000005107e-03 -5.009810774936340749e-05
5.900000000000002465e-03 -5.377044726628810167e-05
6.050000000000006761e-03 -5.769235212937928736e-05
6.200000000000004119e-03 -6.187653343658894300e-05
6.350000000000001477e-03 -6.633180601056665182e-05
6.500000000000005773e-03 -7.106998236849904060e-05
6.650000000000003131e-03 -7.611005275975912809e-05
6.800000000000000488e-03 -8.147487096721306443e-05
6.950000000000004785e-03 -8.718433673493564129e-05
7.100000000000002143e-03 -9.325292921857908368e-05
7.250000000000006439e-03 -9.969446546165272593e-05
7.400000000000003797e-03 -1.065283431671559811e-04
7.550000000000001155e-03 -1.137800427386537194e-04
7.700000000000005451e-03 -1.214755611727014184e-04
7.850000000000002809e-03 -1.296364353038370609e-04
8.000000000000000167e-03 -1.382811315124854445e-04
8.150000000000004463e-03 -1.474308664910495281e-04
8.300000000000001821e-03 -1.571128377690911293e-04
8.450000000000006117e-03 -1.673573278822004795e-04
8.600000000000003475e-03 -1.781926694093272090e-04
8.750000000000000833e-03 -1.896439207484945655e-04
8.900000000000005129e-03 -2.017363731283694506e-04
9.050000000000002487e-03 -2.144992758985608816e-04
9.200000000000006783e-03 -2.279655600432306528e-04
9.350000000000004141e-03 -2.421685057925060391e-04
9.500000000000001499e-03 -2.571399090811610222e-04
9.650000000000005795e-03 -2.729111874941736460e-04
9.800000000000003153e-03 -2.895154466386884451e-04
9.950000000000000511e-03 -3.069877857342362404e-04
1.010000000000000481e-02 -3.253641189076006413e-04
1.025000000000000216e-02 -3.446809423621743917e-04
1.040000000000000646e-02 -3.649759455583989620e-04
1.055000000000000382e-02 -3.862878947984427214e-04
1.070000000000000118e-02 -4.086552653461694717e-04
1.085000000000000547e-02 -4.321154265198856592e-04
1.100000000000000283e-02 -4.567064752336591482e-04
1.115000000000000713e-02 -4.824699135497212410e-04
1.130000000000000449e-02 -5.094499792903661728e-04
1.145000000000000184e-02 -5.376897170208394527e-04
1.160000000000000614e-02 -5.672285333275794983e-04
1.175000000000000350e-02 -5.981044378131628036e-04
1.190000000000000085e-02 -6.303590489551424980e-04
1.205000000000000515e-02 -6.640386418439447880e-04
1.220000000000000251e-02 -6.991898990236222744e-04
1.235000000000000681e-02 -7.358547882176935673e-04
1.250000000000000416e-02 -7.740711444057524204e-04
1.265000000000000152e-02 -8.138780249282717705e-04
1.280000000000000582e-02 -8.553192019462585449e-04
1.295000000000000318e-02 -8.984408923424780369e-04
1.310000000000000747e-02 -9.432857041247189045e-04
1.325000000000000483e-02 -9.898911230266094208e-04
1.340000000000000219e-02 -1.038292772136628628e-03
1.355000000000000648e-02 -1.088528428226709366e-03
1.370000000000000384e-02 -1.140638138167560101e-03
1.385000000000000120e-02 -1.194659969769418240e-03
1.400000000000000550e-02 -1.250628381967544556e-03
1.415000000000000285e-02 -1.308574690483510494e-03
1.430000000000000715e-02 -1.368529046885669231e-03
1.445000000000000451e-02 -1.430520205758512020e-03
1.460000000000000187e-02 -1.494575641117990017e-03
1.475000000000000616e-02 -1.560720615088939667e-03
1.490000000000000352e-02 -1.628978759981691837e-03
1.505000000000000088e-02 -1.699370215646922588e-03
1.520000000000000517e-02 -1.771910698153078556e-03
1.535000000000000253e-02 -1.846610917709767818e-03
1.550000000000000683e-02 -1.923480187542736530e-03
1.565000000000000419e-02 -2.002527471631765366e-03
1.580000000000000154e-02 -2.083759289234876633e-03
1.595000000000000584e-02 -2.167175058275461197e-03
1.610000000000000320e-02 -2.252765698358416557e-03
1.625000000000000749e-02 -2.340518636628985405e-03
1.640000000000000485e-02 -2.430421067401766777e-03
1.655000000000000221e-02 -2.522458555176854134e-03
1.670000000000000651e-02 -2.616609213873744011e-03
1.685000000000000386e-02 -2.712841844186186790e-03
1.700000000000000122e-02 -2.811118029057979584e-03
1.715000000000000552e-02 -2.911397488787770271e-03
1.730000000000000288e-02 -3.013637149706482887e-03
1.745000000000000717e-02 -3.117787651717662811e-03
1.760000000000000453e-02 -3.223790787160396576e-03
1.775000000000000189e-02 -3.331580664962530136e-03
1.790000000000000618e-02 -3.441085107624530792e-03
1.805000000000000354e-02 -3.552227281033992767e-03
1.820000000000000784e-02 -3.664923366159200668e-03
1.835000000000000520e-02 -3.779083257541060448e-03
1.850000000000000255e-02 -3.894609399139881134e-03
1.865000000000000685e-02 -4.011396784335374832e-03
1.880000000000000421e-02 -4.129332024604082108e-03
1.895000000000000157e-02 -4.248292651027441025e-03
1.910000000000000586e-02 -4.368151538074016571e-03
1.925000000000000322e-02 -4.488775972276926041e-03
1.940000000000000752e-02 -4.610025789588689804e-03
1.955000000000000487e-02 -4.731751512736082077e-03
1.970000000000000223e-02 -4.853792954236268997e-03
1.985000000000000653e-02 -4.975982476025819778e-03
2.000000000000000389e-02 -5.098150577396154404e-03
2.015000000000000818e-02 -5.220121704041957855e-03
2.030000000000000554e-02 -5.341710988432168961e-03
2.045000000000000290e-02 -5.462722387164831161e-03
2.060000000000000719e-02 -5.582953337579965591e-03
2.075000000000000455e-02 -5.702198017388582230e-03
2.090000000000000191e-02 -5.820245947688817978e-03
2.105000000000000621e-02 -5.936878733336925507e-03
2.120000000000000356e-02 -6.051870062947273254e-03
2.135000000000000786e-02 -6.164986174553632736e-03
2.150000000000000522e-02 -6.275990046560764313e-03
2.165000000000000258e-02 -6.384638138115406036e-03
2.180000000000000687e-02 -6.490681786090135574e-03
2.195000000000000423e-02 -6.593868602067232132e-03
2.210000000000000159e-02 -6.693941075354814529e-03
2.225000000000000588e-02 -6.790637038648128510e-03
2.240000000000000324e-02 -6.883689202368259430e-03
2.255000000000000754e-02 -6.972827482968568802e-03
2.270000000000000490e-02 -7.057783193886280060e-03
2.285000000000000225e-02 -7.138287182897329330e-03
2.299999999999999961e-02 -7.214068435132503510e-03
2.315000000000001085e-02 -7.284853141754865646e-03
2.330000000000000820e-02 -7.350367028266191483e-03
2.345000000000000556e-02 -7.410340011119842529e-03
2.360000000000000292e-02 -7.464506197720766068e-03
2.375000000000000028e-02 -7.512601558119058609e-03
2.390000000000001151e-02 -7.554358802735805511e-03
2.405000000000000887e-02 -7.589513901621103287e-03
2.420000000000000623e-02 -7.617807481437921524e-03
2.435000000000000359e-02 -7.638985756784677505e-03
2.450000000000000094e-02 -7.652800064533948898e-03
2.464999999999999830e-02 -7.659005466848611832e-03
2.480000000000000954e-02 -7.657364010810852051e-03
2.495000000000000689e-02 -7.647646591067314148e-03
2.510000000000000425e-02 -7.629631552845239639e-03
2.525000000000000161e-02 -7.603108417242765427e-03
2.539999999999999897e-02 -7.567877881228923798e-03
2.555000000000001020e-02 -7.523751817643642426e-03
2.570000000000000756e-02 -7.470553740859031677e-03
2.585000000000000492e-02 -7.408117409795522690e-03
2.600000000000000228e-02 -7.336286362260580063e-03
2.614999999999999963e-02 -7.254919968545436859e-03
2.630000000000001087e-02 -7.163893897086381912e-03
2.645000000000000823e-02 -7.063096389174461365e-03
2.660000000000000558e-02 -6.952428724616765976e-03
2.675000000000000294e-02 -6.831806153059005737e-03
2.690000000000000030e-02 -6.701162550598382950e-03
2.705000000000001154e-02 -6.560453679412603378e-03
2.720000000000000889e-02 -6.409653462469577789e-03
2.735000000000000625e-02 -6.248753052204847336e-03
2.750000000000000361e-02 -6.077760364860296249e-03
2.765000000000000097e-02 -5.896703805774450302e-03
2.780000000000001220e-02 -5.705632269382476807e-03
2.795000000000000956e-02 -5.504612810909748077e-03
2.810000000000000692e-02 -5.293732043355703354e-03
2.825000000000000427e-02 -5.073097534477710724e-03
2.840000000000000163e-02 -4.842836409807205200e-03
2.854999999999999899e-02 -4.603095352649688721e-03
2.870000000000001023e-02 -4.354042932391166687e-03
2.885000000000000758e-02 -4.095871467143297195e-03
2.900000000000000494e-02 -3.828796325251460075e-03
2.915000000000000230e-02 -3.553054528310894966e-03
2.929999999999999966e-02 -3.268901957198977470e-03
2.945000000000001089e-02 -2.976612187922000885e-03
2.960000000000000825e-02 -2.676481381058692932e-03
2.975000000000000561e-02 -2.368828048929572105e-03
2.990000000000000296e-02 -2.053990261629223824e-03
3.005000000000000032e-02 -1.732322969473898411e-03
3.020000000000001156e-02 -1.404198585078120232e-03
3.035000000000000892e-02 -1.070010708644986153e-03
3.050000000000000627e-02 -7.301742443814873695e-04
3.065000000000000363e-02 -3.851229557767510414e-04
3.080000000000000099e-02 -3.530729736667126417e-05
3.095000000000001222e-02 3.188061527907848358e-04
3.110000000000000958e-02 6.767353625036776066e-04
3.125000000000000694e-02 1.037984271533787251e-03
3.140000000000000430e-02 1.402043388225138187e-03
3.155000000000000165e-02 1.768389833159744740e-03
3.169999999999999901e-02 2.136486815288662910e-03
3.185000000000001025e-02 2.505786018446087837e-03
3.200000000000000761e-02 2.875729929655790329e-03
3.215000000000000496e-02 3.245751373469829559e-03
3.230000000000000232e-02 3.615271532908082008e-03
3.244999999999999968e-02 3.983701113611459732e-03
3.260000000000001091e-02 4.350444767624139786e-03
3.275000000000000827e-02 4.714905750006437302e-03
3.290000000000000563e-02 5.076484754681587219e-03
3.305000000000000299e-02 5.434578750282526016e-03
3.320000000000000034e-02 5.788580514490604401e-03
3.335000000000001158e-02 6.137882359325885773e-03
3.350000000000000894e-02 6.481877528131008148e-03
3.365000000000000629e-02 6.819960195571184158e-03
3.380000000000000365e-02 7.151525933295488358e-03
3.395000000000000101e-02 7.475972641259431839e-03
3.410000000000001225e-02 7.792703341692686081e-03
3.425000000000000960e-02 8.101128041744232178e-03
3.440000000000000696e-02 8.400662802159786224e-03
3.455000000000000432e-02 8.690734393894672394e-03
3.470000000000000168e-02 8.970781229436397552e-03
3.485000000000001291e-02 9.240252897143363953e-03
3.500000000000001027e-02 9.498607367277145386e-03
3.515000000000000763e-02 9.745311923325061798e-03
3.530000000000000498e-02 9.979846887290477753e-03
3.545000000000000234e-02 1.020171120762825012e-02
3.559999999999999970e-02 1.041041780263185501e-02
3.575000000000001094e-02 1.060549542307853699e-02
3.590000000000000829e-02 1.078648865222930908e-02
3.605000000000000565e-02 1.095295976847410202e-02
3.620000000000000301e-02 1.110449526458978653e-02
3.635000000000000037e-02 1.124070025980472565e-02
3.650000000000001160e-02 1.136119849979877472e-02
3.665000000000000896e-02 1.146563235670328140e-02
3.680000000000000632e-02 1.155366469174623489e-02
3.695000000000000367e-02 1.162498164921998978e-02
3.710000000000000103e-02 1.167928799986839294e-02
3.725000000000001227e-02 1.171631459146738052e-02
3.740000000000000963e-02 1.173581648617982864e-02
3.755000000000000698e-02 1.173757109791040421e-02
3.770000000000000434e-02 1.172138098627328873e-02
3.785000000000000170e-02 1.168707106262445450e-02
3.800000000000001293e-02 1.163449045270681381e-02
3.815000000000001029e-02 1.156351715326309204e-02
3.830000000000000765e-02 1.147404871881008148e-02
3.845000000000000501e-02 1.136600691825151443e-02
3.860000000000000236e-02 1.123933494091033936e-02
3.874999999999999972e-02 1.109400112181901932e-02
3.890000000000001096e-02 1.093000266700983047e-02
3.905000000000000832e-02 1.074736006557941437e-02
3.920000000000000567e-02 1.054611895233392715e-02
3.935000000000000303e-02 1.032634638249874115e-02
3.950000000000000039e-02 1.008813735097646713e-02
3.965000000000001162e-02 9.831606410443782806e-03
3.980000000000000898e-02 9.556892327964305878e-03
3.995000000000000634e-02 9.264156222343444824e-03
4.010000000000000370e-02 8.953583426773548126e-03
4.025000000000000105e-02 8.625378832221031189e-03
4.040000000000001229e-02 8.279767818748950958e-03
4.055000000000000965e-02 7.916998118162155151e-03
4.070000000000000701e-02 7.537339814007282257e-03
4.085000000000000436e-02 7.141089532524347305e-03
4.100000000000000172e-02 6.728562992066144943e-03
4.115000000000001296e-02 6.300094537436962128e-03
4.130000000000001031e-02 5.856034811586141586e-03
4.145000000000000767e-02 5.396754946559667587e-03
4.160000000000000503e-02 4.922645166516304016e-03
4.175000000000000239e-02 4.434114787727594376e-03
4.190000000000001362e-02 3.931588493287563324e-03
4.205000000000001098e-02 3.415508195757865906e-03
4.220000000000000834e-02 2.886335365474224091e-03
4.235000000000000570e-02 2.344548935070633888e-03
4.250000000000000305e-02 1.790645881555974483e-03
4.265000000000000041e-02 1.225141342729330063e-03
4.280000000000001165e-02 6.485658814199268818e-04
4.295000000000000900e-02 6.146324449218809605e-05
4.310000000000000636e-02 -5.356115289032459259e-04
4.325000000000000372e-02 -1.142090302892029285e-03
4.340000000000000108e-02 -1.757388818077743053e-03
4.355000000000001231e-02 -2.380906138569116592e-03
4.370000000000000967e-02 -3.012027358636260033e-03
4.385000000000000703e-02 -3.650124184787273407e-03
4.400000000000000439e-02 -4.294554702937602997e-03
4.415000000000000174e-02 -4.944660235196352005e-03
4.430000000000001298e-02 -5.599770229309797287e-03
4.445000000000001034e-02 -6.259202025830745697e-03
4.460000000000000769e-02 -6.922266911715269089e-03
4.475000000000000505e-02 -7.588264998048543930e-03
4.490000000000000241e-02 -8.256485685706138611e-03
4.505000000000001364e-02 -8.926206268370151520e-03
4.520000000000001100e-02 -9.596690535545349121e-03
4.535000000000000836e-02 -1.026718690991401672e-02
4.550000000000000572e-02 -1.093693356961011887e-02
4.565000000000000308e-02 -1.160515844821929932e-02
4.580000000000000043e-02 -1.227108296006917953e-02
4.595000000000001167e-02 -1.293392106890678406e-02
4.610000000000000903e-02 -1.359287835657596588e-02
4.625000000000000638e-02 -1.424715109169483185e-02
4.640000000000000374e-02 -1.489593274891376495e-02
4.655000000000000110e-02 -1.553840562701225281e-02
4.670000000000001233e-02 -1.617374457418918610e-02
4.685000000000000969e-02 -1.680111512541770935e-02
4.700000000000000705e-02 -1.741967163980007172e-02
4.715000000000000441e-02 -1.802856847643852234e-02
4.730000000000000177e-02 -1.862695440649986267e-02
4.745000000000001300e-02 -1.921397820115089417e-02
4.760000000000001036e-02 -1.978878863155841827e-02
4.775000000000000772e-02 -2.035053074359893799e-02
4.790000000000000507e-02 -2.089834772050380707e-02
4.805000000000000243e-02 -2.143138274550437927e-02