-4.000000000000000083e-02 -0.000000000000000000e+00
-3.985000000000000347e-02 -0.000000000000000000e+00
-3.969999999999999918e-02 -0.000000000000000000e+00
-3.955000000000000182e-02 -0.000000000000000000e+00
-3.939999999999999752e-02 -0.000000000000000000e+00
-3.925000000000000017e-02 -0.000000000000000000e+00
-3.910000000000000281e-02 -0.000000000000000000e+00
-3.894999999999999851e-02 -0.000000000000000000e+00
-3.880000000000000115e-02 -0.000000000000000000e+00
-3.865000000000000380e-02 -0.000000000000000000e+00
-3.849999999999999950e-02 -0.000000000000000000e+00
-3.835000000000000214e-02 -0.000000000000000000e+00
-3.819999999999999785e-02 -0.000000000000000000e+00
-3.805000000000000049e-02 -0.000000000000000000e+00
-3.790000000000000313e-02 -0.000000000000000000e+00
-3.774999999999999883e-02 -0.000000000000000000e+00
-3.760000000000000148e-02 -0.000000000000000000e+00
-3.744999999999999718e-02 -0.000000000000000000e+00
-3.729999999999999982e-02 -0.000000000000000000e+00
-3.715000000000000246e-02 -0.000000000000000000e+00
-3.699999999999999817e-02 -0.000000000000000000e+00
-3.685000000000000081e-02 -0.000000000000000000e+00
-3.670000000000000345e-02 -0.000000000000000000e+00
-3.654999999999999916e-02 -0.000000000000000000e+00
-3.640000000000000180e-02 -0.000000000000000000e+00
-3.624999999999999750e-02 -0.000000000000000000e+00
-3.610000000000000014e-02 -0.000000000000000000e+00
-3.595000000000000279e-02 -0.000000000000000000e+00
-3.579999999999999849e-02 -0.000000000000000000e+00
-3.565000000000000113e-02 -0.000000000000000000e+00
-3.550000000000000377e-02 -0.000000000000000000e+00
-3.534999999999999948e-02 -0.000000000000000000e+00
-3.520000000000000212e-02 -0.000000000000000000e+00
-3.504999999999999782e-02 -0.000000000000000000e+00
-3.490000000000000047e-02 -0.000000000000000000e+00
-3.475000000000000311e-02 -0.000000000000000000e+00
-3.459999999999999881e-02 -0.000000000000000000e+00
-3.445000000000000145e-02 -0.000000000000000000e+00
-3.429999999999999716e-02 -0.000000000000000000e+00
-3.414999999999999980e-02 -0.000000000000000000e+00
-3.400000000000000244e-02 -0.000000000000000000e+00
-3.384999999999999815e-02 -0.000000000000000000e+00
-3.370000000000000079e-02 -0.000000000000000000e+00
-3.354999999999999649e-02 -0.000000000000000000e+00
-3.339999999999999913e-02 -0.000000000000000000e+00
-3.325000000000000178e-02 -0.000000000000000000e+00
-3.309999999999999748e-02 -0.000000000000000000e+00
-3.295000000000000012e-02 -0.000000000000000000e+00
-3.280000000000000276e-02 -0.000000000000000000e+00
-3.264999999999999847e-02 -0.000000000000000000e+00
-3.250000000000000111e-02 -0.000000000000000000e+00
-3.235000000000000375e-02 -0.000000000000000000e+00
-3.219999999999999946e-02 -0.000000000000000000e+00
-3.205000000000000210e-02 -0.000000000000000000e+00
-3.189999999999999780e-02 -0.000000000000000000e+00
-3.175000000000000044e-02 -0.000000000000000000e+00
-3.160000000000000309e-02 -0.000000000000000000e+00
-3.144999999999999879e-02 -0.000000000000000000e+00
-3.130000000000000143e-02 -0.000000000000000000e+00
-3.115000000000000061e-02 -0.000000000000000000e+00
-3.099999999999999978e-02 -0.000000000000000000e+00
-3.085000000000000242e-02 -0.000000000000000000e+00
-3.069999999999999812e-02 -2.802596928649634142e-45
-3.055000000000000077e-02 1.681558157189780485e-44
-3.039999999999999994e-02 1.625506218616787802e-43
-3.024999999999999911e-02 -1.579263369294068839e-42
-3.010000000000000175e-02 -3.650382499566148470e-42
-2.994999999999999746e-02 9.087700800839303668e-41
-2.980000000000000010e-02 -5.304755466548027504e-41
-2.964999999999999927e-02 -3.927867621471748746e-39
-2.949999999999999845e-02 9.240767434694432087e-39
-2.935000000000000109e-02 1.394022250074779745e-37
-2.920000000000000026e-02 -5.000533345735355426e-37
-2.904999999999999943e-02 -4.324504098022443046e-36
-2.890000000000000208e-02 1.869253409645998632e-35
-2.874999999999999778e-02 1.232370025097224823e-34
-2.860000000000000042e-02 -5.422144476497905264e-34
-2.844999999999999959e-02 -3.316359763837532312e-33
-2.829999999999999877e-02 1.239952142739246085e-32
-2.815000000000000141e-02 8.366532258962072213e-32
-2.800000000000000058e-02 -2.109627032677806531e-31
-2.784999999999999976e-02 -1.901676392624685891e-30
-2.769999999999999893e-02 2.012644563975078884e-30
-2.754999999999999810e-02 3.665431675717110139e-29
-2.740000000000000074e-02 1.710954634729194482e-29
-2.724999999999999992e-02 -5.502542666264689166e-28
-2.709999999999999909e-02 -1.175744793937430763e-27
-2.695000000000000173e-02 5.413906170213138727e-27
-2.679999999999999744e-02 2.553795432209118819e-26
-2.665000000000000008e-02 -1.167817512211937349e-26
-2.649999999999999925e-02 -3.073704072556341912e-25
-2.634999999999999842e-02 -5.843615345321743363e-25
-2.620000000000000107e-02 1.504605744403548369e-24
-2.605000000000000024e-02 8.843037661940726259e-24
-2.589999999999999941e-02 1.091972267240499727e-23
-2.575000000000000205e-02 -3.523478156517133893e-23
-2.559999999999999776e-02 -1.705833452538640105e-22
-2.545000000000000040e-02 -2.779143590012672042e-22
-2.529999999999999957e-02 1.012351258121876547e-22
-2.514999999999999875e-02 1.664306072682927315e-21
-2.500000000000000139e-02 4.843741465427867730e-21
-2.484999999999999709e-02 9.440228629123405353e-21
-2.469999999999999973e-02 1.502207490658034701e-20
-2.454999999999999891e-02 2.162666619576731863e-20
-2.439999999999999808e-02 2.965579497791558310e-20
-2.425000000000000072e-02 3.918716130064257267e-20
-2.409999999999999989e-02 5.003100799272406213e-20
-2.394999999999999907e-02 6.236311739667610542e-20
-2.379999999999999824e-02 7.655589527155802541e-20
-2.365000000000000088e-02 9.262801457346335313e-20
-2.350000000000000006e-02 1.105883351822343558e-19
-2.334999999999999923e-02 1.308108332076244999e-19
-2.319999999999999840e-02 1.535403347239038749e-19
-2.304999999999999757e-02 1.788014095802047199e-19
-2.290000000000000022e-02 2.069205485492411293e-19
-2.274999999999999939e-02 2.382857122629975440e-19
-2.259999999999999856e-02 2.730234464304975064e-19
-2.244999999999999774e-02 3.114636151703906783e-19
-2.230000000000000038e-02 3.540866553222055151e-19
-2.214999999999999955e-02 4.011432284609397267e-19
-2.199999999999999872e-02 4.530276929436279688e-19
-2.184999999999999790e-02 5.103080892065468909e-19
-2.170000000000000054e-02 5.733598280008248563e-19
-2.154999999999999971e-02 6.426827332115970319e-19
-2.139999999999999888e-02 7.189752037697995958e-19
-2.124999999999999806e-02 8.027457489569995219e-19
-2.110000000000000070e-02 8.946452565176994738e-19
-2.094999999999999987e-02 9.955337874938014619e-19
-2.079999999999999905e-02 1.106057731835227393e-18
-2.064999999999999822e-02 1.227082940848167149e-18
-2.049999999999999739e-02 1.359636876250988158e-18
-2.035000000000000003e-02 1.504568845737629243e-18
-2.019999999999999921e-02 1.662990786846514811e-18
-2.004999999999999838e-02 1.836166838348779026e-18
-1.989999999999999755e-02 2.025157962777597715e-18
-1.975000000000000019e-02 2.231438609574846651e-18
-1.959999999999999937e-02 2.456473095219897830e-18
-1.944999999999999854e-02 2.701786740762299035e-18
-1.929999999999999771e-02 2.969086640191206578e-18
-1.915000000000000036e-02 3.260174186085607814e-18
-1.899999999999999953e-02 3.576971332598769703e-18
-1.884999999999999870e-02 3.921744761404240680e-18
-1.869999999999999787e-02 4.296503901005065186e-18
-1.855000000000000052e-02 4.703861401365991960e-18
-1.839999999999999969e-02 5.146384417518079323e-18
-1.824999999999999886e-02 5.626828701672047687e-18
-1.809999999999999803e-02 6.148250686191280488e-18
-1.794999999999999721e-02 6.713981840992835047e-18
-1.779999999999999985e-02 7.327216324012084879e-18
-1.764999999999999902e-02 7.992042889016879600e-18
-1.749999999999999820e-02 8.712183021583095281e-18
-1.734999999999999737e-02 9.492152300674658902e-18
-1.720000000000000001e-02 1.033602707235023178e-17
-1.704999999999999918e-02 1.124915588645058180e-17
-1.689999999999999836e-02 1.223646460352346223e-17
-1.674999999999999753e-02 1.330329598314535308e-17
-1.660000000000000017e-02 1.445592749898491928e-17
-1.644999999999999934e-02 1.570036779101174603e-17
-1.629999999999999852e-02 1.704522780940251033e-17
-1.614999999999999769e-02 1.849379973299517324e-17
-1.600000000000000033e-02 2.005756813741442100e-17
-1.584999999999999951e-02 2.174186668324999553e-17
-1.569999999999999868e-02 2.355817994612658306e-17
-1.554999999999999785e-02 2.551323455878546482e-17
-1.539999999999999702e-02 2.761895184821475504e-17
-1.524999999999999967e-02 2.988478483445470972e-17
-1.509999999999999884e-02 3.232042145683954992e-17
-1.494999999999999801e-02 3.494050612093391444e-17
-1.479999999999999719e-02 3.775325769330413017e-17
-1.464999999999999983e-02 4.077820756257379920e-17
-1.449999999999999900e-02 4.402183089857798662e-17
-1.434999999999999817e-02 4.750921112621175045e-17
-1.419999999999999735e-02 5.123896850821335223e-17
-1.404999999999999999e-02 5.525135696191207251e-17
-1.389999999999999916e-02 5.953995756575449980e-17
-1.374999999999999833e-02 6.414532202209043371e-17
-1.359999999999999751e-02 6.906811207540991667e-17
-1.344999999999999668e-02 7.434325459989738773e-17
-1.329999999999999932e-02 7.998017283709105097e-17
-1.314999999999999850e-02 8.601340323192622041e-17
-1.299999999999999767e-02 9.246189152915281059e-17
-1.284999999999999684e-02 9.934928847684493768e-17
-1.269999999999999948e-02 1.067048828861318793e-16
-1.254999999999999866e-02 1.145588370708697690e-16
-1.239999999999999783e-02 1.229372767035254816e-16
-1.224999999999999700e-02 1.318760021610103123e-16
-1.209999999999999964e-02 1.414033890470572799e-16
-1.194999999999999882e-02 1.515638007122788286e-16
-1.179999999999999799e-02 1.623767983238006123e-16
-1.164999999999999716e-02 1.738887701703746048e-16
-1.149999999999999981e-02 1.861434840325722120e-16
-1.134999999999999898e-02 1.991815974918616401e-16
-1.119999999999999815e-02 2.130398506023300446e-16
-1.104999999999999732e-02 2.277694094479475054e-16
-1.089999999999999650e-02 2.434092904838469238e-16
-1.074999999999999914e-02 2.600193154119281348e-16
-1.059999999999999831e-02 2.776512591210920575e-16
-1.044999999999999749e-02 2.963820957304204263e-16
-1.029999999999999666e-02 3.162330275333742006e-16
-1.014999999999999930e-02 3.373081601731268541e-16
-9.999999999999998473e-03 3.596320840749283633e-16
-9.849999999999997646e-03 3.832430216005235785e-16
-9.699999999999996819e-03 4.081023798112532255e-16
-9.549999999999999462e-03 4.341295846980097392e-16
-9.399999999999998634e-03 4.611894286265876518e-16
-9.249999999999997807e-03 4.894418949448996192e-16
-9.099999999999996980e-03 5.194953121277518394e-16
-8.949999999999999623e-03 5.530500458771981168e-16
-8.799999999999998795e-03 5.932760111192192636e-16
-8.649999999999997968e-03 6.442989994607725701e-16
-8.500000000000000611e-03 7.093142838766972741e-16
-8.349999999999996314e-03 7.852818101797384882e-16
-8.199999999999998956e-03 8.542194924161610435e-16
-8.049999999999994660e-03 8.728848163209752126e-16
-7.899999999999997302e-03 7.668617023131544391e-16
-7.749999999999999944e-03 4.428782703728441870e-16
-7.599999999999995648e-03 -1.613201776616600761e-16
-7.449999999999998290e-03 -9.696240257104152271e-16
-7.300000000000000933e-03 -1.596905709744375276e-15
-7.149999999999996636e-03 -1.154228080300911952e-15
-6.999999999999999278e-03 1.859677352839287853e-15
-6.849999999999994982e-03 9.364243152328987491e-15
-6.699999999999997624e-03 2.289982710835386515e-14
-6.550000000000000266e-03 4.192632162671253160e-14
-6.399999999999995970e-03 6.112220918199490205e-14
-6.249999999999998612e-03 6.713361556118582762e-14
-6.099999999999994316e-03 3.613309738220715772e-14
-5.949999999999996958e-03 -6.523987350782328720e-14
-5.799999999999999600e-03 -2.719058973203042351e-13
-5.649999999999995304e-03 -6.015051737945364962e-13
-5.499999999999997946e-03 -1.022488083785022539e-12
-5.350000000000000588e-03 -1.411505461124118455e-12
-5.199999999999996292e-03 -1.510909886787148437e-12
-5.049999999999998934e-03 -9.067265167861382480e-13
-4.899999999999994638e-03 9.414804005847265955e-13
-4.749999999999997280e-03 4.582922149415358248e-12
-4.599999999999999922e-03 1.034289060647397562e-11
-4.449999999999995626e-03 1.797048274077006624e-11
-4.299999999999998268e-03 2.621338909825077224e-11
-4.150000000000000910e-03 3.241458490510495949e-11
-3.999999999999996614e-03 3.229865680465238142e-11
-3.849999999999999256e-03 2.013322494831548681e-11
-3.699999999999994960e-03 -1.056407739064013640e-11
-3.549999999999997602e-03 -6.571932581467265777e-11
-3.400000000000000244e-03 -1.489120216024986121e-10
-3.249999999999995948e-03 -2.594659487265005282e-10
-3.099999999999998590e-03 -3.910234636084197746e-10
-2.949999999999994293e-03 -5.311355799619832396e-10
-2.799999999999996936e-03 -6.626571513734802465e-10
-2.649999999999999578e-03 -7.668344292888207292e-10
-2.499999999999995282e-03 -8.281789143360640537e-10
-2.349999999999997924e-03 -8.394577810655334815e-10
-2.200000000000000566e-03 -8.055399680628738679e-10
-2.049999999999996270e-03 -7.444915794962980726e-10
-1.899999999999998912e-03 -6.854882772522330470e-10
-1.749999999999994615e-03 -6.613002923039346115e-10
-1.599999999999997258e-03 -6.997510348938362768e-10
-1.449999999999999900e-03 -8.143292151707726134e-10
-1.299999999999995604e-03 -9.981204751596806091e-10
-1.149999999999998246e-03 -1.224688461753942192e-09
-9.999999999999939493e-04 -1.454877884832228574e-09
-8.499999999999965916e-04 -1.649675285264606828e-09
-6.999999999999992339e-04 -1.784152825479168314e-09
-5.499999999999949374e-04 -1.858037390611855244e-09
-3.999999999999975797e-04 -1.898248003229241476e-09
-2.500000000000002220e-04 -1.950027472830129227e-09
-9.999999999999592548e-05 -2.061868897840213322e-09
5.000000000000143219e-05 -2.266297594033517271e-09
2.000000000000057288e-04 -2.566650669777459370e-09
3.500000000000030864e-04 -2.934355869399496441e-09
5.000000000000004441e-04 -3.320200780976279020e-09
6.500000000000047407e-04 -3.675390658486321627e-09
8.000000000000020983e-04 -3.970608286607557602e-09
9.500000000000063949e-04 -4.215689131115141208e-09
1.100000000000003753e-03 -4.453629465217545658e-09
1.250000000000001110e-03 -4.742664927448458911e-09
1.400000000000005407e-03 -5.136037373176804977e-09
1.550000000000002764e-03 -5.652823098500903143e-09
1.700000000000000122e-03 -6.272633079618117335e-09
1.850000000000004419e-03 -6.943039476681178712e-09
2.000000000000001776e-03 -7.605719609671268699e-09
2.150000000000006073e-03 -8.226734848904015962e-09
2.300000000000003431e-03 -8.815340457601905655e-09
2.450000000000000788e-03 -9.419943935995434003e-09
2.600000000000005085e-03 -1.011362815717120611e-08
2.750000000000002442e-03 -1.094933566037070705e-08
2.899999999999999800e-03 -1.194447385444163956e-08
3.050000000000004097e-03 -1.306472707796046961e-08
3.200000000000001454e-03 -1.424811379990842397e-08
3.350000000000005751e-03 -1.543818406446462177e-08
3.500000000000003109e-03 -1.662080428843637492e-08
3.650000000000000466e-03 -1.782605174582840846e-08
3.800000000000004763e-03 -1.912738589737728034e-08
3.950000000000002121e-03 -2.059947590282718011e-08
4.100000000000006417e-03 -2.227624840145381313e-08
4.250000000000003775e-03 -2.415099586983160407e-08
4.400000000000001132e-03 -2.615659511207013566e-08
4.550000000000005429e-03 -2.824339162543765269e-08
4.700000000000002787e-03 -3.037233398117678007e-08
4.850000000000000144e-03 -3.257230929420984467e-08
5.000000000000004441e-03 -3.492262479198871006e-08
5.150000000000001799e-03 -3.749651611428816977e-08
5.300000000000006095e-03 -4.034925638052300201e-08
5.450000000000003453e-03 -4.347119642034158460e-08
5.600000000000000810e-03 -4.681569620856862457e-08
5.750000000000005107e-03 -5.031305860825341369e-08
5.900000000000002465e-03 -5.393511415263674280e-08
6.050000000000006761e-03 -5.772883326926603331e-08
6.200000000000004119e-03 -6.175476130465540336e-08
6.350000000000001477e-03 -6.610654423866435536e-08
6.500000000000005773e-03 -7.085239417392585892e-08
6.650000000000003131e-03 -7.596955953204087564e-08
6.800000000000000488e-03 -8.140460749928024597e-08
6.950000000000004785e-03 -8.709555032737625879e-08
7.100000000000002143e-03 -9.304615389282844262e-08
7.250000000000006439e-03 -9.927391175779121113e-08
7.400000000000003797e-03 -1.059332532804546645e-07
7.550000000000001155e-03 -1.130581068764513475e-07
7.700000000000005451e-03 -1.206857547231265926e-07
7.850000000000002809e-03 -1.288174331648406223e-07
8.000000000000000167e-03 -1.373962561501684831e-07
8.150000000000004463e-03 -1.463823764424887486e-07
8.300000000000001821e-03 -1.557785083150520222e-07
8.450000000000006117e-03 -1.656470232092033257e-07
8.600000000000003475e-03 -1.761240611131142941e-07
8.750000000000000833e-03 -1.872769104238614091e-07
8.900000000000005129e-03 -1.990991336242586840e-07
9.050000000000002487e-03 -2.116592838774522534e-07
9.200000000000006783e-03 -2.247714689929125598e-07
9.350000000000004141e-03 -2.384754225204233080e-07
9.500000000000001499e-03 -2.528323364003881579e-07
9.650000000000005795e-03 -2.679646513570332900e-07
9.800000000000003153e-03 -2.839225317075033672e-07
9.950000000000000511e-03 -3.007945963418023894e-07
1.010000000000000481e-02 -3.185525656590471044e-07
1.025000000000000216e-02 -3.371981449618033366e-07
1.040000000000000646e-02 -3.566062787285773084e-07
1.055000000000000382e-02 -3.768695648886932759e-07
1.070000000000000118e-02 -3.981122347340715351e-07
1.085000000000000547e-02 -4.203927517210104270e-07
1.100000000000000283e-02 -4.437635254816996166e-07
1.115000000000000713e-02 -4.682857195348333335e-07
1.130000000000000449e-02 -4.938889901495713275e-07
1.145000000000000184e-02 -5.205243382988555823e-07
1.160000000000000614e-02 -5.482550022861687467e-07
1.175000000000000350e-02 -5.771327664660930168e-07
1.190000000000000085e-02 -6.073368581382965203e-07
1.205000000000000515e-02 -6.386005111380654853e-07
1.220000000000000251e-02 -6.713065090480085928e-07
1.235000000000000681e-02 -7.053278636703907978e-07
1.250000000000000416e-02 -7.406725899272714742e-07
1.265000000000000152e-02 -7.774713708386116195e-07
1.280000000000000582e-02 -8.154638635460287333e-07
1.295000000000000318e-02 -8.546091976313618943e-07
1.310000000000000747e-02 -8.955662451626267284e-07
1.325000000000000483e-02 -9.377966421197925229e-07
1.340000000000000219e-02 -9.818218131840694696e-07
1.355000000000000648e-02 -1.027240386974881403e-06
1.370000000000000384e-02 -1.074065380635147449e-06
1.385000000000000120e-02 -1.122306798606587108e-06
1.400000000000000550e-02 -1.172329348264611326e-06
1.415000000000000285e-02 -1.223733988808817230e-06
1.430000000000000715e-02 -1.277011392630811315e-06
1.445000000000000451e-02 -1.331640874013828579e-06
1.460000000000000187e-02 -1.388176201544411015e-06
1.475000000000000616e-02 -1.446099531676736660e-06
1.490000000000000352e-02 -1.505122554590343498e-06
1.505000000000000088e-02 -1.566231162541953381e-06
1.520000000000000517e-02 -1.628902168704371434e-06
1.535000000000000253e-02 -1.692946398179628886e-06
1.550000000000000683e-02 -1.758621124281489756e-06
1.565000000000000419e-02 -1.825579829528578557e-06
1.580000000000000154e-02 -1.894033971439057495e-06
1.595000000000000584e-02 -1.963559952855575830e-06
1.610000000000000320e-02 -2.034506906056776643e-06
1.625000000000000749e-02 -2.107337650159024633e-06
1.640000000000000485e-02 -2.180856199629488401e-06
1.655000000000000221e-02 -2.256037987535819411e-06
1.670000000000000651e-02 -2.333006705157458782e-06
1.685000000000000386e-02 -2.410926299489801750e-06
1.700000000000000122e-02 -2.489183998477528803e-06
1.715000000000000552e-02 -2.568594481999753043e-06
1.730000000000000288e-02 -2.649083171490929089e-06
1.745000000000000717e-02 -2.730388587224297225e-06
1.760000000000000453e-02 -2.812183765854570083e-06
1.775000000000000189e-02 -2.895365014410344884e-06
1.790000000000000618e-02 -2.978480097226565704e-06
1.805000000000000354e-02 -3.062042651436058804e-06
1.820000000000000784e-02 -3.145470145682338625e-06
1.835000000000000520e-02 -3.230046786484308541e-06
1.850000000000000255e-02 -3.313860815978841856e-06
1.865000000000000685e-02 -3.398022272449452430e-06
1.880000000000000421e-02 -3.482637112028896809e-06
1.895000000000000157e-02 -3.565177848940948024e-06
1.910000000000000586e-02 -3.648027586677926593e-06
1.925000000000000322e-02 -3.729548552655614913e-06
1.940000000000000752e-02 -3.809078179983771406e-06
1.955000000000000487e-02 -3.888889750669477507e-06
1.970000000000000223e-02 -3.967911652580369264e-06
1.985000000000000653e-02 -4.045541118102846667e-06
2.000000000000000389e-02 -4.120789526496082544e-06
2.015000000000000818e-02 -4.193742370262043551e-06
2.030000000000000554e-02 -4.264818926458247006e-06
2.045000000000000290e-02 -4.335416178946616128e-06
2.060000000000000719e-02 -4.402855211083078757e-06
2.075000000000000455e-02 -4.466806331038242206e-06
2.090000000000000191e-02 -4.526027169049484655e-06
2.105000000000000621e-02 -4.584327143675182015e-06
2.120000000000000356e-02 -4.640620772988768294e-06
2.135000000000000786e-02 -4.693173650593962520e-06
2.150000000000000522e-02 -4.739909400086617097e-06
2.165000000000000258e-02 -4.783506028616102412e-06
2.180000000000000687e-02 -4.822162281925557181e-06
2.195000000000000423e-02 -4.859600267081987113e-06
2.210000000000000159e-02 -4.890582658845232800e-06
2.225000000000000588e-02 -4.914409601042279974e-06
2.240000000000000324e-02 -4.932383944833418354e-06
2.255000000000000754e-02 -4.949846697854809463e-06
2.270000000000000490e-02 -4.959352281730389223e-06
2.285000000000000225e-02 -4.962779712514020503e-06
2.299999999999999961e-02 -4.962953880749410018e-06
2.315000000000001085e-02 -4.953825282427715138e-06
2.330000000000000820e-02 -4.940450708090793341e-06
2.345000000000000556e-02 -4.924092081637354568e-06
2.360000000000000292e-02 -4.895589881925843656e-06
2.375000000000000028e-02 -4.860855369770433754e-06
2.390000000000001151e-02 -4.818768502445891500e-06
2.405000000000000887e-02 -4.772952706844080240e-06
2.420000000000000623e-02 -4.720791821455350146e-06
2.435000000000000359e-02 -4.658509624277940020e-06
2.450000000000000094e-02 -4.587522653309861198e-06
2.464999999999999830e-02 -4.507007361098658293e-06
2.480000000000000954e-02 -4.421190169523470104e-06
2.495000000000000689e-02 -4.329623607191024348e-06
2.510000000000000425e-02 -4.225466909701935947e-06
2.525000000000000161e-02 -4.114364401175407693e-06
2.539999999999999897e-02 -3.998222837253706530e-06
2.555000000000001020e-02 -3.877762082993285730e-06
2.570000000000000756e-02 -3.747579739865614101e-06
2.585000000000000492e-02 -3.608603492466500029e-06
2.600000000000000228e-02 -3.458086212049238384e-06
2.614999999999999963e-02 -3.301322294646524824e-06
2.630000000000001087e-02 -3.136898158118128777e-06
2.645000000000000823e-02 -2.968776016132324003e-06
2.660000000000000558e-02 -2.793062549244496040e-06
2.675000000000000294e-02 -2.608118848002050072e-06
2.690000000000000030e-02 -2.415611561445984989e-06
2.705000000000001154e-02 -2.213543666584882885e-06
2.720000000000000889e-02 -2.009022409765748307e-06
2.735000000000000625e-02 -1.796366859707632102e-06
2.750000000000000361e-02 -1.575388068886240944e-06
2.765000000000000097e-02 -1.348015757685061544e-06
2.780000000000001220e-02 -1.117279680329374969e-06
2.795000000000000956e-02 -8.784542160356068052e-07
2.810000000000000692e-02 -6.351421006911550649e-07
2.825000000000000427e-02 -3.845086666842689738e-07
2.840000000000000163e-02 -1.329036649622139521e-07
2.854999999999999899e-02 1.246463057213986758e-07
2.870000000000001023e-02 3.833418986687320285e-07
2.885000000000000758e-02 6.485961421276442707e-07
2.900000000000000494e-02 9.174042929771530908e-07
2.915000000000000230e-02 1.186627628158021253e-06
2.929999999999999966e-02 1.458793803976732306e-06
2.945000000000001089e-02 1.733228828015853651e-06
2.960000000000000825e-02 2.009333911701105535e-06
2.975000000000000561e-02 2.285437403770629317e-06
2.990000000000000296e-02 2.559743734309449792e-06
3.005000000000000032e-02 2.836760586433229037e-06
3.020000000000001156e-02 3.113082357231178321e-06
3.035000000000000892e-02 3.388306367924087681e-06
3.050000000000000627e-02 3.661302571345004253e-06
3.065000000000000363e-02 3.931656920030945912e-06
3.080000000000000099e-02 4.201556293992325664e-06
3.095000000000001222e-02 4.469643954507773742e-06
3.110000000000000958e-02 4.730478849523933604e-06
3.125000000000000694e-02 4.987948614143533632e-06
3.140000000000000430e-02 5.240782229520846158e-06
3.155000000000000165e-02 5.488641363626811653e-06
3.169999999999999901e-02 5.730948942073155195e-06
3.185000000000001025e-02 5.966168373561231419e-06
3.200000000000000761e-02 6.193171429913491011e-06
3.215000000000000496e-02 6.414815288735553622e-06
3.230000000000000232e-02 6.629398285440402105e-06
3.244999999999999968e-02 6.835585736553184688e-06
3.260000000000001091e-02 7.031827408354729414e-06
3.275000000000000827e-02 7.218428891064831987e-06
3.290000000000000563e-02 7.396144610538613051e-06
3.305000000000000299e-02 7.564108727819984779e-06
3.320000000000000034e-02 7.721328984189312905e-06
3.335000000000001158e-02 7.867675776651594788e-06
3.350000000000000894e-02 8.003265975276008248e-06
3.365000000000000629e-02 8.127155524562112987e-06
3.380000000000000365e-02 8.238874215749092400e-06
3.395000000000000101e-02 8.337906365341041237e-06
3.410000000000001225e-02 8.424549378105439246e-06
3.425000000000000960e-02 8.498521310684736818e-06
3.440000000000000696e-02 8.559192792745307088e-06
3.455000000000000432e-02 8.606033588876016438e-06
3.470000000000000168e-02 8.642727152619045228e-06
3.485000000000001291e-02 8.665580935485195369e-06
3.500000000000001027e-02 8.673438060213811696e-06
3.515000000000000763e-02 8.666734174767043442e-06
3.530000000000000498e-02 8.644405170343816280e-06
3.545000000000000234e-02 8.610097211203537881e-06
3.559999999999999970e-02 8.562277798773720860e-06
3.575000000000001094e-02 8.502691343892365694e-06
3.590000000000000829e-02 8.429834451817441732e-06
3.605000000000000565e-02 8.343190529558341950e-06
3.620000000000000301e-02 8.243508091254625469e-06
3.635000000000000037e-02 8.128350600600242615e-06
3.650000000000001160e-02 7.997803550097160041e-06
3.665000000000000896e-02 7.853520401113200933e-06
3.680000000000000632e-02 7.696437023696489632e-06
3.695000000000000367e-02 7.526947229052893817e-06
3.710000000000000103e-02 7.347413429670268670e-06
3.725000000000001227e-02 7.155606908781919628e-06
3.740000000000000963e-02 6.952471721888286993e-06
3.755000000000000698e-02 6.737167041137581691e-06
3.770000000000000434e-02 6.510641014756402001e-06
3.785000000000000170e-02 6.269728601182578132e-06
3.800000000000001293e-02 6.019727152306586504e-06
3.815000000000001029e-02 5.757590770372189581e-06
3.830000000000000765e-02 5.490527655638288707e-06
3.845000000000000501e-02 5.217420039116404951e-06
3.860000000000000236e-02 4.936629466101294383e-06
3.874999999999999972e-02 4.646829893317772076e-06
3.890000000000001096e-02 4.347752110334113240e-06
3.905000000000000832e-02 4.041014562972122803e-06
3.920000000000000567e-02 3.724159114426583983e-06
3.935000000000000303e-02 3.403039727345458232e-06
3.950000000000000039e-02 3.080021542700706050e-06
3.965000000000001162e-02 2.757278252829564735e-06
3.980000000000000898e-02 2.432951532682636753e-06
3.995000000000000634e-02 2.103821543641970493e-06
4.010000000000000370e-02 1.769772666193603072e-06
4.025000000000000105e-02 1.429351527804101352e-06
4.040000000000001229e-02 1.085659050659160130e-06
4.055000000000000965e-02 7.391752205876400694e-07
4.070000000000000701e-02 3.971003934566397220e-07
4.085000000000000436e-02 5.877654984942637384e-08
4.100000000000000172e-02 -2.717619054237729870e-07
4.115000000000001296e-02 -5.957406301604351029e-07
4.130000000000001031e-02 -9.173860462396987714e-07
4.145000000000000767e-02 -1.245387124981789384e-06
4.160000000000000503e-02 -1.575962528477248270e-06
4.175000000000000239e-02 -1.906144916574703529e-06
4.190000000000001362e-02 -2.228317953267833218e-06
4.205000000000001098e-02 -2.537970885896356776e-06
4.220000000000000834e-02 -2.835468649209360592e-06
4.235000000000000570e-02 -3.121046120213577524e-06
4.250000000000000305e-02 -3.397057071197195910e-06
4.265000000000000041e-02 -3.671199237942346372e-06
4.280000000000001165e-02 -3.943522187910275534e-06
4.295000000000000900e-02 -4.213100510241929442e-06
4.310000000000000636e-02 -4.475969944905955344e-06
4.325000000000000372e-02 -4.721583536593243480e-06
4.340000000000000108e-02 -4.945657110511092469e-06
4.355000000000001231e-02 -5.151860023033805192e-06
4.370000000000000967e-02 -5.339407834981102496e-06
4.385000000000000703e-02 -5.519353635463630781e-06
4.400000000000000439e-02 -5.697685537597863004e-06
4.415000000000000174e-02 -5.870448603673139587e-06
4.430000000000001298e-02 -6.038423634890932590e-06
4.445000000000001034e-02 -6.186020982568152249e-06
4.460000000000000769e-02 -6.308052888925885782e-06
4.475000000000000505e-02 -6.404714895325014368e-06
4.490000000000000241e-02 -6.477341230493038893e-06
4.505000000000001364e-02 -6.530494829348754138e-06
4.520000000000001100e-02 -6.578236025234218687e-06
4.535000000000000836e-02 -6.620040494453860447e-06
4.550000000000000572e-02 -6.659064183622831479e-06
4.565000000000000308e-02 -6.680780188617063686e-06
4.580000000000000043e-02 -6.681696959276450798e-06
4.595000000000001167e-02 -6.651457624684553593e-06
4.610000000000000903e-02 -6.587961706827627495e-06
4.625000000000000638e-02 -6.500989002233836800e-06
4.640000000000000374e-02 -6.403002771548926830e-06
4.655000000000000110e-02 -6.297413165157195181e-06
4.670000000000001233e-02 -6.187839062476996332e-06
4.685000000000000969e-02 -6.069119535823119804e-06
4.700000000000000705e-02 -5.928981863689841703e-06
4.715000000000000441e-02 -5.758061433880357072e-06
4.730000000000000177e-02 -5.555359166464768350e-06
4.745000000000001300e-02 -5.323713594407308847e-06
4.760000000000001036e-02 -5.074597538623493165e-06
4.775000000000000772e-02 -4.818851266463752836e-06
4.790000000000000507e-02 -4.559207354759564623e-06