-4.000000000000000083e-02 0.000000000000000000e+00
-3.985000000000000347e-02 0.000000000000000000e+00
-3.969999999999999918e-02 0.000000000000000000e+00
-3.955000000000000182e-02 0.000000000000000000e+00
-3.939999999999999752e-02 0.000000000000000000e+00
-3.925000000000000017e-02 0.000000000000000000e+00
-3.910000000000000281e-02 0.000000000000000000e+00
-3.894999999999999851e-02 0.000000000000000000e+00
-3.880000000000000115e-02 0.000000000000000000e+00
-3.865000000000000380e-02 0.000000000000000000e+00
-3.849999999999999950e-02 0.000000000000000000e+00
-3.835000000000000214e-02 0.000000000000000000e+00
-3.819999999999999785e-02 0.000000000000000000e+00
-3.805000000000000049e-02 0.000000000000000000e+00
-3.790000000000000313e-02 0.000000000000000000e+00
-3.774999999999999883e-02 0.000000000000000000e+00
-3.760000000000000148e-02 0.000000000000000000e+00
-3.744999999999999718e-02 0.000000000000000000e+00
-3.729999999999999982e-02 0.000000000000000000e+00
-3.715000000000000246e-02 0.000000000000000000e+00
-3.699999999999999817e-02 0.000000000000000000e+00
-3.685000000000000081e-02 0.000000000000000000e+00
-3.670000000000000345e-02 0.000000000000000000e+00
-3.654999999999999916e-02 0.000000000000000000e+00
-3.640000000000000180e-02 0.000000000000000000e+00
-3.624999999999999750e-02 0.000000000000000000e+00
-3.610000000000000014e-02 0.000000000000000000e+00
-3.595000000000000279e-02 0.000000000000000000e+00
-3.579999999999999849e-02 0.000000000000000000e+00
-3.565000000000000113e-02 0.000000000000000000e+00
-3.550000000000000377e-02 0.000000000000000000e+00
-3.534999999999999948e-02 0.000000000000000000e+00
-3.520000000000000212e-02 0.000000000000000000e+00
-3.504999999999999782e-02 0.000000000000000000e+00
-3.490000000000000047e-02 0.000000000000000000e+00
-3.475000000000000311e-02 0.000000000000000000e+00
-3.459999999999999881e-02 0.000000000000000000e+00
-3.445000000000000145e-02 0.000000000000000000e+00
-3.429999999999999716e-02 -0.000000000000000000e+00
-3.414999999999999980e-02 0.000000000000000000e+00
-3.400000000000000244e-02 0.000000000000000000e+00
-3.384999999999999815e-02 -2.802596928649634142e-45
-3.370000000000000079e-02 2.101947696487225606e-44
-3.354999999999999649e-02 1.359259510395072559e-43
-3.339999999999999913e-02 -4.559825202912954749e-42
-3.325000000000000178e-02 2.923669115967298337e-41
-3.309999999999999748e-02 2.672108015651707176e-40
-3.295000000000000012e-02 -5.285596913943778605e-39
-3.280000000000000276e-02 1.274446761620891600e-38
-3.264999999999999847e-02 3.791177794613368746e-37
-3.250000000000000111e-02 -3.166228543997372023e-36
-3.235000000000000375e-02 -1.169847759245235770e-35
-3.219999999999999946e-02 2.608788388104326365e-34
-3.205000000000000210e-02 -2.716882210913387946e-34
-3.189999999999999780e-02 -1.367433917338747754e-32
-3.175000000000000044e-02 5.126043455567219773e-32
-3.160000000000000309e-02 5.291260244520208022e-31
-3.144999999999999879e-02 -3.205564443053955982e-30
-3.130000000000000143e-02 -1.659857606818724441e-29
-3.115000000000000061e-02 1.367616094277743842e-28
-3.099999999999999978e-02 4.677125203286777140e-28
-3.085000000000000242e-02 -4.528876649521072441e-27
-3.069999999999999812e-02 -1.315737560107027918e-26
-3.055000000000000077e-02 1.207848967589597128e-25
-3.039999999999999994e-02 3.805967412575173581e-25
-3.024999999999999911e-02 -2.555162084423607646e-24
-3.010000000000000175e-02 -1.045168281986741353e-23
-2.994999999999999746e-02 3.928468616749290348e-23
-2.980000000000000010e-02 2.433122691256320838e-22
-2.964999999999999927e-02 -3.036101209045357166e-22
-2.949999999999999845e-02 -4.317556045028974678e-21
-2.935000000000000109e-02 -3.558449408052863479e-21
-2.920000000000000026e-02 5.018310582785725009e-20
-2.904999999999999943e-02 1.510501979626924830e-19
-2.890000000000000208e-02 -2.139900605791226514e-19
-2.874999999999999778e-02 -2.055923084505129335e-18
-2.860000000000000042e-02 -3.260563374563814013e-18
-2.844999999999999959e-02 8.540136071616965949e-18
-2.829999999999999877e-02 4.851408667795341953e-17
-2.815000000000000141e-02 8.299261242677646801e-17
-2.800000000000000058e-02 -4.342263449773437422e-17
-2.784999999999999976e-02 -5.842162525945056740e-16
-2.769999999999999893e-02 -1.705293422103574836e-15
-2.754999999999999810e-02 -3.335514737608474660e-15
-2.740000000000000074e-02 -5.315440911046482447e-15
-2.724999999999999992e-02 -7.665581257048584979e-15
-2.709999999999999909e-02 -1.053092007585569589e-14
-2.695000000000000173e-02 -1.392223501468867891e-14
-2.679999999999999744e-02 -1.777648903457992174e-14
-2.665000000000000008e-02 -2.218129583546162020e-14
-2.649999999999999925e-02 -2.725386783657482437e-14
-2.634999999999999842e-02 -3.297798774511140341e-14
-2.620000000000000107e-02 -3.938940373957727781e-14
-2.605000000000000024e-02 -4.663019035028130588e-14
-2.589999999999999941e-02 -5.474603653439838458e-14
-2.575000000000000205e-02 -6.376755406264228432e-14
-2.559999999999999776e-02 -7.384248919793667820e-14
-2.545000000000000040e-02 -8.506302622999714624e-14
-2.529999999999999957e-02 -9.748130173079308514e-14
-2.514999999999999875e-02 -1.112589905730328177e-13
-2.500000000000000139e-02 -1.265240895994418358e-13
-2.484999999999999709e-02 -1.433634976141448525e-13
-2.469999999999999973e-02 -1.619658861239450798e-13
-2.454999999999999891e-02 -1.824927741474885456e-13
-2.439999999999999808e-02 -2.050768951357417880e-13
-2.425000000000000072e-02 -2.299468937743548436e-13
-2.409999999999999989e-02 -2.573002303839916349e-13
-2.394999999999999907e-02 -2.873281040177699808e-13
-2.379999999999999824e-02 -3.203114314585808753e-13
-2.365000000000000088e-02 -3.564926945223007015e-13
-2.350000000000000006e-02 -3.961359235429839920e-13
-2.334999999999999923e-02 -4.395830487807783626e-13
-2.319999999999999840e-02 -4.871359392255580900e-13
-2.304999999999999757e-02 -5.391505926606587895e-13
-2.290000000000000022e-02 -5.960376506589093459e-13
-2.274999999999999939e-02 -6.581804328983920094e-13
-2.259999999999999856e-02 -7.260480194490326333e-13
-2.244999999999999774e-02 -8.001311202140981571e-13
-2.230000000000000038e-02 -8.809319376398838664e-13
-2.214999999999999955e-02 -9.690282430641072864e-13
-2.199999999999999872e-02 -1.065041284331602611e-12
-2.184999999999999790e-02 -1.169579082020699712e-12
-2.170000000000000054e-02 -1.283415214381466996e-12
-2.154999999999999971e-02 -1.407230451958008111e-12
-2.139999999999999888e-02 -1.541909828983722974e-12
-2.124999999999999806e-02 -1.688277447529917819e-12
-2.110000000000000070e-02 -1.847297705429018500e-12
-2.094999999999999987e-02 -2.020002654729013969e-12
-2.079999999999999905e-02 -2.207381413071862752e-12
-2.064999999999999822e-02 -2.410803761482283036e-12
-2.049999999999999739e-02 -2.631135543815221745e-12
-2.035000000000000003e-02 -2.870351742748078472e-12
-2.019999999999999921e-02 -3.128919432576759974e-12
-2.004999999999999838e-02 -3.409692233419248097e-12
-1.989999999999999755e-02 -3.712623090901256973e-12
-1.975000000000000019e-02 -4.041469416071752363e-12
-1.959999999999999937e-02 -4.395914188215499507e-12
-1.944999999999999854e-02 -4.780131152015698603e-12
-1.929999999999999771e-02 -5.194342352077274683e-12
-1.915000000000000036e-02 -5.642195911870206970e-12
-1.899999999999999953e-02 -6.125634288006720496e-12
-1.884999999999999870e-02 -6.646528379755656246e-12
-1.869999999999999787e-02 -7.209837327853962918e-12
-1.855000000000000052e-02 -7.814720225096660755e-12
-1.839999999999999969e-02 -8.469635583152612668e-12
-1.824999999999999886e-02 -9.171224543691458564e-12
-1.809999999999999803e-02 -9.930689950921056663e-12
-1.794999999999999721e-02 -1.074371321074796271e-11
-1.779999999999999985e-02 -1.162220406719649546e-11
-1.764999999999999902e-02 -1.256321609244270832e-11
-1.749999999999999820e-02 -1.357729293577358831e-11
-1.734999999999999737e-02 -1.466454215004464601e-11
-1.720000000000000001e-02 -1.583341444066910242e-11
-1.704999999999999918e-02 -1.708679031597881703e-11
-1.689999999999999836e-02 -1.843239970378274251e-11
-1.674999999999999753e-02 -1.987404858738717195e-11
-1.660000000000000017e-02 -2.142098998181296565e-11
-1.644999999999999934e-02 -2.307600464879211444e-11
-1.629999999999999852e-02 -2.485113850814180125e-11
-1.614999999999999769e-02 -2.674813842640233474e-11
-1.600000000000000033e-02 -2.878101229564222763e-11
-1.584999999999999951e-02 -3.095218872872784743e-11
-1.569999999999999868e-02 -3.327549000231577736e-11
-1.554999999999999785e-02 -3.575635967867363263e-11
-1.539999999999999702e-02 -3.840711429448084857e-11
-1.524999999999999967e-02 -4.123638236430693382e-11
-1.509999999999999884e-02 -4.425603980506842561e-11
-1.494999999999999801e-02 -4.747624168799369215e-11
-1.479999999999999719e-02 -5.091044946725631348e-11
-1.464999999999999983e-02 -5.456910270873471802e-11
-1.449999999999999900e-02 -5.846775841256146578e-11
-1.434999999999999817e-02 -6.261761942294441496e-11
-1.419999999999999735e-02 -6.703491928217175655e-11
-1.404999999999999999e-02 -7.173398680615505896e-11
-1.389999999999999916e-02 -7.673002511143778293e-11
-1.374999999999999833e-02 -8.204148471691041777e-11
-1.359999999999999751e-02 -8.768248627166741471e-11
-1.344999999999999668e-02 -9.367469994137067602e-11
-1.329999999999999932e-02 -1.000333565981392780e-10
-1.314999999999999850e-02 -1.067809868304792076e-10
-1.299999999999999767e-02 -1.139355484958137765e-10
-1.284999999999999684e-02 -1.215206268945223655e-10
-1.269999999999999948e-02 -1.295561435910030923e-10
-1.254999999999999866e-02 -1.380678071871699331e-10
-1.239999999999999783e-02 -1.470763372202199548e-10
-1.224999999999999700e-02 -1.566104190775519100e-10
-1.209999999999999964e-02 -1.666919796639021456e-10
-1.194999999999999882e-02 -1.773514946012966220e-10
-1.179999999999999799e-02 -1.886145545304529492e-10
-1.164999999999999716e-02 -2.005110244507335437e-10
-1.149999999999999981e-02 -2.130704640501690506e-10
-1.134999999999999898e-02 -2.263230297616658504e-10
-1.119999999999999815e-02 -2.403025833874750106e-10
-1.104999999999999732e-02 -2.550399891276811104e-10
-1.089999999999999650e-02 -2.705713431083722753e-10
-1.074999999999999914e-02 -2.869305348873751882e-10
-1.059999999999999831e-02 -3.041550900029221793e-10
-1.044999999999999749e-02 -3.222800915025914037e-10
-1.029999999999999666e-02 -3.413473947944112297e-10
-1.014999999999999930e-02 -3.613928600820770498e-10
-9.999999999999998473e-03 -3.824605632196664828e-10
-9.849999999999997646e-03 -4.045882240344411684e-10
-9.699999999999996819e-03 -4.278215282038644318e-10
-9.549999999999999462e-03 -4.522035523812917290e-10
-9.399999999999998634e-03 -4.777789275323129914e-10
-9.249999999999997807e-03 -5.045942552683868598e-10
-9.099999999999996980e-03 -5.326958874007914346e-10
-8.949999999999999623e-03 -5.621335619210299228e-10
-8.799999999999998795e-03 -5.929542967741951998e-10
-8.649999999999997968e-03 -6.252104944870495729e-10
-8.500000000000000611e-03 -6.589512824284327053e-10
-8.349999999999996314e-03 -6.942300068146778358e-10
-8.199999999999998956e-03 -7.310967942153467902e-10
-8.049999999999994660e-03 -7.696082660046954516e-10
-7.899999999999997302e-03 -8.098157144864615020e-10
-7.749999999999999944e-03 -8.517760941018082121e-10
-7.599999999999995648e-03 -8.955433061785811333e-10
-7.449999999999998290e-03 -9.411745827136996922e-10
-7.300000000000000933e-03 -9.887262120145123845e-10
-7.149999999999996636e-03 -1.038255703633694793e-09
-6.999999999999999278e-03 -1.089821566324644664e-09
-6.849999999999994982e-03 -1.143478089993266167e-09
-6.699999999999997624e-03 -1.199287891218148161e-09
-6.550000000000000266e-03 -1.257306703195126829e-09
-6.399999999999995970e-03 -1.317593478766809767e-09
-6.249999999999998612e-03 -1.380204950329755320e-09
-6.099999999999994316e-03 -1.445203512417947422e-09
-5.949999999999996958e-03 -1.512641234491240994e-09
-5.799999999999999600e-03 -1.582578845749083030e-09
-5.649999999999995304e-03 -1.655073744721846651e-09
-5.499999999999997946e-03 -1.730180221315436029e-09
-5.350000000000000588e-03 -1.807955674060224283e-09
-5.199999999999996292e-03 -1.888453615705998345e-09
-5.049999999999998934e-03 -1.971729224337082087e-09
-4.899999999999994638e-03 -2.057833459190305803e-09
-4.749999999999997280e-03 -2.146821831416900750e-09
-4.599999999999999922e-03 -2.238738749937851935e-09
-4.449999999999995626e-03 -2.333634840923082265e-09
-4.299999999999998268e-03 -2.431558954185675248e-09
-4.150000000000000910e-03 -2.532553278200566638e-09
-3.999999999999996614e-03 -2.636661111665716817e-09
-3.849999999999999256e-03 -2.743924865100666466e-09
-3.699999999999994960e-03 -2.854386060846536566e-09
-3.549999999999997602e-03 -2.968076895371041246e-09
-3.400000000000000244e-03 -3.085031341498734037e-09
-3.249999999999995948e-03 -3.205277154805230566e-09
-3.099999999999998590e-03 -3.328850750605738540e-09
-2.949999999999994293e-03 -3.455770780647071660e-09
-2.799999999999996936e-03 -3.586058339166697806e-09
-2.649999999999999578e-03 -3.719732966089850379e-09
-2.499999999999995282e-03 -3.856805541602170706e-09
-2.349999999999997924e-03 -3.997291386781398614e-09
-2.200000000000000566e-03 -4.141195830698052305e-09
-2.049999999999996270e-03 -4.288513988370823427e-09
-1.899999999999998912e-03 -4.439252965227069581e-09
-1.749999999999994615e-03 -4.593410096731531667e-09
-1.599999999999997258e-03 -4.750966287048186132e-09
-1.449999999999999900e-03 -4.911908657589947325e-09
-1.299999999999995604e-03 -5.076219444788421242e-09
-1.149999999999998246e-03 -5.243868894666547931e-09
-9.999999999999939493e-04 -5.414826809158057586e-09
-8.499999999999965916e-04 -5.589062990196680403e-09
-6.999999999999992339e-04 -5.766536581575110176e-09
-5.499999999999949374e-04 -5.947199177569473250e-09
-3.999999999999975797e-04 -6.131001040188266415e-09
-2.500000000000002220e-04 -6.317883549655789466e-09
-9.999999999999592548e-05 -6.507781424858194441e-09
5.000000000000143219e-05 -6.700631161038472783e-09
2.000000000000057288e-04 -6.896352378049641629e-09
3.500000000000030864e-04 -7.094868248458396920e-09
5.000000000000004441e-04 -7.296090398511978492e-09
6.500000000000047407e-04 -7.499926901743947383e-09
8.000000000000020983e-04 -7.706282723063395679e-09
9.500000000000063949e-04 -7.915042843364972214e-09
1.100000000000003753e-03 -8.126106898487250874e-09
1.250000000000001110e-03 -8.339361201592510042e-09
1.400000000000005407e-03 -8.554671637739375001e-09
1.550000000000002764e-03 -8.771906756521730131e-09
1.700000000000000122e-03 -8.990938660247138614e-09
1.850000000000004419e-03 -9.211619023119510530e-09
2.000000000000001776e-03 -9.433812842019051459e-09
2.150000000000006073e-03 -9.657371791149671481e-09
2.300000000000003431e-03 -9.882125340254788171e-09
2.450000000000000788e-03 -1.010790739996991761e-08
2.600000000000005085e-03 -1.033455898635793346e-08
2.750000000000002442e-03 -1.056189624648595782e-08
2.899999999999999800e-03 -1.078975131463266734e-08
3.050000000000004097e-03 -1.101792435065362952e-08
3.200000000000001454e-03 -1.124623594250806491e-08
3.350000000000005751e-03 -1.147448713822996069e-08
3.500000000000003109e-03 -1.170246655135542824e-08
3.650000000000000466e-03 -1.193000098709262602e-08
3.800000000000004763e-03 -1.215686307176611081e-08
3.950000000000002121e-03 -1.238284763616093187e-08
4.100000000000006417e-03 -1.260773352385058388e-08
4.250000000000003775e-03 -1.283130224294382060e-08
4.400000000000001132e-03 -1.305335128876095041e-08
4.550000000000005429e-03 -1.327364529402075277e-08
4.700000000000002787e-03 -1.349193468058729195e-08
4.850000000000000144e-03 -1.370801960831613542e-08
5.000000000000004441e-03 -1.392164517000082924e-08
5.150000000000001799e-03 -1.413259198557170748e-08
5.300000000000006095e-03 -1.434062379956912991e-08
5.450000000000003453e-03 -1.454551501467449270e-08
5.600000000000000810e-03 -1.474701871728711922e-08
5.750000000000005107e-03 -1.494489154652001162e-08
5.900000000000002465e-03 -1.513889813509194937e-08
6.050000000000006761e-03 -1.532881377386274835e-08
6.200000000000004119e-03 -1.551439154923173191e-08
6.350000000000001477e-03 -1.569540408752345684e-08
6.500000000000005773e-03 -1.587162046234880108e-08
6.650000000000003131e-03 -1.604278310196605162e-08
6.800000000000000488e-03 -1.620866818541344401e-08
6.950000000000004785e-03 -1.636906610258392902e-08
7.100000000000002143e-03 -1.652374415073154523e-08
7.250000000000006439e-03 -1.667246429803981300e-08
7.400000000000003797e-03 -1.681500449990380730e-08
7.550000000000001155e-03 -1.695114981714596070e-08
7.700000000000005451e-03 -1.708069952144342096e-08
7.850000000000002809e-03 -1.720343334454810247e-08
8.000000000000000167e-03 -1.731915233449399238e-08
8.150000000000004463e-03 -1.742764510481720208e-08
8.300000000000001821e-03 -1.752870382176752173e-08
8.450000000000006117e-03 -1.762215440237469011e-08
8.600000000000003475e-03 -1.770781921095476719e-08
8.750000000000000833e-03 -1.778547975561650674e-08
8.900000000000005129e-03 -1.785499215145591734e-08
9.050000000000002487e-03 -1.791617521007538016e-08
9.200000000000006783e-03 -1.796887261207302799e-08
9.350000000000004141e-03 -1.801291737990595720e-08
9.500000000000001499e-03 -1.804815141781546117e-08
9.650000000000005795e-03 -1.807445038082278188e-08
9.800000000000003153e-03 -1.809166860766708851e-08
9.950000000000000511e-03 -1.809966931887174724e-08
1.010000000000000481e-02 -1.809835659116743045e-08
1.025000000000000216e-02 -1.808757943422278913e-08
1.040000000000000646e-02 -1.806725791198005027e-08
1.055000000000000382e-02 -1.803726590310361644e-08
1.070000000000000118e-02 -1.799753412967675104e-08
1.085000000000000547e-02 -1.794798443199852045e-08
1.100000000000000283e-02 -1.788849779416068486e-08
1.115000000000000713e-02 -1.781905112352433207e-08
1.130000000000000449e-02 -1.773953961503593746e-08
1.145000000000000184e-02 -1.764993839969974943e-08
1.160000000000000614e-02 -1.755020129223794356e-08
1.175000000000000350e-02 -1.744029098915689246e-08
1.190000000000000085e-02 -1.732016130517877173e-08
1.205000000000000515e-02 -1.718978737130782974e-08
1.220000000000000251e-02 -1.704917274025774532e-08
1.235000000000000681e-02 -1.689830142481696384e-08
1.250000000000000416e-02 -1.673718230676968233e-08
1.265000000000000152e-02 -1.656581360975906136e-08
1.280000000000000582e-02 -1.638423796634924656e-08
1.295000000000000318e-02 -1.619243583661500452e-08
1.310000000000000747e-02 -1.599048005118675064e-08
1.325000000000000483e-02 -1.577837771549184254e-08
1.340000000000000219e-02 -1.555619455473333801e-08
1.355000000000000648e-02 -1.532398563597325847e-08
1.370000000000000384e-02 -1.508179181541891012e-08
1.385000000000000120e-02 -1.482971168087487968e-08
1.400000000000000550e-02 -1.456777898312111574e-08
1.415000000000000285e-02 -1.429612428438531424e-08
1.430000000000000715e-02 -1.401479643448055867e-08
1.445000000000000451e-02 -1.372391711385034796e-08
1.460000000000000187e-02 -1.342362221379289622e-08
1.475000000000000616e-02 -1.311397124226232336e-08
1.490000000000000352e-02 -1.279511341323313900e-08
1.505000000000000088e-02 -1.246714997904518896e-08
1.520000000000000517e-02 -1.213019196200093575e-08
1.535000000000000253e-02 -1.178438679971804959e-08
1.550000000000000683e-02 -1.142991035152363111e-08
1.565000000000000419e-02 -1.106687985696908072e-08
1.580000000000000154e-02 -1.069541166742737914e-08
1.595000000000000584e-02 -1.031572072207609381e-08
1.610000000000000320e-02 -9.927938471321340330e-09
1.625000000000000749e-02 -9.532285183411204343e-09
1.640000000000000485e-02 -9.128884315146024164e-09
1.655000000000000221e-02 -8.717930377599714120e-09
1.670000000000000651e-02 -8.299615217310929438e-09
1.685000000000000386e-02 -7.874151997100398148e-09
1.700000000000000122e-02 -7.441700589083666273e-09
1.715000000000000552e-02 -7.002462609762005741e-09
1.730000000000000288e-02 -6.556682752290043936e-09
1.745000000000000717e-02 -6.104556415920114887e-09
1.760000000000000453e-02 -5.646306533435563324e-09
1.775000000000000189e-02 -5.182144047211068028e-09
1.790000000000000618e-02 -4.712313650401256382e-09
1.805000000000000354e-02 -4.237050710287348920e-09
1.820000000000000784e-02 -3.756580380098739624e-09
1.835000000000000520e-02 -3.271131809867711127e-09
1.850000000000000255e-02 -2.781001207097233419e-09
1.865000000000000685e-02 -2.286381972638196203e-09
1.880000000000000421e-02 -1.787586412227426536e-09
1.895000000000000157e-02 -1.284823247793553946e-09
1.910000000000000586e-02 -7.784117794784606303e-10
1.925000000000000322e-02 -2.685889566311772114e-10
1.940000000000000752e-02 2.443822089137626108e-10
1.955000000000000487e-02 7.601849705274332791e-10
1.970000000000000223e-02 1.278554373485008000e-09
1.985000000000000653e-02 1.799227877796738539e-09
2.000000000000000389e-02 2.321891345857807210e-09
2.015000000000000818e-02 2.846254121280367144e-09
2.030000000000000554e-02 3.372004675483708525e-09
2.045000000000000290e-02 3.898876776986526238e-09
2.060000000000000719e-02 4.426521371669878135e-09
2.075000000000000455e-02 4.954653576305645402e-09
2.090000000000000191e-02 5.482967413428241343e-09
2.105000000000000621e-02 6.011152020590770917e-09
2.120000000000000356e-02 6.538850350068514672e-09
2.135000000000000786e-02 7.065800833316870921e-09
2.150000000000000522e-02 7.591648198967959615e-09
2.165000000000000258e-02 8.116098015875650162e-09
2.180000000000000687e-02 8.638796344939692062e-09
2.195000000000000423e-02 9.159450975460003974e-09
2.210000000000000159e-02 9.677679990716114844e-09
2.225000000000000588e-02 1.019320539086265853e-08
2.240000000000000324e-02 1.070567190453175499e-08
2.255000000000000754e-02 1.121476156384915157e-08
2.270000000000000490e-02 1.172012265016064703e-08
2.285000000000000225e-02 1.222146206458774031e-08
2.299999999999999961e-02 1.271843341754674839e-08
2.315000000000001085e-02 1.321070808302238220e-08
2.330000000000000820e-02 1.369795654682093300e-08
2.345000000000000556e-02 1.417983153118029804e-08
2.360000000000000292e-02 1.465606924710982639e-08
2.375000000000000028e-02 1.512628955424588639e-08
2.390000000000001151e-02 1.559019402463945880e-08
2.405000000000000887e-02 1.604745847316735308e-08
2.420000000000000623e-02 1.649781289358998038e-08
2.435000000000000359e-02 1.694091089632365765e-08
2.450000000000000094e-02 1.737643984256465046e-08
2.464999999999999830e-02 1.780409064622290316e-08
2.480000000000000954e-02 1.822361106462722091e-08
2.495000000000000689e-02 1.863466891904863587e-08
2.510000000000000425e-02 1.903700486138859560e-08
2.525000000000000161e-02 1.943035066176435066e-08
2.539999999999999897e-02 1.981439723408584541e-08
2.555000000000001020e-02 2.018889766475240322e-08
2.570000000000000756e-02 2.055359260566547164e-08
2.585000000000000492e-02 2.090818895794654964e-08
2.600000000000000228e-02 2.125247711148858798e-08
2.614999999999999963e-02 2.158623146897298284e-08
2.630000000000001087e-02 2.190917314237594837e-08
2.645000000000000823e-02 2.222114936500929616e-08
2.660000000000000558e-02 2.252189723606079497e-08
2.675000000000000294e-02 2.281120714542339556e-08
2.690000000000000030e-02 2.308892632640890952e-08
2.705000000000001154e-02 2.335487003790603922e-08
2.720000000000000889e-02 2.360881090623934142e-08
2.735000000000000625e-02 2.385062813914373692e-08
2.750000000000000361e-02 2.408014410093528568e-08
2.765000000000000097e-02 2.429727885555621469e-08
2.780000000000001220e-02 2.450176417312377453e-08
2.795000000000000956e-02 2.469360538270848338e-08
2.810000000000000692e-02 2.487261241412852542e-08
2.825000000000000427e-02 2.503871598946716404e-08
2.840000000000000163e-02 2.519183794902346563e-08
2.854999999999999899e-02 2.533181486796820536e-08
2.870000000000001023e-02 2.545866273351293785e-08
2.885000000000000758e-02 2.557226963517678087e-08
2.900000000000000494e-02 2.567263379660289502e-08
2.915000000000000230e-02 2.575971258522713470e-08
2.929999999999999966e-02 2.583343139406224509e-08
2.945000000000001089e-02 2.589382397388817481e-08
2.960000000000000825e-02 2.594085479756813584e-08
2.975000000000000561e-02 2.597449899610637658e-08
2.990000000000000296e-02 2.599484716370170645e-08
3.005000000000000032e-02 2.600185311507630104e-08
3.020000000000001156e-02 2.599561810257000616e-08
3.035000000000000892e-02 2.597613857346914301e-08
3.050000000000000627e-02 2.594351933282723621e-08
3.065000000000000363e-02 2.589777459149900096e-08
3.080000000000000099e-02 2.583896829833065567e-08
3.095000000000001222e-02 2.576722835101463716e-08
3.110000000000000958e-02 2.568258672397405462e-08
3.125000000000000694e-02 2.558518907846973889e-08
3.140000000000000430e-02 2.547512600870049937e-08
3.155000000000000165e-02 2.535250409607670008e-08
3.169999999999999901e-02 2.521749742356860224e-08
3.185000000000001025e-02 2.507022323072760628e-08
3.200000000000000761e-02 2.491077744082303980e-08
3.215000000000000496e-02 2.473930749147257302e-08
3.230000000000000232e-02 2.455602121642641578e-08
3.244999999999999968e-02 2.436100565716969868e-08
3.260000000000001091e-02 2.415444910752739816e-08
3.275000000000000827e-02 2.393654341403816943e-08
3.290000000000000563e-02 2.370750529223641934e-08
3.305000000000000299e-02 2.346744842895986949e-08
3.320000000000000034e-02 2.321658776338608732e-08
3.335000000000001158e-02 2.295512757655160385e-08
3.350000000000000894e-02 2.268324550414035912e-08
3.365000000000000629e-02 2.240111562912261434e-08
3.380000000000000365e-02 2.210902039223583415e-08
3.395000000000000101e-02 2.180711078381136758e-08
3.410000000000001225e-02 2.149563194109305186e-08
3.425000000000000960e-02 2.117483077768156363e-08
3.440000000000000696e-02 2.084484407305353670e-08
3.455000000000000432e-02 2.050604486214524513e-08
3.470000000000000168e-02 2.015850242287342553e-08
3.485000000000001291e-02 1.980260044831538835e-08
3.500000000000001027e-02 1.943845440166569460e-08
3.515000000000000763e-02 1.906637869808491814e-08
3.530000000000000498e-02 1.868662558024425380e-08
3.545000000000000234e-02 1.829940288189391140e-08
3.559999999999999970e-02 1.790500903098291019e-08
3.575000000000001094e-02 1.750370515196664201e-08
3.590000000000000829e-02 1.709568664409744088e-08
3.605000000000000565e-02 1.668132476595474145e-08
3.620000000000000301e-02 1.626078471872460796e-08
3.635000000000000037e-02 1.583445374819802964e-08
3.650000000000001160e-02 1.540247218656531913e-08
3.665000000000000896e-02 1.496526458311109309e-08
3.680000000000000632e-02 1.452306097604605384e-08
3.695000000000000367e-02 1.407611982529033412e-08
3.710000000000000103e-02 1.362481683031546709e-08
3.725000000000001227e-02 1.316934294948168827e-08
3.740000000000000963e-02 1.271012273207361432e-08
3.755000000000000698e-02 1.224738621630194757e-08
3.770000000000000434e-02 1.178154462877500919e-08
3.785000000000000170e-02 1.131279425692355289e-08
3.800000000000001293e-02 1.084158984809846515e-08
3.815000000000001029e-02 1.036816676958096650e-08
3.830000000000000765e-02 9.892893615415232489e-09
3.845000000000000501e-02 9.416157631392252370e-09
3.860000000000000236e-02 8.938272344494180288e-09
3.874999999999999972e-02 8.459611677835709997e-09
3.890000000000001096e-02 7.980543337282597349e-09
3.905000000000000832e-02 7.501402166099069291e-09
3.920000000000000567e-02 7.022624259889198584e-09
3.935000000000000303e-02 6.544537800579064424e-09
3.950000000000000039e-02 6.067542912546741718e-09
3.965000000000001162e-02 5.592073470950253977e-09
3.980000000000000898e-02 5.118464763143037999e-09
3.995000000000000634e-02 4.647239038035877456e-09
4.010000000000000370e-02 4.178666745957571038e-09
4.025000000000000105e-02 3.713292562323999846e-09
4.040000000000001229e-02 3.251418911887071772e-09
4.055000000000000965e-02 2.793576037163347792e-09
4.070000000000000701e-02 2.340143856471854633e-09
4.085000000000000436e-02 1.891538037313011955e-09
4.100000000000000172e-02 1.448274944415572918e-09
4.115000000000001296e-02 1.010756145447544441e-09
4.130000000000001031e-02 5.794481006127227829e-10
4.145000000000000767e-02 1.547774408638957766e-10
4.160000000000000503e-02 -2.627412176714472025e-10
4.175000000000000239e-02 -6.727028378783472817e-10
4.190000000000001362e-02 -1.074633604325470060e-09
4.205000000000001098e-02 -1.468091648249014725e-09
4.220000000000000834e-02 -1.852600961527173240e-09
4.235000000000000570e-02 -2.227682927014029701e-09
4.250000000000000305e-02 -2.592930314904151601e-09
4.265000000000000041e-02 -2.947823318777409440e-09
4.280000000000001165e-02 -3.291974026708999190e-09
4.295000000000000900e-02 -3.624895272835715332e-09
4.310000000000000636e-02 -3.946119875308795599e-09
4.325000000000000372e-02 -4.255241936590437035e-09
4.340000000000000108e-02 -4.551808707731197501e-09
4.355000000000001231e-02 -4.835439160189025642e-09
4.370000000000000967e-02 -5.105669664828837995e-09
4.385000000000000703e-02 -5.362136956676977206e-09
4.400000000000000439e-02 -5.604340991283152107e-09
4.415000000000000174e-02 -5.831993998839379856e-09
4.430000000000001298e-02 -6.044669653704204393e-09
4.445000000000001034e-02 -6.242085071050951228e-09
4.460000000000000769e-02 -6.423768628138759595e-09
4.475000000000000505e-02 -6.589509826682160565e-09
4.490000000000000241e-02 -6.738892555091524628e-09
4.505000000000001364e-02 -6.871739621772121609e-09
4.520000000000001100e-02 -6.987640244204840201e-09
4.535000000000000836e-02 -7.086402575851025176e-09
4.550000000000000572e-02 -7.167736182367434594e-09
4.565000000000000308e-02 -7.231493182047188384e-09
4.580000000000000043e-02 -7.277411118167265158e-09
4.595000000000001167e-02 -7.305375859800733451e-09
4.610000000000000903e-02 -7.315196892676567586e-09
4.625000000000000638e-02 -7.306727667355517042e-09
4.640000000000000374e-02 -7.279937097592892314e-09
4.655000000000000110e-02 -7.234717713799909689e-09
4.670000000000001233e-02 -7.171007343487190155e-09
4.685000000000000969e-02 -7.088814868438930716e-09
4.700000000000000705e-02 -6.988085665682319814e-09
4.715000000000000441e-02 -6.868932533876659363e-09
4.730000000000000177e-02 -6.731372792501133517e-09
4.745000000000001300e-02 -6.575560540511560248e-09
4.760000000000001036e-02 -6.401603691585933120e-09
4.775000000000000772e-02 -6.209635028397997303e-09
4.790000000000000507e-02 -5.999834407077742071e-09