-4.000000000000000083e-02 -0.000000000000000000e+00
-3.985000000000000347e-02 -0.000000000000000000e+00
-3.969999999999999918e-02 -0.000000000000000000e+00
-3.955000000000000182e-02 -0.000000000000000000e+00
-3.939999999999999752e-02 -0.000000000000000000e+00
-3.925000000000000017e-02 -0.000000000000000000e+00
-3.910000000000000281e-02 -0.000000000000000000e+00
-3.894999999999999851e-02 -0.000000000000000000e+00
-3.880000000000000115e-02 -0.000000000000000000e+00
-3.865000000000000380e-02 -0.000000000000000000e+00
-3.849999999999999950e-02 -0.000000000000000000e+00
-3.835000000000000214e-02 -0.000000000000000000e+00
-3.819999999999999785e-02 -0.000000000000000000e+00
-3.805000000000000049e-02 -0.000000000000000000e+00
-3.790000000000000313e-02 -0.000000000000000000e+00
-3.774999999999999883e-02 -0.000000000000000000e+00
-3.760000000000000148e-02 -0.000000000000000000e+00
-3.744999999999999718e-02 -0.000000000000000000e+00
-3.729999999999999982e-02 -0.000000000000000000e+00
-3.715000000000000246e-02 -0.000000000000000000e+00
-3.699999999999999817e-02 -0.000000000000000000e+00
-3.685000000000000081e-02 -0.000000000000000000e+00
-3.670000000000000345e-02 -0.000000000000000000e+00
-3.654999999999999916e-02 -0.000000000000000000e+00
-3.640000000000000180e-02 -0.000000000000000000e+00
-3.624999999999999750e-02 -0.000000000000000000e+00
-3.610000000000000014e-02 -0.000000000000000000e+00
-3.595000000000000279e-02 -0.000000000000000000e+00
-3.579999999999999849e-02 -0.000000000000000000e+00
-3.565000000000000113e-02 -0.000000000000000000e+00
-3.550000000000000377e-02 -0.000000000000000000e+00
-3.534999999999999948e-02 -0.000000000000000000e+00
-3.520000000000000212e-02 -0.000000000000000000e+00
-3.504999999999999782e-02 -0.000000000000000000e+00
-3.490000000000000047e-02 -0.000000000000000000e+00
-3.475000000000000311e-02 -0.000000000000000000e+00
-3.459999999999999881e-02 -0.000000000000000000e+00
-3.445000000000000145e-02 -0.000000000000000000e+00
-3.429999999999999716e-02 -0.000000000000000000e+00
-3.414999999999999980e-02 -0.000000000000000000e+00
-3.400000000000000244e-02 -0.000000000000000000e+00
-3.384999999999999815e-02 -0.000000000000000000e+00
-3.370000000000000079e-02 -0.000000000000000000e+00
-3.354999999999999649e-02 -0.000000000000000000e+00
-3.339999999999999913e-02 -0.000000000000000000e+00
-3.325000000000000178e-02 -0.000000000000000000e+00
-3.309999999999999748e-02 -0.000000000000000000e+00
-3.295000000000000012e-02 -0.000000000000000000e+00
-3.280000000000000276e-02 -0.000000000000000000e+00
-3.264999999999999847e-02 -0.000000000000000000e+00
-3.250000000000000111e-02 -0.000000000000000000e+00
-3.235000000000000375e-02 -0.000000000000000000e+00
-3.219999999999999946e-02 -0.000000000000000000e+00
-3.205000000000000210e-02 -0.000000000000000000e+00
-3.189999999999999780e-02 -0.000000000000000000e+00
-3.175000000000000044e-02 -0.000000000000000000e+00
-3.160000000000000309e-02 -0.000000000000000000e+00
-3.144999999999999879e-02 -0.000000000000000000e+00
-3.130000000000000143e-02 -0.000000000000000000e+00
-3.115000000000000061e-02 -0.000000000000000000e+00
-3.099999999999999978e-02 0.000000000000000000e+00
-3.085000000000000242e-02 -0.000000000000000000e+00
-3.069999999999999812e-02 -0.000000000000000000e+00
-3.055000000000000077e-02 0.000000000000000000e+00
-3.039999999999999994e-02 1.401298464324817071e-44
-3.024999999999999911e-02 5.605193857299268284e-44
-3.010000000000000175e-02 -3.440187729917425909e-42
-2.994999999999999746e-02 7.470462243162032287e-41
-2.980000000000000010e-02 -1.107195343930788789e-39
-2.964999999999999927e-02 1.179297755114157926e-38
-2.949999999999999845e-02 -7.613083037744697789e-38
-2.935000000000000109e-02 -1.070861860776450629e-37
-2.920000000000000026e-02 1.050938154369129521e-35
-2.904999999999999943e-02 -1.530212857741115277e-34
-2.890000000000000208e-02 1.228285985788708756e-33
-2.874999999999999778e-02 -3.492428246439571591e-33
-2.860000000000000042e-02 -4.979707927074879435e-32
-2.844999999999999959e-02 7.880008665341761870e-31
-2.829999999999999877e-02 -4.935910183057591824e-30
-2.815000000000000141e-02 2.234936000009361267e-30
-2.800000000000000058e-02 2.231295766719554034e-28
-2.784999999999999976e-02 -1.753073109646614906e-27
-2.769999999999999893e-02 2.834330432361446807e-27
-2.754999999999999810e-02 4.475472923279147656e-26
-2.740000000000000074e-02 -3.159999292611698565e-25
-2.724999999999999992e-02 1.534058359338040607e-25
-2.709999999999999909e-02 7.104613841052509450e-24
-2.695000000000000173e-02 -2.499101565864940659e-23
-2.679999999999999744e-02 -7.111819612105160260e-23
-2.665000000000000008e-02 5.316572120729956604e-22
-2.649999999999999925e-02 3.130366679340157522e-22
-2.634999999999999842e-02 -6.406032803154082811e-21
-2.620000000000000107e-02 -2.160828000639005353e-21
-2.605000000000000024e-02 5.007039923822263228e-20
-2.589999999999999941e-02 6.167030193487466018e-20
-2.575000000000000205e-02 -1.574342357587089681e-19
-2.559999999999999776e-02 -5.890626111592252572e-19
-2.545000000000000040e-02 -1.156094093883713175e-18
-2.529999999999999957e-02 -1.935328836591329707e-18
-2.514999999999999875e-02 -2.878063685585871412e-18
-2.500000000000000139e-02 -3.988669876814374766e-18
-2.484999999999999709e-02 -5.321807505154343838e-18
-2.469999999999999973e-02 -6.828783756667232099e-18
-2.454999999999999891e-02 -8.581430582156838197e-18
-2.439999999999999808e-02 -1.056478883383544690e-17
-2.425000000000000072e-02 -1.280361602743677033e-17
-2.409999999999999989e-02 -1.534193554234149318e-17
-2.394999999999999907e-02 -1.816788064548192970e-17
-2.379999999999999824e-02 -2.134974005950800765e-17
-2.365000000000000088e-02 -2.488567744345985931e-17
-2.350000000000000006e-02 -2.882448487294953757e-17
-2.334999999999999923e-02 -3.320834359613357152e-17
-2.319999999999999840e-02 -3.805059272756999129e-17
-2.304999999999999757e-02 -4.343803329201766138e-17
-2.290000000000000022e-02 -4.936453091805388855e-17
-2.274999999999999939e-02 -5.593794334011068718e-17
-2.259999999999999856e-02 -6.316229396468751520e-17
-2.244999999999999774e-02 -7.114099360324330191e-17
-2.230000000000000038e-02 -7.991012056537516017e-17
-2.214999999999999955e-02 -8.955981768551666872e-17
-2.199999999999999872e-02 -1.001594093164446717e-16
-2.184999999999999790e-02 -1.117973508441431397e-16
-2.170000000000000054e-02 -1.245615682590040093e-16
-2.154999999999999971e-02 -1.385603891340472251e-16
-2.139999999999999888e-02 -1.538833739685551284e-16
-2.124999999999999806e-02 -1.706755771547450182e-16
-2.110000000000000070e-02 -1.890242430861840874e-16
-2.094999999999999987e-02 -2.091124235237078709e-16
-2.079999999999999905e-02 -2.310369713908789775e-16
-2.064999999999999822e-02 -2.550048803641826768e-16
-2.049999999999999739e-02 -2.811466199872757329e-16
-2.035000000000000003e-02 -3.096756690326458311e-16
-2.019999999999999921e-02 -3.407785600371461294e-16
-2.004999999999999838e-02 -3.746670247678106011e-16
-1.989999999999999755e-02 -4.115926320099737735e-16
-1.975000000000000019e-02 -4.517698928575277981e-16
-1.959999999999999937e-02 -4.955113095284503083e-16
-1.944999999999999854e-02 -5.430571746819655085e-16
-1.929999999999999771e-02 -5.947622892438545437e-16
-1.915000000000000036e-02 -6.509250205697877413e-16
-1.899999999999999953e-02 -7.119257393926414854e-16
-1.884999999999999870e-02 -7.781395224893718210e-16
-1.869999999999999787e-02 -8.499746926801145241e-16
-1.855000000000000052e-02 -9.278887006959461205e-16
-1.839999999999999969e-02 -1.012327827020951219e-15
-1.824999999999999886e-02 -1.103831631642530810e-15
-1.809999999999999803e-02 -1.202908440208155880e-15
-1.794999999999999721e-02 -1.310171081055164916e-15
-1.779999999999999985e-02 -1.426218194719029893e-15
-1.764999999999999902e-02 -1.551731430964053710e-15
-1.749999999999999820e-02 -1.687413721257339030e-15
-1.734999999999999737e-02 -1.834013736845140248e-15
-1.720000000000000001e-02 -1.992354899631306950e-15
-1.704999999999999918e-02 -2.163285724870751131e-15
-1.689999999999999836e-02 -2.347744089794320116e-15
-1.674999999999999753e-02 -2.546689259214779399e-15
-1.660000000000000017e-02 -2.761180871349144111e-15
-1.644999999999999934e-02 -2.992317951446476706e-15
-1.629999999999999852e-02 -3.241281686951723306e-15
-1.614999999999999769e-02 -3.509351944648185159e-15
-1.600000000000000033e-02 -3.797835272857002023e-15
-1.584999999999999951e-02 -4.108169933522611700e-15
-1.569999999999999868e-02 -4.441853480895759793e-15
-1.554999999999999785e-02 -4.800481301532599776e-15
-1.539999999999999702e-02 -5.185759319788901811e-15
-1.524999999999999967e-02 -5.599467151886847183e-15
-1.509999999999999884e-02 -6.043517398221336101e-15
-1.494999999999999801e-02 -6.519911597646730478e-15
-1.479999999999999719e-02 -7.030791472970162811e-15
-1.464999999999999983e-02 -7.578407167216014151e-15
-1.449999999999999900e-02 -8.165131643186017418e-15
-1.434999999999999817e-02 -8.793491176645358565e-15
-1.419999999999999735e-02 -9.466128510389471007e-15
-1.404999999999999999e-02 -1.018585748786913353e-14
-1.389999999999999916e-02 -1.095559359648879544e-14
-1.374999999999999833e-02 -1.177849542210876801e-14
-1.359999999999999751e-02 -1.265783420597134737e-14
-1.344999999999999668e-02 -1.359702010272217931e-14
-1.329999999999999932e-02 -1.459977836326328826e-14
-1.314999999999999850e-02 -1.566982492113427883e-14
-1.299999999999999767e-02 -1.681118826503229247e-14
-1.284999999999999684e-02 -1.802808323090286657e-14
-1.269999999999999948e-02 -1.932497537644392582e-14
-1.254999999999999866e-02 -2.070640479825275326e-14
-1.239999999999999783e-02 -2.217730461621415794e-14
-1.224999999999999700e-02 -2.374272314669377548e-14
-1.209999999999999964e-02 -2.540797298033678486e-14
-1.194999999999999882e-02 -2.717869535657189972e-14
-1.179999999999999799e-02 -2.906067042823118340e-14
-1.164999999999999716e-02 -3.105999005627128884e-14
-1.149999999999999981e-02 -3.318299682340125623e-14
-1.134999999999999898e-02 -3.543630775100503616e-14
-1.119999999999999815e-02 -3.782680074661433356e-14
-1.104999999999999732e-02 -4.036178062236626951e-14
-1.089999999999999650e-02 -4.304857251918869920e-14
-1.074999999999999914e-02 -4.589512838239044601e-14
-1.059999999999999831e-02 -4.890958989266051826e-14
-1.044999999999999749e-02 -5.210035284057210059e-14
-1.029999999999999666e-02 -5.547621281624948164e-14
-1.014999999999999930e-02 -5.904617886211965816e-14
-9.999999999999998473e-03 -6.281977162850976848e-14
-9.849999999999997646e-03 -6.680630847783960991e-14
-9.699999999999996819e-03 -7.101581828020467335e-14
-9.549999999999999462e-03 -7.545923792501990635e-14
-9.399999999999998634e-03 -8.014949652319219853e-14
-9.249999999999997807e-03 -8.510240309764910416e-14
-9.099999999999996980e-03 -9.033527777809607917e-14
-8.949999999999999623e-03 -9.585820364473723876e-14
-8.799999999999998795e-03 -1.016515295331962832e-13
-8.649999999999997968e-03 -1.076351871130351578e-13
-8.500000000000000611e-03 -1.136650181528947590e-13
-8.349999999999996314e-03 -1.196479438962672059e-13
-8.199999999999998956e-03 -1.259006733502626707e-13
-8.049999999999994660e-03 -1.337950881813085302e-13
-7.899999999999997302e-03 -1.463486450081763479e-13
-7.749999999999999944e-03 -1.676177371814219219e-13
-7.599999999999995648e-03 -1.987737502807257473e-13
-7.449999999999998290e-03 -2.286668033743555206e-13
-7.300000000000000933e-03 -2.196097036860633622e-13
-7.149999999999996636e-03 -9.750192190086104382e-14
-6.999999999999999278e-03 2.305764086607542396e-13
-6.849999999999994982e-03 7.950315752958125870e-13
-6.699999999999997624e-03 1.387541123665236853e-12
-6.550000000000000266e-03 1.308717023640326715e-12
-6.399999999999995970e-03 -8.252565297794944854e-13
-6.249999999999998612e-03 -6.914080419306856129e-12
-6.099999999999994316e-03 -1.840610996950431399e-11
-5.949999999999996958e-03 -3.416794625010766140e-11
-5.799999999999999600e-03 -4.730421609977497610e-11
-5.649999999999995304e-03 -4.200340075755093494e-11
-5.499999999999997946e-03 7.324696404964470275e-12
-5.350000000000000588e-03 1.316571435205915463e-10
-5.199999999999996292e-03 3.556188676867577669e-10
-5.049999999999998934e-03 6.795008999915808090e-10
-4.899999999999994638e-03 1.061335908048022247e-09
-4.749999999999997280e-03 1.410237260301983042e-09
-4.599999999999999922e-03 1.602927568455925211e-09
-4.449999999999995626e-03 1.528253079641217482e-09
-4.299999999999998268e-03 1.149278006096210447e-09
-4.150000000000000910e-03 5.549658510517474497e-10
-3.999999999999996614e-03 -3.537437009981658775e-11
-3.849999999999999256e-03 -3.395648207060730783e-10
-3.699999999999994960e-03 -1.419202533270436106e-10
-3.549999999999997602e-03 5.706155548068636563e-10
-3.400000000000000244e-03 1.548780659277326777e-09
-3.249999999999995948e-03 2.360565076742204838e-09
-3.099999999999998590e-03 2.604807036732381675e-09
-2.949999999999994293e-03 2.157911183076066663e-09
-2.799999999999996936e-03 1.300662688663578592e-09
-2.649999999999999578e-03 6.101430471971980296e-10
-2.499999999999995282e-03 6.333777946565533057e-10
-2.349999999999997924e-03 1.522131753972644219e-09
-2.200000000000000566e-03 2.876632265724765602e-09
-2.049999999999996270e-03 3.950987093048752286e-09
-1.899999999999998912e-03 4.135657150072802324e-09
-1.749999999999994615e-03 3.410249860280600842e-09
-1.599999999999997258e-03 2.422737566121213604e-09
-1.449999999999999900e-03 2.078792249449179508e-09
-1.299999999999995604e-03 2.887944106078066397e-09
-1.149999999999998246e-03 4.542400233731314074e-09
-9.999999999999939493e-04 6.090488113841274753e-09
-8.499999999999965916e-04 6.632660642935661599e-09
-6.999999999999992339e-04 6.037936373104457743e-09
-5.499999999999949374e-04 5.097206212667515501e-09
-3.999999999999975797e-04 4.936964614898897707e-09
-2.500000000000002220e-04 6.118398232501931489e-09
-9.999999999999592548e-05 8.156519015756202862e-09
5.000000000000143219e-05 9.887259011520654894e-09
2.000000000000057288e-04 1.043065367412054911e-08
3.500000000000030864e-04 9.941004464053548872e-09
5.000000000000004441e-04 9.491827768215443939e-09
6.500000000000047407e-04 1.015706629914348014e-08
8.000000000000020983e-04 1.208661615237360820e-08
9.500000000000063949e-04 1.439468633179785684e-08
1.100000000000003753e-03 1.596754373167641461e-08
1.250000000000001110e-03 1.646128566790139303e-08
1.400000000000005407e-03 1.657639359109452926e-08
1.550000000000002764e-03 1.737259935907786712e-08
1.700000000000000122e-03 1.928208348545012996e-08
1.850000000000004419e-03 2.178001068386947736e-08
2.000000000000001776e-03 2.397064235992729664e-08
2.150000000000006073e-03 2.548040356487035751e-08
2.300000000000003431e-03 2.675824362086132169e-08
2.450000000000000788e-03 2.851390945579623803e-08
2.600000000000005085e-03 3.095999545621452853e-08
2.750000000000002442e-03 3.367688350408570841e-08
2.899999999999999800e-03 3.619743438321165740e-08
3.050000000000004097e-03 3.860304786940105259e-08
3.200000000000001454e-03 4.142088982916902751e-08
3.350000000000005751e-03 4.488629201659932733e-08
3.500000000000003109e-03 4.857110980083234608e-08
3.650000000000000466e-03 5.183551365917082876e-08
3.800000000000004763e-03 5.470860742207150906e-08
3.950000000000002121e-03 5.806532499263994396e-08
4.100000000000006417e-03 6.276104613789357245e-08
4.250000000000003775e-03 6.855248102510813624e-08
4.400000000000001132e-03 7.412063496303744614e-08
4.550000000000005429e-03 7.843664207030087709e-08
4.700000000000002787e-03 8.202778190025128424e-08
4.850000000000000144e-03 8.672213880345225334e-08
5.000000000000004441e-03 9.376117304782383144e-08
5.150000000000001799e-03 1.023599907057359815e-07
5.300000000000006095e-03 1.103048816730733961e-07
5.450000000000003453e-03 1.162502485385630280e-07
5.600000000000000810e-03 1.213170435221400112e-07
5.750000000000005107e-03 1.281205186387524009e-07
5.900000000000002465e-03 1.381195033900439739e-07
6.050000000000006761e-03 1.499192876508459449e-07
6.200000000000004119e-03 1.606686055311001837e-07
6.350000000000001477e-03 1.690395947662182152e-07
6.500000000000005773e-03 1.766775312717072666e-07
6.650000000000003131e-03 1.866592356236651540e-07
6.800000000000000488e-03 2.002425389946438372e-07
6.950000000000004785e-03 2.155729816877283156e-07
7.100000000000002143e-03 2.296701495652087033e-07
7.250000000000006439e-03 2.415017661405727267e-07
7.400000000000003797e-03 2.530796336941421032e-07
7.550000000000001155e-03 2.673314156709238887e-07
7.700000000000005451e-03 2.850756573025137186e-07
7.850000000000002809e-03 3.043696779059246182e-07
8.000000000000000167e-03 3.226668923161923885e-07
8.150000000000004463e-03 3.393033694010227919e-07
8.300000000000001821e-03 3.561526682460680604e-07
8.450000000000006117e-03 3.756158548640087247e-07
8.600000000000003475e-03 3.981713234679773450e-07
8.750000000000000833e-03 4.222820280119776726e-07
8.900000000000005129e-03 4.459270712686702609e-07
9.050000000000002487e-03 4.686644388129934669e-07
9.200000000000006783e-03 4.918601916870102286e-07
9.350000000000004141e-03 5.172896635485813022e-07
9.500000000000001499e-03 5.455367499962449074e-07
9.650000000000005795e-03 5.756483005825430155e-07
9.800000000000003153e-03 6.061418389435857534e-07
9.950000000000000511e-03 6.361515261232852936e-07
1.010000000000000481e-02 6.665686669293791056e-07
1.025000000000000216e-02 6.988557288423180580e-07
1.040000000000000646e-02 7.339367584791034460e-07
1.055000000000000382e-02 7.714443199802190065e-07
1.070000000000000118e-02 8.095885277725756168e-07
1.085000000000000547e-02 8.473652997054159641e-07
1.100000000000000283e-02 8.856040949467569590e-07
1.115000000000000713e-02 9.259529178962111473e-07
1.130000000000000449e-02 9.693358151707798243e-07
1.145000000000000184e-02 1.014985173242166638e-06
1.160000000000000614e-02 1.061409420799463987e-06
1.175000000000000350e-02 1.107575371861457825e-06
1.190000000000000085e-02 1.154417986981570721e-06
1.205000000000000515e-02 1.203683495987206697e-06
1.220000000000000251e-02 1.255866663996130228e-06
1.235000000000000681e-02 1.309999788645654917e-06
1.250000000000000416e-02 1.364634954370558262e-06
1.265000000000000152e-02 1.419335603713989258e-06
1.280000000000000582e-02 1.475542376283556223e-06
1.295000000000000318e-02 1.534186594653874636e-06
1.310000000000000747e-02 1.595210051164031029e-06
1.325000000000000483e-02 1.657572283875197172e-06
1.340000000000000219e-02 1.720720320008695126e-06
1.355000000000000648e-02 1.784464984666556120e-06
1.370000000000000384e-02 1.849497493822127581e-06
1.385000000000000120e-02 1.916640030685812235e-06
1.400000000000000550e-02 1.985608832910656929e-06
1.415000000000000285e-02 2.055705408565700054e-06
1.430000000000000715e-02 2.126020262949168682e-06
1.445000000000000451e-02 2.197237336076796055e-06
1.460000000000000187e-02 2.269531250931322575e-06
1.475000000000000616e-02 2.343731466680765152e-06
1.490000000000000352e-02 2.419663360342383385e-06
1.505000000000000088e-02 2.496410161256790161e-06
1.520000000000000517e-02 2.573171514086425304e-06
1.535000000000000253e-02 2.649947418831288815e-06
1.550000000000000683e-02 2.726941602304577827e-06
1.565000000000000419e-02 2.806016709655523300e-06
1.580000000000000154e-02 2.886314177885651588e-06
1.595000000000000584e-02 2.966247848235070705e-06
1.610000000000000320e-02 3.045453922823071480e-06
1.625000000000000749e-02 3.124048816971480846e-06
1.640000000000000485e-02 3.203327651135623455e-06
1.655000000000000221e-02 3.283625119365751743e-06
1.670000000000000651e-02 3.363893483765423298e-06
1.685000000000000386e-02 3.443303285166621208e-06
1.700000000000000122e-02 3.521301550790667534e-06
1.715000000000000552e-02 3.598237526603043079e-06
1.730000000000000288e-02 3.675188054330646992e-06
1.745000000000000717e-02 3.752313205040991306e-06
1.760000000000000453e-02 3.828434273600578308e-06
1.775000000000000189e-02 3.902037860825657845e-06
1.790000000000000618e-02 3.972731065005064011e-06
1.805000000000000354e-02 4.042260115966200829e-06
1.820000000000000784e-02 4.111177986487746239e-06
1.835000000000000520e-02 4.178291419520974159e-06
1.850000000000000255e-02 4.242785507813096046e-06
1.865000000000000685e-02 4.304369213059544563e-06
1.880000000000000421e-02 4.362140316516160965e-06
1.895000000000000157e-02 4.417554009705781937e-06
1.910000000000000586e-02 4.470610292628407478e-06
1.925000000000000322e-02 4.521483788266777992e-06
1.940000000000000752e-02 4.569214070215821266e-06
1.955000000000000487e-02 4.613830242305994034e-06
1.970000000000000223e-02 4.653527867048978806e-06
1.985000000000000653e-02 4.692177753895521164e-06
2.000000000000000389e-02 4.730391083285212517e-06
2.015000000000000818e-02 4.769302904605865479e-06
2.030000000000000554e-02 4.809553502127528191e-06
2.045000000000000290e-02 4.848348908126354218e-06
2.060000000000000719e-02 4.887086106464266777e-06
2.075000000000000455e-02 4.926754627376794815e-06
2.090000000000000191e-02 4.968023858964443207e-06
2.105000000000000621e-02 5.012640031054615974e-06
2.120000000000000356e-02 5.055277142673730850e-06
2.135000000000000786e-02 5.092821083962917328e-06
2.150000000000000522e-02 5.124195013195276260e-06
2.165000000000000258e-02 5.146401235833764076e-06
2.180000000000000687e-02 5.160720320418477058e-06
2.195000000000000423e-02 5.164270987734198570e-06
2.210000000000000159e-02 5.155656253919005394e-06
2.225000000000000588e-02 5.134759703651070595e-06
2.240000000000000324e-02 5.101726856082677841e-06
2.255000000000000754e-02 5.061359843239188194e-06
2.270000000000000490e-02 5.016598151996731758e-06
2.285000000000000225e-02 4.973611794412136078e-06
2.299999999999999961e-02 4.933768650516867638e-06
2.315000000000001085e-02 4.898407496511936188e-06
2.330000000000000820e-02 4.871748387813568115e-06
2.345000000000000556e-02 4.853704012930393219e-06
2.360000000000000292e-02 4.846457159146666527e-06
2.375000000000000028e-02 4.841043846681714058e-06
2.390000000000001151e-02 4.839297616854310036e-06
2.405000000000000887e-02 4.835455911234021187e-06
2.420000000000000623e-02 4.826346412301063538e-06
2.435000000000000359e-02 4.811852704733610153e-06
2.450000000000000094e-02 4.794012056663632393e-06
2.464999999999999830e-02 4.777059075422585011e-06
2.480000000000000954e-02 4.763365723192691803e-06
2.495000000000000689e-02 4.755434929393231869e-06
2.510000000000000425e-02 4.760629963129758835e-06
2.525000000000000161e-02 4.786910722032189369e-06
2.539999999999999897e-02 4.832050763070583344e-06
2.555000000000001020e-02 4.900735802948474884e-06
2.570000000000000756e-02 4.988469299860298634e-06
2.585000000000000492e-02 5.092377250548452139e-06
2.600000000000000228e-02 5.209643859416246414e-06
2.614999999999999963e-02 5.340729330782778561e-06
2.630000000000001087e-02 5.486576810653787106e-06
2.645000000000000823e-02 5.649247668770840392e-06
2.660000000000000558e-02 5.833551767864264548e-06
2.675000000000000294e-02 6.042519089533016086e-06
2.690000000000000030e-02 6.286933057708665729e-06
2.705000000000001154e-02 6.573063728865236044e-06
2.720000000000000889e-02 6.904781912453472614e-06
2.735000000000000625e-02 7.285118044819682837e-06
2.750000000000000361e-02 7.712762453593313694e-06
2.765000000000000097e-02 8.186820195987820625e-06
2.780000000000001220e-02 8.706934750080108643e-06
2.795000000000000956e-02 9.275812772102653980e-06
2.810000000000000692e-02 9.895724360831081867e-06
2.825000000000000427e-02 1.056792098097503185e-05
2.840000000000000163e-02 1.130279270000755787e-05
2.854999999999999899e-02 1.210675691254436970e-05
2.870000000000001023e-02 1.299090217798948288e-05
2.885000000000000758e-02 1.396334846504032612e-05
2.900000000000000494e-02 1.503125531598925591e-05
2.915000000000000230e-02 1.619654358364641666e-05
2.929999999999999966e-02 1.745889312587678432e-05
2.945000000000001089e-02 1.881978823803365231e-05
2.960000000000000825e-02 2.028234302997589111e-05
2.975000000000000561e-02 2.185118501074612141e-05
2.990000000000000296e-02 2.353757736273109913e-05
3.005000000000000032e-02 2.534565282985568047e-05
3.020000000000001156e-02 2.728929393924772739e-05
3.035000000000000892e-02 2.938034594990313053e-05
3.050000000000000627e-02 3.162995562888681889e-05
3.065000000000000363e-02 3.404670860618352890e-05
3.080000000000000099e-02 3.663758980110287666e-05
3.095000000000001222e-02 3.940612077713012695e-05
3.110000000000000958e-02 4.235346568748354912e-05
3.125000000000000694e-02 4.548736615106463432e-05
3.140000000000000430e-02 4.881643690168857574e-05
3.155000000000000165e-02 5.235354183241724968e-05
3.169999999999999901e-02 5.611259257420897484e-05
3.185000000000001025e-02 6.010854849591851234e-05
3.200000000000000761e-02 6.435619434341788292e-05
3.215000000000000496e-02 6.886728806421160698e-05
3.230000000000000232e-02 7.365411147475242615e-05
3.244999999999999968e-02 7.872411515563726425e-05
3.260000000000001091e-02 8.408527355641126633e-05
3.275000000000000827e-02 8.974387310445308685e-05
3.290000000000000563e-02 9.570957627147436142e-05
3.305000000000000299e-02 1.019960036501288414e-04
3.320000000000000034e-02 1.086209085769951344e-04
3.335000000000001158e-02 1.156034995801746845e-04
3.350000000000000894e-02 1.229626941494643688e-04
3.365000000000000629e-02 1.307131606154143810e-04
3.380000000000000365e-02 1.388677046634256840e-04
3.395000000000000101e-02 1.474377349950373173e-04
3.410000000000001225e-02 1.564326812513172626e-04
3.425000000000000960e-02 1.658647670410573483e-04
3.440000000000000696e-02 1.757428399287164211e-04
3.455000000000000432e-02 1.860812772065401077e-04
3.470000000000000168e-02 1.968974247574806213e-04
3.485000000000001291e-02 2.082107821479439735e-04
3.500000000000001027e-02 2.200436138082295656e-04
3.515000000000000763e-02 2.324134402442723513e-04
3.530000000000000498e-02 2.453323395457118750e-04
3.545000000000000234e-02 2.588128263596445322e-04
3.559999999999999970e-02 2.728607214521616697e-04
3.575000000000001094e-02 2.874866186175495386e-04
3.590000000000000829e-02 3.027035272680222988e-04
3.605000000000000565e-02 3.185204986948519945e-04
3.620000000000000301e-02 3.349537437316030264e-04
3.635000000000000037e-02 3.520197060424834490e-04
3.650000000000001160e-02 3.697336360346525908e-04
3.665000000000000896e-02 3.881098236888647079e-04
3.680000000000000632e-02 4.071606090292334557e-04
3.695000000000000367e-02 4.268923657946288586e-04
3.710000000000000103e-02 4.473055596463382244e-04
3.725000000000001227e-02 4.684044688474386930e-04
3.740000000000000963e-02 4.901881911791861057e-04
3.755000000000000698e-02 5.126654868945479393e-04
3.770000000000000434e-02 5.358429625630378723e-04
3.785000000000000170e-02 5.597288254648447037e-04
3.800000000000001293e-02 5.843252874910831451e-04
3.815000000000001029e-02 6.096377619542181492e-04
3.830000000000000765e-02 6.356601952575147152e-04
3.845000000000000501e-02 6.623897352255880833e-04
3.860000000000000236e-02 6.898178253322839737e-04
3.874999999999999972e-02 7.179307867772877216e-04
3.890000000000001096e-02 7.467184914276003838e-04
3.905000000000000832e-02 7.761642336845397949e-04
3.920000000000000567e-02 8.062603301368653774e-04
3.935000000000000303e-02 8.369917632080614567e-04
3.950000000000000039e-02 8.683481719344854355e-04
3.965000000000001162e-02 9.003086015582084656e-04
3.980000000000000898e-02 9.328498272225260735e-04
3.995000000000000634e-02 9.659512434154748917e-04
4.010000000000000370e-02 9.995689615607261658e-04
4.025000000000000105e-02 1.033680513501167297e-03
4.040000000000001229e-02 1.068242127075791359e-03
4.055000000000000965e-02 1.103220391087234020e-03
4.070000000000000701e-02 1.138571533374488354e-03
4.085000000000000436e-02 1.174255041405558586e-03
4.100000000000000172e-02 1.210223650559782982e-03
4.115000000000001296e-02 1.246435102075338364e-03
4.130000000000001031e-02 1.282840268686413765e-03
4.145000000000000767e-02 1.319377566687762737e-03
4.160000000000000503e-02 1.355989836156368256e-03
4.175000000000000239e-02 1.392610603943467140e-03
4.190000000000001362e-02 1.429172931239008904e-03
4.205000000000001098e-02 1.465602428652346134e-03
4.220000000000000834e-02 1.501824823208153248e-03
4.235000000000000570e-02 1.537763513624668121e-03
4.250000000000000305e-02 1.573341200128197670e-03
4.265000000000000041e-02 1.608477206900715828e-03
4.280000000000001165e-02 1.643089228309690952e-03
4.295000000000000900e-02 1.677094027400016785e-03
4.310000000000000636e-02 1.710401149466633797e-03
4.325000000000000372e-02 1.742910011671483517e-03
4.340000000000000108e-02 1.774521777406334877e-03
4.355000000000001231e-02 1.805129460990428925e-03
4.370000000000000967e-02 1.834621652960777283e-03
4.385000000000000703e-02 1.862895442172884941e-03
4.400000000000000439e-02 1.889834413304924965e-03
4.415000000000000174e-02 1.915345201268792152e-03
4.430000000000001298e-02 1.939320005476474762e-03
4.445000000000001034e-02 1.961653819307684898e-03
4.460000000000000769e-02 1.982226502150297165e-03
4.475000000000000505e-02 2.000923966988921165e-03
4.490000000000000241e-02 2.017619553953409195e-03
4.505000000000001364e-02 2.032184507697820663e-03
4.520000000000001100e-02 2.044496359303593636e-03
4.535000000000000836e-02 2.054432174190878868e-03
4.550000000000000572e-02 2.061876235529780388e-03
4.565000000000000308e-02 2.066722372546792030e-03
4.580000000000000043e-02 2.068861620500683784e-03
4.595000000000001167e-02 2.068178961053490639e-03
4.610000000000000903e-02 2.064566593617200851e-03
4.625000000000000638e-02 2.057902049273252487e-03
4.640000000000000374e-02 2.048064721748232841e-03
4.655000000000000110e-02 2.034940058365464211e-03
4.670000000000001233e-02 2.018418628722429276e-03
4.685000000000000969e-02 1.998393563553690910e-03
4.700000000000000705e-02 1.974772894755005836e-03
4.715000000000000441e-02 1.947473501786589622e-03
4.730000000000000177e-02 1.916420529596507549e-03
4.745000000000001300e-02 1.881529809907078743e-03
4.760000000000001036e-02 1.842715078964829445e-03
4.775000000000000772e-02 1.799905556254088879e-03
4.790000000000000507e-02 1.753021497279405594e-03
4.805000000000000243e-02 1.701992470771074295e-03
4.820000000000001367e-02 1.646770630031824112e-03
4.835000000000001102e-02 1.587309176102280617e-03