-4.000000000000000083e-02 -0.000000000000000000e+00
-3.985000000000000347e-02 -0.000000000000000000e+00
-3.969999999999999918e-02 -0.000000000000000000e+00
-3.955000000000000182e-02 -0.000000000000000000e+00
-3.939999999999999752e-02 -0.000000000000000000e+00
-3.925000000000000017e-02 -0.000000000000000000e+00
-3.910000000000000281e-02 -0.000000000000000000e+00
-3.894999999999999851e-02 -0.000000000000000000e+00
-3.880000000000000115e-02 -0.000000000000000000e+00
-3.865000000000000380e-02 -0.000000000000000000e+00
-3.849999999999999950e-02 -0.000000000000000000e+00
-3.835000000000000214e-02 -0.000000000000000000e+00
-3.819999999999999785e-02 -0.000000000000000000e+00
-3.805000000000000049e-02 -0.000000000000000000e+00
-3.790000000000000313e-02 -0.000000000000000000e+00
-3.774999999999999883e-02 -0.000000000000000000e+00
-3.760000000000000148e-02 -0.000000000000000000e+00
-3.744999999999999718e-02 -0.000000000000000000e+00
-3.729999999999999982e-02 -0.000000000000000000e+00
-3.715000000000000246e-02 -0.000000000000000000e+00
-3.699999999999999817e-02 -0.000000000000000000e+00
-3.685000000000000081e-02 -0.000000000000000000e+00
-3.670000000000000345e-02 -0.000000000000000000e+00
-3.654999999999999916e-02 -0.000000000000000000e+00
-3.640000000000000180e-02 -0.000000000000000000e+00
-3.624999999999999750e-02 -0.000000000000000000e+00
-3.610000000000000014e-02 -0.000000000000000000e+00
-3.595000000000000279e-02 -0.000000000000000000e+00
-3.579999999999999849e-02 -0.000000000000000000e+00
-3.565000000000000113e-02 -0.000000000000000000e+00
-3.550000000000000377e-02 -0.000000000000000000e+00
-3.534999999999999948e-02 -0.000000000000000000e+00
-3.520000000000000212e-02 -0.000000000000000000e+00
-3.504999999999999782e-02 -0.000000000000000000e+00
-3.490000000000000047e-02 -0.000000000000000000e+00
-3.475000000000000311e-02 -0.000000000000000000e+00
-3.459999999999999881e-02 -0.000000000000000000e+00
-3.445000000000000145e-02 -0.000000000000000000e+00
-3.429999999999999716e-02 -0.000000000000000000e+00
-3.414999999999999980e-02 -0.000000000000000000e+00
-3.400000000000000244e-02 -0.000000000000000000e+00
-3.384999999999999815e-02 -0.000000000000000000e+00
-3.370000000000000079e-02 -0.000000000000000000e+00
-3.354999999999999649e-02 -0.000000000000000000e+00
-3.339999999999999913e-02 0.000000000000000000e+00
-3.325000000000000178e-02 -5.605193857299268284e-45
-3.309999999999999748e-02 4.904544625136859748e-44
-3.295000000000000012e-02 2.172012619703466460e-43
-3.280000000000000276e-02 -7.852876594076274865e-42
-3.264999999999999847e-02 4.561506761070144529e-41
-3.250000000000000111e-02 3.705411490260184036e-40
-3.235000000000000375e-02 -6.276888059293333124e-39
-3.219999999999999946e-02 9.104622881094490159e-39
-3.205000000000000210e-02 3.841290918190675708e-37
-3.189999999999999780e-02 -2.285216729141313384e-36
-3.175000000000000044e-02 -1.324992494060104920e-35
-3.160000000000000309e-02 1.631780505810079410e-34
-3.144999999999999879e-02 1.924448982217318047e-34
-3.130000000000000143e-02 -7.652160391269970090e-33
-3.115000000000000061e-02 5.909179612198914849e-33
-3.099999999999999978e-02 2.785199857917416509e-31
-3.085000000000000242e-02 -4.814999774527491989e-31
-3.069999999999999812e-02 -8.555181681442770172e-30
-3.055000000000000077e-02 1.678198027030536421e-29
-3.039999999999999994e-02 2.316651537407338036e-28
-3.024999999999999911e-02 -3.535406006269830112e-28
-3.010000000000000175e-02 -5.536676885634036341e-27
-2.994999999999999746e-02 3.088272384434670281e-27
-2.980000000000000010e-02 1.117581339838386918e-25
-2.964999999999999927e-02 8.401992333756966090e-26
-2.949999999999999845e-02 -1.735737946721165570e-24
-2.935000000000000109e-02 -4.141388407069592680e-24
-2.920000000000000026e-02 1.677587656738477600e-23
-2.904999999999999943e-02 8.664064370752166073e-23
-2.890000000000000208e-02 -1.018113823925643621e-23
-2.874999999999999778e-02 -9.491760204139611695e-22
-2.860000000000000042e-02 -2.223033154003665106e-21
-2.844999999999999959e-02 2.582499877656033609e-21
-2.829999999999999877e-02 2.453505261654937064e-20
-2.815000000000000141e-02 5.139530347263676651e-20
-2.800000000000000058e-02 -1.785787218964303612e-21
-2.784999999999999976e-02 -2.912148541605519755e-19
-2.769999999999999893e-02 -9.316125784781536953e-19
-2.754999999999999810e-02 -1.884252501717711631e-18
-2.740000000000000074e-02 -3.038974923350658748e-18
-2.724999999999999992e-02 -4.401535159283985875e-18
-2.709999999999999909e-02 -6.069701615223244980e-18
-2.695000000000000173e-02 -8.048774244148216450e-18
-2.679999999999999744e-02 -1.028639954431950033e-17
-2.665000000000000008e-02 -1.283886632924071761e-17
-2.649999999999999925e-02 -1.578434978424302982e-17
-2.634999999999999842e-02 -1.909923638437988568e-17
-2.620000000000000107e-02 -2.280049408555658545e-17
-2.605000000000000024e-02 -2.698436535204367390e-17
-2.589999999999999941e-02 -3.166715722243702142e-17
-2.575000000000000205e-02 -3.685723249272953911e-17
-2.559999999999999776e-02 -4.265434914479512211e-17
-2.545000000000000040e-02 -4.910442562879781410e-17
-2.529999999999999957e-02 -5.622566984438113233e-17
-2.514999999999999875e-02 -6.412524469426254662e-17
-2.500000000000000139e-02 -7.286990034515263611e-17
-2.484999999999999709e-02 -8.249767387033903922e-17
-2.469999999999999973e-02 -9.313122622849601931e-17
-2.454999999999999891e-02 -1.048542879499486441e-16
-2.439999999999999808e-02 -1.177324577659948188e-16
-2.425000000000000072e-02 -1.319111672632111666e-16
-2.409999999999999989e-02 -1.474906707318391144e-16
-2.394999999999999907e-02 -1.645737238562924496e-16
-2.379999999999999824e-02 -1.833332934113784604e-16
-2.365000000000000088e-02 -2.038907433365709271e-16
-2.350000000000000006e-02 -2.263971896036159372e-16
-2.334999999999999923e-02 -2.510551657311358743e-16
-2.319999999999999840e-02 -2.780166479587138813e-16
-2.304999999999999757e-02 -3.074914622292526092e-16
-2.290000000000000022e-02 -3.397139455015658806e-16
-2.274999999999999939e-02 -3.748840240209853122e-16
-2.259999999999999856e-02 -4.132783334541282379e-16
-2.244999999999999774e-02 -4.551686125583856782e-16
-2.230000000000000038e-02 -5.008225237450899918e-16
-2.214999999999999955e-02 -5.505872975830562385e-16
-2.199999999999999872e-02 -6.047814184604520353e-16
-2.184999999999999790e-02 -6.637670459017877989e-16
-2.170000000000000054e-02 -7.279625612434479504e-16
-2.154999999999999971e-02 -7.977613583498729087e-16
-2.139999999999999888e-02 -8.736366110012226075e-16
-2.124999999999999806e-02 -9.560806041585294054e-16
-2.110000000000000070e-02 -1.045593669595824577e-15
-2.094999999999999987e-02 -1.142767089249850827e-15
-2.079999999999999905e-02 -1.248184362942147962e-15
-2.064999999999999822e-02 -1.362494529668549590e-15
-2.049999999999999739e-02 -1.486411955840946306e-15
-2.035000000000000003e-02 -1.620651537266820739e-15
-2.019999999999999921e-02 -1.766032778322641425e-15
-2.004999999999999838e-02 -1.923397523878860732e-15
-1.989999999999999755e-02 -2.093645005288107507e-15
-1.975000000000000019e-02 -2.277769639230458297e-15
-1.959999999999999937e-02 -2.476791676890880908e-15
-1.944999999999999854e-02 -2.691827719452093322e-15
-1.929999999999999771e-02 -2.924074624468565864e-15
-1.915000000000000036e-02 -3.174765460153263982e-15
-1.899999999999999953e-02 -3.445285125374948458e-15
-1.884999999999999870e-02 -3.737043718232560888e-15
-1.869999999999999787e-02 -4.051572039020026605e-15
-1.855000000000000052e-02 -4.390510155281466750e-15
-1.839999999999999969e-02 -4.755565261922072365e-15
-1.824999999999999886e-02 -5.148616925051800741e-15
-1.809999999999999803e-02 -5.571577745065552090e-15
-1.794999999999999721e-02 -6.026541587408939041e-15
-1.779999999999999985e-02 -6.515716243458979928e-15
-1.764999999999999902e-02 -7.041447147446621910e-15
-1.749999999999999820e-02 -7.606208482610794797e-15
-1.734999999999999737e-02 -8.212634097900985836e-15
-1.720000000000000001e-02 -8.863505225999504522e-15
-1.704999999999999918e-02 -9.561756836068587007e-15
-1.689999999999999836e-02 -1.031047466913508071e-14
-1.674999999999999753e-02 -1.111298925874758953e-14
-1.660000000000000017e-02 -1.197276666372627807e-14
-1.644999999999999934e-02 -1.289347284266686294e-14
-1.629999999999999852e-02 -1.387901431152208098e-14
-1.614999999999999769e-02 -1.493369399766398403e-14
-1.600000000000000033e-02 -1.606196560032923520e-14
-1.584999999999999951e-02 -1.726878934445695568e-14
-1.569999999999999868e-02 -1.855932874289360768e-14
-1.554999999999999785e-02 -1.993838816651601759e-14
-1.539999999999999702e-02 -2.140956411721822716e-14
-1.524999999999999967e-02 -2.297354946795109043e-14
-1.509999999999999884e-02 -2.462768453526022888e-14
-1.494999999999999801e-02 -2.636720221771849532e-14
-1.479999999999999719e-02 -2.819219060675240418e-14
-1.464999999999999983e-02 -3.012341895022863092e-14
-1.449999999999999900e-02 -3.222811625317074935e-14
-1.434999999999999817e-02 -3.464914986872624780e-14
-1.419999999999999735e-02 -3.761675351635421216e-14
-1.404999999999999999e-02 -4.140140514490367463e-14
-1.389999999999999916e-02 -4.614690723189589228e-14
-1.374999999999999833e-02 -5.153122123891656914e-14
-1.359999999999999751e-02 -5.625043142322601331e-14
-1.344999999999999668e-02 -5.746572380276038228e-14
-1.329999999999999932e-02 -5.058194802679688573e-14
-1.314999999999999850e-02 -3.002055526911406869e-14
-1.299999999999999767e-02 8.137708104485712191e-15
-1.284999999999999684e-02 6.086667628246722472e-14
-1.269999999999999948e-02 1.102466167944744779e-13
-1.254999999999999866e-02 1.145232996976885964e-13
-1.239999999999999783e-02 2.505970691374370674e-15
-1.224999999999999700e-02 -3.212813316170320954e-13
-1.209999999999999964e-02 -9.511111516424808343e-13
-1.194999999999999882e-02 -1.925576234920733931e-12
-1.179999999999999799e-02 -3.141961517350022604e-12
-1.164999999999999716e-02 -4.251213964190370120e-12
-1.149999999999999981e-02 -4.565754458535353777e-12
-1.134999999999999898e-02 -3.034881373986664244e-12
-1.119999999999999815e-02 1.642642185467613203e-12
-1.104999999999999732e-02 1.070513816481266645e-11
-1.089999999999999650e-02 2.478933204541622359e-11
-1.074999999999999914e-02 4.322074642626461127e-11
-1.059999999999999831e-02 6.329408525074242675e-11
-1.044999999999999749e-02 7.981101196596895875e-11
-1.029999999999999666e-02 8.520013861090802720e-11
-1.014999999999999930e-02 7.049842654094362615e-11
-9.999999999999998473e-03 2.728435533061457363e-11
-9.849999999999997646e-03 -4.966675334894254945e-11
-9.699999999999996819e-03 -1.596269921799731151e-10
-9.549999999999999462e-03 -2.939773424692759818e-10
-9.399999999999998634e-03 -4.361255245832751370e-10
-9.249999999999997807e-03 -5.639485545216871287e-10
-9.099999999999996980e-03 -6.548070974332631522e-10
-8.949999999999999623e-03 -6.921903050738364982e-10
-8.799999999999998795e-03 -6.720126677350890532e-10
-8.649999999999997968e-03 -6.063261004385367414e-10
-8.500000000000000611e-03 -5.224061183639605588e-10
-8.349999999999996314e-03 -4.564366662407337571e-10
-8.199999999999998956e-03 -4.430376066011376679e-10
-8.049999999999994660e-03 -5.035980521483907069e-10
-7.899999999999997302e-03 -6.377929295808826282e-10
-7.749999999999999944e-03 -8.219718239388384973e-10
-7.599999999999995648e-03 -1.016156048194716277e-09
-7.449999999999998290e-03 -1.178078967711826408e-09
-7.300000000000000933e-03 -1.279450323465880501e-09
-7.149999999999996636e-03 -1.318159803531671059e-09
-6.999999999999999278e-03 -1.320803022508698632e-09
-6.849999999999994982e-03 -1.333178900608800177e-09
-6.699999999999997624e-03 -1.402243654524681915e-09
-6.550000000000000266e-03 -1.556232476218610827e-09
-6.399999999999995970e-03 -1.791940817952308862e-09
-6.249999999999998612e-03 -2.075530858292040648e-09
-6.099999999999994316e-03 -2.357435135991181596e-09
-5.949999999999996958e-03 -2.595353265633093542e-09
-5.799999999999999600e-03 -2.774878993250240455e-09
-5.649999999999995304e-03 -2.917722952133772196e-09
-5.499999999999997946e-03 -3.072639032097868039e-09
-5.350000000000000588e-03 -3.293017414307541912e-09
-5.199999999999996292e-03 -3.610853838154071127e-09
-5.049999999999998934e-03 -4.021167399059777381e-09
-4.899999999999994638e-03 -4.485052329528116388e-09
-4.749999999999997280e-03 -4.949953336108592339e-09
-4.599999999999999922e-03 -5.378126388677628711e-09
-4.449999999999995626e-03 -5.767965660652407678e-09
-4.299999999999998268e-03 -6.156923859634844121e-09
-4.150000000000000910e-03 -6.602654423204512568e-09
-3.999999999999996614e-03 -7.153388992264808621e-09
-3.849999999999999256e-03 -7.822919201316835824e-09
-3.699999999999994960e-03 -8.584095212427200750e-09
-3.549999999999997602e-03 -9.385544785800448153e-09
-3.400000000000000244e-03 -1.018283057874214137e-08
-3.249999999999995948e-03 -1.096573498671205016e-08
-3.099999999999998590e-03 -1.176653086076839827e-08
-2.949999999999994293e-03 -1.264429272396228043e-08
-2.799999999999996936e-03 -1.365255286600586260e-08
-2.649999999999999578e-03 -1.481055278418352827e-08
-2.499999999999995282e-03 -1.609407718206057325e-08
-2.349999999999997924e-03 -1.745354438753565773e-08
-2.200000000000000566e-03 -1.884717448774608783e-08
-2.049999999999996270e-03 -2.026968104473780841e-08
-1.899999999999998912e-03 -2.175815438931749668e-08
-1.749999999999994615e-03 -2.337714022360160016e-08
-1.599999999999997258e-03 -2.517791131140256766e-08
-1.449999999999999900e-03 -2.717314373512635939e-08
-1.299999999999995604e-03 -2.933433052021428011e-08
-1.149999999999998246e-03 -3.161352424285723828e-08
-9.999999999999939493e-04 -3.397985892661381513e-08
-8.499999999999965916e-04 -3.644294110927148722e-08
-6.999999999999992339e-04 -3.905654466507257894e-08
-5.499999999999949374e-04 -4.188564162177499384e-08
-3.999999999999975797e-04 -4.497434247241471894e-08
-2.500000000000002220e-04 -4.832048716707504354e-08
-9.999999999999592548e-05 -5.188371687836479396e-08
5.000000000000143219e-05 -5.562822025240166113e-08
2.000000000000057288e-04 -5.954268544883234426e-08
3.500000000000030864e-04 -6.366303750837687403e-08
5.000000000000004441e-04 -6.805544217058923095e-08
6.500000000000047407e-04 -7.278174507518997416e-08
8.000000000000020983e-04 -7.786491096339887008e-08
9.500000000000063949e-04 -8.328879630425944924e-08
1.100000000000003753e-03 -8.900951797841116786e-08
1.250000000000001110e-03 -9.500638498138869181e-08
1.400000000000005407e-03 -1.013015662465477362e-07
1.550000000000002764e-03 -1.079615685739554465e-07
1.700000000000000122e-03 -1.150567641161615029e-07
1.850000000000004419e-03 -1.226344465976580977e-07
2.000000000000001776e-03 -1.306850663240766153e-07
2.150000000000006073e-03 -1.391742898704251274e-07
2.300000000000003431e-03 -1.480730134062469006e-07
2.450000000000000788e-03 -1.574035195517353714e-07
2.600000000000005085e-03 -1.672344751568743959e-07
2.750000000000002442e-03 -1.776368208084022626e-07
2.899999999999999800e-03 -1.886373866000212729e-07
3.050000000000004097e-03 -2.002625478780828416e-07
3.200000000000001454e-03 -2.124979801010340452e-07
3.350000000000005751e-03 -2.253486854897346348e-07
3.500000000000003109e-03 -2.387914719292894006e-07
3.650000000000000466e-03 -2.528609002183657140e-07
3.800000000000004763e-03 -2.676383701327722520e-07
3.950000000000002121e-03 -2.832102836691774428e-07
4.100000000000006417e-03 -2.996252987941261381e-07
4.250000000000003775e-03 -3.168479452142491937e-07
4.400000000000001132e-03 -3.347813617438077927e-07
4.550000000000005429e-03 -3.534587449394166470e-07
4.700000000000002787e-03 -3.730165190063416958e-07
4.850000000000000144e-03 -3.935456334147602320e-07
5.000000000000004441e-03 -4.150570021010935307e-07
5.150000000000001799e-03 -4.374469426693394780e-07
5.300000000000006095e-03 -4.607663868227973580e-07
5.450000000000003453e-03 -4.851162884733639657e-07
5.600000000000000810e-03 -5.105785021441988647e-07
5.750000000000005107e-03 -5.370329745346680284e-07
5.900000000000002465e-03 -5.644287739414721727e-07
6.050000000000006761e-03 -5.928659447818063200e-07
6.200000000000004119e-03 -6.225873221410438418e-07
6.350000000000001477e-03 -6.536829459946602583e-07
6.500000000000005773e-03 -6.858917913632467389e-07
6.650000000000003131e-03 -7.189628377091139555e-07
6.800000000000000488e-03 -7.530197763117030263e-07
6.950000000000004785e-03 -7.884882506914436817e-07
7.100000000000002143e-03 -8.256483852164819837e-07
7.250000000000006439e-03 -8.640654414193704724e-07
7.400000000000003797e-03 -9.033192327478900552e-07
7.550000000000001155e-03 -9.435188985662534833e-07
7.700000000000005451e-03 -9.852719813352450728e-07
7.850000000000002809e-03 -1.028940459946170449e-06
8.000000000000000167e-03 -1.073951352736912668e-06
8.150000000000004463e-03 -1.119724402087740600e-06
8.300000000000001821e-03 -1.166543370345607400e-06
8.450000000000006117e-03 -1.215375959873199463e-06
8.600000000000003475e-03 -1.266493200091645122e-06
8.750000000000000833e-03 -1.318941940553486347e-06
8.900000000000005129e-03 -1.371994585497304797e-06
9.050000000000002487e-03 -1.426131348125636578e-06
9.200000000000006783e-03 -1.482738298363983631e-06
9.350000000000004141e-03 -1.542022801004350185e-06
9.500000000000001499e-03 -1.602427801117300987e-06
9.650000000000005795e-03 -1.662447175476700068e-06
9.800000000000003153e-03 -1.722823071759194136e-06
9.950000000000000511e-03 -1.784988853614777327e-06
1.010000000000000481e-02 -1.848904503276571631e-06
1.025000000000000216e-02 -1.911936124088242650e-06
1.040000000000000646e-02 -1.971755409613251686e-06
1.055000000000000382e-02 -2.029024471994489431e-06
1.070000000000000118e-02 -2.085398591589182615e-06
1.085000000000000547e-02 -2.140346623491495848e-06
1.100000000000000283e-02 -2.190470695495605469e-06
1.115000000000000713e-02 -2.233115083072334528e-06
1.130000000000000449e-02 -2.269742253702133894e-06
1.145000000000000184e-02 -2.303037035744637251e-06
1.160000000000000614e-02 -2.332904841750860214e-06
1.175000000000000350e-02 -2.356231561861932278e-06
1.190000000000000085e-02 -2.371270966250449419e-06
1.205000000000000515e-02 -2.381173544563353062e-06
1.220000000000000251e-02 -2.390450390521436930e-06
1.235000000000000681e-02 -2.400367520749568939e-06
1.250000000000000416e-02 -2.407963620498776436e-06
1.265000000000000152e-02 -2.411667082924395800e-06
1.280000000000000582e-02 -2.415574272163212299e-06
1.295000000000000318e-02 -2.424436388537287712e-06
1.310000000000000747e-02 -2.437249349895864725e-06
1.325000000000000483e-02 -2.450280589982867241e-06
1.340000000000000219e-02 -2.459884854033589363e-06
1.355000000000000648e-02 -2.467189915478229523e-06
1.370000000000000384e-02 -2.474320353940129280e-06
1.385000000000000120e-02 -2.477710950188338757e-06
1.400000000000000550e-02 -2.470274921506643295e-06
1.415000000000000285e-02 -2.446424332447350025e-06
1.430000000000000715e-02 -2.407279680483043194e-06
1.445000000000000451e-02 -2.352942829020321369e-06
1.460000000000000187e-02 -2.281216438859701157e-06
1.475000000000000616e-02 -2.186236088164150715e-06
1.490000000000000352e-02 -2.065702574327588081e-06
1.505000000000000088e-02 -1.922453520819544792e-06
1.520000000000000517e-02 -1.760039594955742359e-06
1.535000000000000253e-02 -1.579013769514858723e-06
1.550000000000000683e-02 -1.376436557620763779e-06
1.565000000000000419e-02 -1.152409822680056095e-06
1.580000000000000154e-02 -9.094655979424715042e-07
1.595000000000000584e-02 -6.489717634394764900e-07
1.610000000000000320e-02 -3.696914063766598701e-07
1.625000000000000749e-02 -6.785558070987462997e-08
1.640000000000000485e-02 2.612796379253268242e-07
1.655000000000000221e-02 6.213231245055794716e-07
1.670000000000000651e-02 1.015141606330871582e-06
1.685000000000000386e-02 1.448104740120470524e-06
1.700000000000000122e-02 1.924578100442886353e-06
1.715000000000000552e-02 2.450047759339213371e-06
1.730000000000000288e-02 3.028602804988622665e-06
1.745000000000000717e-02 3.663299139589071274e-06
1.760000000000000453e-02 4.355097189545631409e-06
1.775000000000000189e-02 5.104870069772005081e-06
1.790000000000000618e-02 5.913287168368697166e-06
1.805000000000000354e-02 6.785005098208785057e-06
1.820000000000000784e-02 7.721944712102413177e-06
1.835000000000000520e-02 8.724106010049581528e-06
1.850000000000000255e-02 9.793177014216780663e-06
1.865000000000000685e-02 1.093430910259485245e-05
1.880000000000000421e-02 1.215568045154213905e-05
1.895000000000000157e-02 1.346608041785657406e-05
1.910000000000000586e-02 1.487039844505488873e-05
1.925000000000000322e-02 1.637564855627715588e-05
1.940000000000000752e-02 1.798904850147664547e-05
1.955000000000000487e-02 1.972247264347970486e-05
1.970000000000000223e-02 2.158322604373097420e-05
1.985000000000000653e-02 2.357753692194819450e-05
2.000000000000000389e-02 2.570674405433237553e-05
2.015000000000000818e-02 2.797791967168450356e-05
2.030000000000000554e-02 3.039793227799236774e-05
2.045000000000000290e-02 3.297426155768334866e-05
2.060000000000000719e-02 3.571208799257874489e-05
2.075000000000000455e-02 3.861775621771812439e-05
2.090000000000000191e-02 4.170014290139079094e-05
2.105000000000000621e-02 4.497120971791446209e-05
2.120000000000000356e-02 4.844382056035101414e-05
2.135000000000000786e-02 5.213179974816739559e-05
2.150000000000000522e-02 5.604713805951178074e-05
2.165000000000000258e-02 6.020264117978513241e-05
2.180000000000000687e-02 6.461201701313257217e-05
2.195000000000000423e-02 6.928830407559871674e-05
2.210000000000000159e-02 7.424579234793782234e-05
2.225000000000000588e-02 7.949650171212852001e-05
2.240000000000000324e-02 8.504833385813981295e-05
2.255000000000000754e-02 9.091278479900211096e-05
2.270000000000000490e-02 9.710251470096409321e-05
2.285000000000000225e-02 1.036342146107926965e-04
2.299999999999999961e-02 1.105229166569188237e-04
2.315000000000001085e-02 1.177835947601124644e-04
2.330000000000000820e-02 1.254334056284278631e-04
2.345000000000000556e-02 1.334914704784750938e-04
2.360000000000000292e-02 1.419800246367231011e-04
2.375000000000000028e-02 1.509211288066580892e-04
2.390000000000001151e-02 1.603320852154865861e-04
2.405000000000000887e-02 1.702306326478719711e-04
2.420000000000000623e-02 1.806339423637837172e-04
2.435000000000000359e-02 1.915630418807268143e-04
2.450000000000000094e-02 2.030368632404133677e-04
2.464999999999999830e-02 2.150714426534250379e-04
2.480000000000000954e-02 2.276834566146135330e-04
2.495000000000000689e-02 2.408920554444193840e-04
2.510000000000000425e-02 2.547178592067211866e-04
2.525000000000000161e-02 2.691837726160883904e-04
2.539999999999999897e-02 2.843131369445472956e-04
2.555000000000001020e-02 3.001286822836846113e-04
2.570000000000000756e-02 3.166531969327479601e-04
2.585000000000000492e-02 3.339092945680022240e-04
2.600000000000000228e-02 3.519200254231691360e-04
2.614999999999999963e-02 3.707068972289562225e-04
2.630000000000001087e-02 3.902917087543755770e-04
2.645000000000000823e-02 4.106892156414687634e-04
2.660000000000000558e-02 4.319162690080702305e-04
2.675000000000000294e-02 4.539894580375403166e-04
2.690000000000000030e-02 4.769301740452647209e-04
2.705000000000001154e-02 5.007561994716525078e-04
2.720000000000000889e-02 5.254829302430152893e-04
2.735000000000000625e-02 5.511273629963397980e-04
2.750000000000000361e-02 5.777069018222391605e-04
2.765000000000000097e-02 6.052415701560676098e-04
2.780000000000001220e-02 6.337472586892545223e-04
2.795000000000000956e-02 6.632371223531663418e-04
2.810000000000000692e-02 6.937215803191065788e-04
2.825000000000000427e-02 7.252087234519422054e-04
2.840000000000000163e-02 7.577075739391148090e-04
2.854999999999999899e-02 7.912216242402791977e-04
2.870000000000001023e-02 8.257512818090617657e-04
2.885000000000000758e-02 8.612964884378015995e-04
2.900000000000000494e-02 8.978553232736885548e-04
2.915000000000000230e-02 9.354259818792343140e-04
2.929999999999999966e-02 9.740066016092896461e-04
2.945000000000001089e-02 1.013593282550573349e-03
2.960000000000000825e-02 1.054179272614419460e-03
2.975000000000000561e-02 1.095752813853323460e-03
2.990000000000000296e-02 1.138297026045620441e-03
3.005000000000000032e-02 1.181793399155139923e-03
3.020000000000001156e-02 1.226219465024769306e-03
3.035000000000000892e-02 1.271549612283706665e-03
3.050000000000000627e-02 1.317751710303127766e-03
3.065000000000000363e-02 1.364789321087300777e-03
3.080000000000000099e-02 1.412624958902597427e-03
3.095000000000001222e-02 1.461219624616205692e-03
3.110000000000000958e-02 1.510528498329222202e-03
3.125000000000000694e-02 1.560501288622617722e-03
3.140000000000000430e-02 1.611084677278995514e-03
3.155000000000000165e-02 1.662222552113234997e-03
3.169999999999999901e-02 1.713858684524893761e-03
3.185000000000001025e-02 1.765927998349070549e-03
3.200000000000000761e-02 1.818362041376531124e-03
3.215000000000000496e-02 1.871082582511007786e-03
3.230000000000000232e-02 1.924003474414348602e-03
3.244999999999999968e-02 1.977035775780677795e-03
3.260000000000001091e-02 2.030087634921073914e-03
3.275000000000000827e-02 2.083060797303915024e-03
3.290000000000000563e-02 2.135855145752429962e-03
3.305000000000000299e-02 2.188367769122123718e-03
3.320000000000000034e-02 2.240489935502409935e-03
3.335000000000001158e-02 2.292111283168196678e-03
3.350000000000000894e-02 2.343113999813795090e-03
3.365000000000000629e-02 2.393376780673861504e-03
3.380000000000000365e-02 2.442766446620225906e-03
3.395000000000000101e-02 2.491147024556994438e-03
3.410000000000001225e-02 2.538377884775400162e-03
3.425000000000000960e-02 2.584320493042469025e-03
3.440000000000000696e-02 2.628827001899480820e-03
3.455000000000000432e-02 2.671747468411922455e-03
3.470000000000000168e-02 2.712925430387258530e-03
3.485000000000001291e-02 2.752207918092608452e-03
3.500000000000001027e-02 2.789429388940334320e-03
3.515000000000000763e-02 2.824430121108889580e-03
3.530000000000000498e-02 2.857048064470291138e-03
3.545000000000000234e-02 2.887114416807889938e-03
3.559999999999999970e-02 2.914460841566324234e-03
3.575000000000001094e-02 2.938922494649887085e-03
3.590000000000000829e-02 2.960327547043561935e-03
3.605000000000000565e-02 2.978503238409757614e-03
3.620000000000000301e-02 2.993268892168998718e-03
3.635000000000000037e-02 3.004449419677257538e-03
3.650000000000001160e-02 3.011870896443724632e-03
3.665000000000000896e-02 3.015354275703430176e-03
3.680000000000000632e-02 3.014737274497747421e-03
3.695000000000000367e-02 3.009860869497060776e-03
3.710000000000000103e-02 3.000563476234674454e-03
3.725000000000001227e-02 2.986681880429387093e-03
3.740000000000000963e-02 2.968055196106433868e-03
3.755000000000000698e-02 2.944531617686152458e-03
3.770000000000000434e-02 2.915965160354971886e-03
3.785000000000000170e-02 2.882199827581644058e-03
3.800000000000001293e-02 2.843105699867010117e-03
3.815000000000001029e-02 2.798547968268394470e-03
3.830000000000000765e-02 2.748409286141395569e-03
3.845000000000000501e-02 2.692572074010968208e-03
3.860000000000000236e-02 2.630925504490733147e-03
3.874999999999999972e-02 2.563367830589413643e-03
3.890000000000001096e-02 2.489825943484902382e-03
3.905000000000000832e-02 2.410215325653553009e-03
3.920000000000000567e-02 2.324468921869993210e-03
3.935000000000000303e-02 2.232537837699055672e-03
3.950000000000000039e-02 2.134377602487802505e-03
3.965000000000001162e-02 2.029951894655823708e-03
3.980000000000000898e-02 1.919241622090339661e-03
3.995000000000000634e-02 1.802238053642213345e-03
4.010000000000000370e-02 1.678947359323501587e-03
4.025000000000000105e-02 1.549392822198569775e-03
4.040000000000001229e-02 1.413608435541391373e-03
4.055000000000000965e-02 1.271653454750776291e-03
4.070000000000000701e-02 1.123598776757717133e-03
4.085000000000000436e-02 9.695258340798318386e-04
4.100000000000000172e-02 8.095388766378164291e-04
4.115000000000001296e-02 6.437521660700440407e-04
4.130000000000001031e-02 4.722962621599435806e-04
4.145000000000000767e-02 2.953082439489662647e-04
4.160000000000000503e-02 1.129637821577489376e-04
4.175000000000000239e-02 -7.456564344465732574e-05
4.190000000000001362e-02 -2.670694375410676003e-04
4.205000000000001098e-02 -4.643469001166522503e-04
4.220000000000000834e-02 -6.661655497737228870e-04
4.235000000000000570e-02 -8.722732309252023697e-04
4.250000000000000305e-02 -1.082415110431611538e-03
4.265000000000000041e-02 -1.296303002163767815e-03
4.280000000000001165e-02 -1.513637602329254150e-03
4.295000000000000900e-02 -1.734119141474366188e-03
4.310000000000000636e-02 -1.957416068762540817e-03
4.325000000000000372e-02 -2.183205913752317429e-03
4.340000000000000108e-02 -2.411127090454101562e-03
4.355000000000001231e-02 -2.640823135152459145e-03
4.370000000000000967e-02 -2.871923847123980522e-03
4.385000000000000703e-02 -3.104035509750247002e-03
4.400000000000000439e-02 -3.336764872074127197e-03
4.415000000000000174e-02 -3.569697495549917221e-03
4.430000000000001298e-02 -3.802413586527109146e-03
4.445000000000001034e-02 -4.034491255879402161e-03
4.460000000000000769e-02 -4.265488125383853912e-03
4.475000000000000505e-02 -4.494974389672279358e-03
4.490000000000000241e-02 -4.722508601844310760e-03
4.505000000000001364e-02 -4.947638604789972305e-03
4.520000000000001100e-02 -5.169917829334735870e-03
4.535000000000000836e-02 -5.388895981013774872e-03
4.550000000000000572e-02 -5.604118574410676956e-03
4.565000000000000308e-02 -5.815129727125167847e-03
4.580000000000000043e-02 -6.021488923579454422e-03
4.595000000000001167e-02 -6.222730968147516251e-03
4.610000000000000903e-02 -6.418416742235422134e-03
4.625000000000000638e-02 -6.608100607991218567e-03
4.640000000000000374e-02 -6.791349966078996658e-03
4.655000000000000110e-02 -6.967740599066019058e-03
4.670000000000001233e-02 -7.136852014809846878e-03
4.685000000000000969e-02 -7.298282813280820847e-03
4.700000000000000705e-02 -7.451634854078292847e-03
4.715000000000000441e-02 -7.596534211188554764e-03
4.730000000000000177e-02 -7.732611615210771561e-03
4.745000000000001300e-02 -7.859509438276290894e-03
4.760000000000001036e-02 -7.976890541613101959e-03
4.775000000000000772e-02 -8.084430359303951263e-03
4.790000000000000507e-02 -8.181821554899215698e-03