-4.000000000000000083e-02 0.000000000000000000e+00
-3.985000000000000347e-02 0.000000000000000000e+00
-3.969999999999999918e-02 0.000000000000000000e+00
-3.955000000000000182e-02 0.000000000000000000e+00
-3.939999999999999752e-02 0.000000000000000000e+00
-3.925000000000000017e-02 0.000000000000000000e+00
-3.910000000000000281e-02 0.000000000000000000e+00
-3.894999999999999851e-02 -2.301632727653512039e-41
-3.880000000000000115e-02 1.733406200369798717e-38
-3.865000000000000380e-02 -2.789897622080333486e-36
-3.849999999999999950e-02 -1.873099922183420565e-33
-3.835000000000000214e-02 1.252826009932657925e-31
-3.819999999999999785e-02 1.137349841256748476e-30
-3.805000000000000049e-02 -3.858399143159395517e-28
-3.790000000000000313e-02 2.025683254745179408e-26
-3.774999999999999883e-02 -6.300379121472484803e-25
-3.760000000000000148e-02 1.290185323704766736e-23
-3.744999999999999718e-02 -1.451066342467572687e-22
-3.729999999999999982e-02 -5.350856899195075624e-22
-3.715000000000000246e-02 5.395171161808043411e-20
-3.699999999999999817e-02 -9.587826698659532880e-19
-3.685000000000000081e-02 7.133881053801290826e-18
-3.670000000000000345e-02 8.472069860551814961e-18
-3.654999999999999916e-02 -4.730564660967388063e-16
-3.640000000000000180e-02 1.440793725917145079e-15
-3.624999999999999750e-02 1.137881530265030111e-14
-3.610000000000000014e-02 -2.119558834814874032e-14
-3.595000000000000279e-02 -1.980983600899030583e-13
-3.579999999999999849e-02 -5.036694802548757899e-13
-3.565000000000000113e-02 -8.830737248215203561e-13
-3.550000000000000377e-02 -1.379764466742650075e-12
-3.534999999999999948e-02 -1.979794366641085546e-12
-3.520000000000000212e-02 -2.678016012072625962e-12
-3.504999999999999782e-02 -3.511520067778217680e-12
-3.490000000000000047e-02 -4.457093114723642557e-12
-3.475000000000000311e-02 -5.548895544438270377e-12
-3.459999999999999881e-02 -6.791124520372227025e-12
-3.445000000000000145e-02 -8.188580889745278313e-12
-3.429999999999999716e-02 -9.776788753579346292e-12
-3.414999999999999980e-02 -1.154556832083653006e-11
-3.400000000000000244e-02 -1.353809772619563034e-11
-3.384999999999999815e-02 -1.575480024218478547e-11
-3.370000000000000079e-02 -1.822735365419880793e-11
-3.354999999999999649e-02 -2.097755649743682227e-11
-3.339999999999999913e-02 -2.402573279214337276e-11
-3.325000000000000178e-02 -2.740830479242006845e-11
-3.309999999999999748e-02 -3.114652979974152913e-11
-3.295000000000000012e-02 -3.528007747055639243e-11
-3.280000000000000276e-02 -3.984147733948617542e-11
-3.264999999999999847e-02 -4.486920904267499566e-11
-3.250000000000000111e-02 -5.040869111017087789e-11
-3.235000000000000375e-02 -5.650124465517158967e-11
-3.219999999999999946e-02 -6.320078488331049016e-11
-3.205000000000000210e-02 -7.055896145136131281e-11
-3.189999999999999780e-02 -7.863343309821857474e-11
-3.175000000000000044e-02 -8.749201363400516129e-11
-3.160000000000000309e-02 -9.719513388573020052e-11
-3.144999999999999879e-02 -1.078277883648226521e-10
-3.130000000000000143e-02 -1.194583043595542904e-10
-3.115000000000000061e-02 -1.321839165902005675e-10
-3.099999999999999978e-02 -1.460915416418018253e-10
-3.085000000000000242e-02 -1.612834449327138486e-10
-3.069999999999999812e-02 -1.778754504799806568e-10
-3.055000000000000077e-02 -1.959744588830858447e-10
-3.039999999999999994e-02 -2.157258954804675000e-10
-3.024999999999999911e-02 -2.372523844051954711e-10
-3.010000000000000175e-02 -2.607170035417993859e-10
-2.994999999999999746e-02 -2.862722281449237016e-10
-2.980000000000000010e-02 -3.140866733364333641e-10
-2.964999999999999927e-02 -3.443501872535392749e-10
-2.949999999999999845e-02 -3.772443746274944942e-10
-2.935000000000000109e-02 -4.129964981114397915e-10
-2.920000000000000026e-02 -4.518240781514748505e-10
-2.904999999999999943e-02 -4.939845199558590139e-10
-2.890000000000000208e-02 -5.397414182262139093e-10
-2.874999999999999778e-02 -5.893751042762573888e-10
-2.860000000000000042e-02 -6.431932764172643147e-10
-2.844999999999999959e-02 -7.015104053209597623e-10
-2.829999999999999877e-02 -7.646822619555848632e-10
-2.815000000000000141e-02 -8.330745537854511440e-10
-2.800000000000000058e-02 -9.070925122145467867e-10
-2.784999999999999976e-02 -9.871585771037416634e-10
-2.769999999999999893e-02 -1.073728772560400557e-09
-2.754999999999999810e-02 -1.167291374670753612e-09
-2.740000000000000074e-02 -1.268361526918226900e-09
-2.724999999999999992e-02 -1.377500336019465976e-09
-2.709999999999999909e-02 -1.495287782482535022e-09
-2.695000000000000173e-02 -1.622358802855217164e-09
-2.679999999999999744e-02 -1.759379975041497346e-09
-2.665000000000000008e-02 -1.907068947204493270e-09
-2.649999999999999925e-02 -2.066193216521128306e-09
-2.634999999999999842e-02 -2.237552365613737493e-09
-2.620000000000000107e-02 -2.422008815727849651e-09
-2.605000000000000024e-02 -2.620465178182485033e-09
-2.589999999999999941e-02 -2.833896450837869452e-09
-2.575000000000000205e-02 -3.063338027686768328e-09
-2.559999999999999776e-02 -3.309881257962388190e-09
-2.545000000000000040e-02 -3.574685214502437702e-09
-2.529999999999999957e-02 -3.858964259251251860e-09
-2.514999999999999875e-02 -4.164019795638296273e-09
-2.500000000000000139e-02 -4.491228278169501209e-09
-2.484999999999999709e-02 -4.842053424880532475e-09
-2.469999999999999973e-02 -5.218034893061940238e-09
-2.454999999999999891e-02 -5.620793608329677227e-09
-2.439999999999999808e-02 -6.052045087301394233e-09
-2.425000000000000072e-02 -6.513598105328810561e-09
-2.409999999999999989e-02 -7.007374680512157283e-09
-2.394999999999999907e-02 -7.535384760615215782e-09
-2.379999999999999824e-02 -8.099745762990551157e-09
-2.365000000000000088e-02 -8.702672360527685669e-09
-2.350000000000000006e-02 -9.346494245221492747e-09
-2.334999999999999923e-02 -1.003366545404560384e-08
-2.319999999999999840e-02 -1.076674838174085380e-08
-2.304999999999999757e-02 -1.154844575523839012e-08
-2.290000000000000022e-02 -1.238158287009127889e-08
-2.274999999999999939e-02 -1.326913601218393524e-08
-2.259999999999999856e-02 -1.421423778680264149e-08
-2.244999999999999774e-02 -1.522017889499238663e-08
-2.230000000000000038e-02 -1.629043211437419814e-08
-2.214999999999999955e-02 -1.742862743014939042e-08
-2.199999999999999872e-02 -1.863857335138163762e-08
-2.184999999999999790e-02 -1.992424181196383870e-08
-2.170000000000000054e-02 -2.128978060511599324e-08
-2.154999999999999971e-02 -2.273950272524416505e-08
-2.139999999999999888e-02 -2.427790057879519736e-08
-2.124999999999999806e-02 -2.590963710247251583e-08
-2.110000000000000070e-02 -2.763956175044768315e-08
-2.094999999999999987e-02 -2.947273891606982943e-08
-2.079999999999999905e-02 -3.141443727372461581e-08
-2.064999999999999822e-02 -3.347016885868470126e-08
-2.049999999999999739e-02 -3.564566952718450921e-08
-2.035000000000000003e-02 -3.794689718006338808e-08
-2.019999999999999921e-02 -4.038003709183612955e-08
-2.004999999999999838e-02 -4.295148769983825332e-08
-1.989999999999999755e-02 -4.566786415693968593e-08
-1.975000000000000019e-02 -4.853599833154476073e-08
-1.959999999999999937e-02 -5.156293880759221793e-08
-1.944999999999999854e-02 -5.475597220083727734e-08
-1.929999999999999771e-02 -5.812263736970635364e-08
-1.915000000000000036e-02 -6.167074673157912912e-08
-1.899999999999999953e-02 -6.540835784107912332e-08
-1.884999999999999870e-02 -6.934381957535151741e-08
-1.869999999999999787e-02 -7.348570818521693582e-08
-1.855000000000000052e-02 -7.784283440059880377e-08
-1.839999999999999969e-02 -8.242422211424127454e-08
-1.824999999999999886e-02 -8.723913680341865984e-08
-1.809999999999999803e-02 -9.229706421365335700e-08
-1.794999999999999721e-02 -9.760773167499792180e-08
-1.779999999999999985e-02 -1.031811223128897836e-07
-1.764999999999999902e-02 -1.090274537318691728e-07
-1.749999999999999820e-02 -1.151572064372885507e-07
-1.734999999999999737e-02 -1.215811096244578948e-07
-1.720000000000000001e-02 -1.283100914406531956e-07
-1.704999999999999918e-02 -1.353552789851164562e-07
-1.689999999999999836e-02 -1.427279556764915469e-07
-1.674999999999999753e-02 -1.504396038853883510e-07
-1.660000000000000017e-02 -1.585018623018186190e-07
-1.644999999999999934e-02 -1.669265827786148293e-07
-1.629999999999999852e-02 -1.757257592771566124e-07
-1.614999999999999769e-02 -1.849115278673707508e-07
-1.600000000000000033e-02 -1.944962377820047550e-07
-1.584999999999999951e-02 -2.044922950972249964e-07
-1.569999999999999868e-02 -2.149122337868902832e-07
-1.554999999999999785e-02 -2.257686304574235692e-07
-1.539999999999999702e-02 -2.370741185586666688e-07
-1.524999999999999967e-02 -2.488413315404613968e-07
-1.509999999999999884e-02 -2.610830449611967197e-07
-1.494999999999999801e-02 -2.738119064815691672e-07
-1.479999999999999719e-02 -2.870406490274035605e-07
-1.464999999999999983e-02 -3.007819202593964292e-07
-1.449999999999999900e-02 -3.150482825731160119e-07
-1.434999999999999817e-02 -3.298522130990022561e-07
-1.419999999999999735e-02 -3.452059900155290961e-07
-1.404999999999999999e-02 -3.611217778143327450e-07
-1.389999999999999916e-02 -3.776115420350834029e-07
-1.374999999999999833e-02 -3.946869924220663961e-07
-1.359999999999999751e-02 -4.123596966110198991e-07
-1.344999999999999668e-02 -4.306408527554594912e-07
-1.329999999999999932e-02 -4.495412895266781561e-07
-1.314999999999999850e-02 -4.690715229571651435e-07
-1.299999999999999767e-02 -4.892416427537682466e-07
-1.284999999999999684e-02 -5.100612270325655118e-07
-1.269999999999999948e-02 -5.315394560057029594e-07
-1.254999999999999866e-02 -5.536849130294285715e-07
-1.239999999999999783e-02 -5.765057267126394436e-07
-1.224999999999999700e-02 -6.000092866997874808e-07
-1.209999999999999964e-02 -6.242024710445548408e-07
-1.194999999999999882e-02 -6.490913619927596301e-07
-1.179999999999999799e-02 -6.746812459823559038e-07
-1.164999999999999716e-02 -7.009767841736902483e-07
-1.149999999999999981e-02 -7.279816145455697551e-07
-1.134999999999999898e-02 -7.556985224255186040e-07
-1.119999999999999815e-02 -7.841294404897780623e-07
-1.104999999999999732e-02 -8.132752782330499031e-07
-1.089999999999999650e-02 -8.431360356553341262e-07
-1.074999999999999914e-02 -8.737105190448346548e-07
-1.059999999999999831e-02 -9.049965115082159173e-07
-1.044999999999999749e-02 -9.369905455969274044e-07
-1.029999999999999666e-02 -9.696879033072036691e-07
-1.014999999999999930e-02 -1.003082729766902048e-06
-9.999999999999998473e-03 -1.037167749018408358e-06
-9.849999999999997646e-03 -1.071934434548893478e-06
-9.699999999999996819e-03 -1.107373009290313348e-06
-9.549999999999999462e-03 -1.143471990872058086e-06
-9.399999999999998634e-03 -1.180218760055140592e-06
-9.249999999999997807e-03 -1.217598764924332500e-06
-9.099999999999996980e-03 -1.255596316696028225e-06
-8.949999999999999623e-03 -1.294193793910380919e-06
-8.799999999999998795e-03 -1.333372210865491070e-06
-8.649999999999997968e-03 -1.373110990243731067e-06
-8.500000000000000611e-03 -1.413387622051232029e-06
-8.349999999999996314e-03 -1.454178232052072417e-06
-8.199999999999998956e-03 -1.495456785960413981e-06
-8.049999999999994660e-03 -1.537195885248365812e-06
-7.899999999999997302e-03 -1.579366085024958011e-06
-7.749999999999999944e-03 -1.621936348783492576e-06
-7.599999999999995648e-03 -1.664873821027867962e-06
-7.449999999999998290e-03 -1.708143713585741352e-06
-7.300000000000000933e-03 -1.751709646669041831e-06
-7.149999999999996636e-03 -1.795533421500294935e-06
-6.999999999999999278e-03 -1.839574565565271769e-06
-6.849999999999994982e-03 -1.883791355794528499e-06
-6.699999999999997624e-03 -1.928139909068704583e-06
-6.550000000000000266e-03 -1.972574636965873651e-06
-6.399999999999995970e-03 -2.017048245761543512e-06
-6.249999999999998612e-03 -2.061511622741818428e-06
-6.099999999999994316e-03 -2.105913608829723671e-06
-5.949999999999996958e-03 -2.150202362827258185e-06
-5.799999999999999600e-03 -2.194323315052315593e-06
-5.649999999999995304e-03 -2.238220304207061417e-06
-5.499999999999997946e-03 -2.281836259498959407e-06
-5.350000000000000588e-03 -2.325111836398718879e-06
-5.199999999999996292e-03 -2.367987008256022818e-06
-5.049999999999998934e-03 -2.410399474683799781e-06
-4.899999999999994638e-03 -2.452286025800276548e-06
-4.749999999999997280e-03 -2.493581860107951798e-06
-4.599999999999999922e-03 -2.534221039240946993e-06
-4.449999999999995626e-03 -2.574136487965006381e-06
-4.299999999999998268e-03 -2.613260221551172435e-06
-4.150000000000000910e-03 -2.651522663654759526e-06
-3.999999999999996614e-03 -2.688854010557406582e-06
-3.849999999999999256e-03 -2.725183094298699871e-06
-3.699999999999994960e-03 -2.760438292170874774e-06
-3.549999999999997602e-03 -2.794547071971464902e-06
-3.400000000000000244e-03 -2.827436901498003863e-06
-3.249999999999995948e-03 -2.859033884305972606e-06
-3.099999999999998590e-03 -2.889264806071878411e-06
-2.949999999999994293e-03 -2.918055542977526784e-06
-2.799999999999996936e-03 -2.945332198578398675e-06
-2.649999999999999578e-03 -2.971020876429975033e-06
-2.499999999999995282e-03 -2.995047452714061365e-06
-2.349999999999997924e-03 -3.017338713107164949e-06
-2.200000000000000566e-03 -3.037821670659468509e-06
-2.049999999999996270e-03 -3.056423793168505654e-06
-1.899999999999998912e-03 -3.073073003179160878e-06
-1.749999999999994615e-03 -3.087698360104695894e-06
-1.599999999999997258e-03 -3.100229605479398742e-06
-1.449999999999999900e-03 -3.110598072453285567e-06
-1.299999999999995604e-03 -3.118736003671074286e-06
-1.149999999999998246e-03 -3.124576551272184588e-06
-9.999999999999939493e-04 -3.128055368506466039e-06
-8.499999999999965916e-04 -3.129109018118469976e-06
-6.999999999999992339e-04 -3.127676336589502171e-06
-5.499999999999949374e-04 -3.123697979390271939e-06
-3.999999999999975797e-04 -3.117116420980892144e-06
-2.500000000000002220e-04 -3.107876864305580966e-06
-9.999999999999592548e-05 -3.095926331297960132e-06
5.000000000000143219e-05 -3.081215254496783018e-06
2.000000000000057288e-04 -3.063695430682855658e-06
3.500000000000030864e-04 -3.043322521989466622e-06
5.000000000000004441e-04 -3.020054691660334356e-06
6.500000000000047407e-04 -2.993853286170633510e-06
8.000000000000020983e-04 -2.964682835226994939e-06
9.500000000000063949e-04 -2.932511051767505705e-06
1.100000000000003753e-03 -2.897309059335384518e-06
1.250000000000001110e-03 -2.859051619452657178e-06
1.400000000000005407e-03 -2.817717131620156579e-06
1.550000000000002764e-03 -2.773287405943847261e-06
1.700000000000000122e-03 -2.725749254750553519e-06
1.850000000000004419e-03 -2.675091764103854075e-06
2.000000000000001776e-03 -2.621309704409213737e-06
2.150000000000006073e-03 -2.564401029303553514e-06
2.300000000000003431e-03 -2.504367785149952397e-06
2.450000000000000788e-03 -2.441216793158673681e-06
2.600000000000005085e-03 -2.374958967266138643e-06
2.750000000000002442e-03 -2.305609996255952865e-06
2.899999999999999800e-03 -2.233189206890529022e-06
3.050000000000004097e-03 -2.157721610274165869e-06
3.200000000000001454e-03 -2.079235400742618367e-06
3.350000000000005751e-03 -1.997764456973527558e-06
3.500000000000003109e-03 -1.913346977744367905e-06
3.650000000000000466e-03 -1.826025254558771849e-06
3.800000000000004763e-03 -1.735846694828069303e-06
3.950000000000002121e-03 -1.642863026063423604e-06
4.100000000000006417e-03 -1.547130636936344672e-06
4.250000000000003775e-03 -1.448710577278689016e-06
4.400000000000001132e-03 -1.347668444395822007e-06
4.550000000000005429e-03 -1.244074155692942441e-06
4.700000000000002787e-03 -1.138002176048757974e-06
4.850000000000000144e-03 -1.029531063068134245e-06
5.000000000000004441e-03 -9.187442628899589181e-07
5.150000000000001799e-03 -8.057290301621833351e-07
5.300000000000006095e-03 -6.905769964760111179e-07
5.450000000000003453e-03 -5.733837724619661458e-07
5.600000000000000810e-03 -4.542489193681831239e-07
5.750000000000005107e-03 -3.332760627472453052e-07
5.900000000000002465e-03 -2.105721392808845849e-07
6.050000000000006761e-03 -8.624813574442669051e-08
6.200000000000004119e-03 3.958174943363701459e-08
6.350000000000001477e-03 1.667997651111363666e-07
6.500000000000005773e-03 2.952851332338468637e-07
6.650000000000003131e-03 4.249140488354896661e-07
6.800000000000000488e-03 5.555597795137146022e-07
6.950000000000004785e-03 6.870927791169378906e-07
7.100000000000002143e-03 8.193812277568213176e-07
7.250000000000006439e-03 9.522909181214345153e-07
7.400000000000003797e-03 1.085685426005511545e-06
7.550000000000001155e-03 1.219426394527545199e-06
7.700000000000005451e-03 1.353373704660043586e-06
7.850000000000002809e-03 1.487385702603205573e-06
8.000000000000000167e-03 1.621319597688852809e-06
8.150000000000004463e-03 1.755031348693592008e-06
8.300000000000001821e-03 1.888376232273003552e-06
8.450000000000006117e-03 2.021208501901128329e-06
8.600000000000003475e-03 2.153382183678331785e-06
8.750000000000000833e-03 2.284751190018141642e-06
8.900000000000005129e-03 2.415169774394598790e-06
9.050000000000002487e-03 2.544491962908068672e-06
9.200000000000006783e-03 2.672572463779943064e-06
9.350000000000004141e-03 2.799266439978964627e-06
9.500000000000001499e-03 2.924431100836955011e-06
9.650000000000005795e-03 3.047923655685735866e-06
9.800000000000003153e-03 3.169603587593883276e-06
9.950000000000000511e-03 3.289331516498350538e-06
1.010000000000000481e-02 3.406970563446520828e-06
1.025000000000000216e-02 3.522385441101505421e-06
1.040000000000000646e-02 3.635444272731547244e-06
1.055000000000000382e-02 3.746016773220617324e-06
1.070000000000000118e-02 3.853975613310467452e-06
1.085000000000000547e-02 3.959197329095331952e-06
1.100000000000000283e-02 4.061561412527225912e-06
1.115000000000000713e-02 4.160950084042269737e-06
1.130000000000000449e-02 4.257250566297443584e-06
1.145000000000000184e-02 4.350352810433832929e-06
1.160000000000000614e-02 4.440151769813382998e-06
1.175000000000000350e-02 4.526546035776846111e-06
1.190000000000000085e-02 4.609439201885834336e-06
1.205000000000000515e-02 4.688739409175468609e-06
1.220000000000000251e-02 4.764358891407027841e-06
1.235000000000000681e-02 4.836216248804703355e-06
1.250000000000000416e-02 4.904233264824142680e-06
1.265000000000000152e-02 4.968338998878607526e-06
1.280000000000000582e-02 5.028466148360166699e-06
1.295000000000000318e-02 5.084553777123801410e-06
1.310000000000000747e-02 5.136545951245352626e-06
1.325000000000000483e-02 5.184393558010924608e-06
1.340000000000000219e-02 5.228052032180130482e-06
1.355000000000000648e-02 5.267483174975495785e-06
1.370000000000000384e-02 5.302654244587756693e-06
1.385000000000000120e-02 5.333538865670561790e-06
1.400000000000000550e-02 5.360116574593121186e-06
1.415000000000000285e-02 5.382372819440206513e-06
1.430000000000000715e-02 5.400298505264800042e-06
1.445000000000000451e-02 5.413892267824849114e-06
1.460000000000000187e-02 5.423156380857108161e-06
1.475000000000000616e-02 5.428100848803296685e-06
1.490000000000000352e-02 5.428741133073344827e-06
1.505000000000000088e-02 5.425098152045393363e-06
1.520000000000000517e-02 5.417199190560495481e-06
1.535000000000000253e-02 5.405076990427915007e-06
1.550000000000000683e-02 5.388770659919828176e-06
1.565000000000000419e-02 5.368324309529270977e-06
1.580000000000000154e-02 5.343787506717490032e-06
1.595000000000000584e-02 5.315215730661293492e-06
1.610000000000000320e-02 5.282668553263647482e-06
1.625000000000000749e-02 5.246212822385132313e-06
1.640000000000000485e-02 5.205918569117784500e-06
1.655000000000000221e-02 5.161860826774500310e-06
1.670000000000000651e-02 5.114120540383737534e-06
1.685000000000000386e-02 5.062781838205410168e-06
1.700000000000000122e-02 5.007934305467642844e-06
1.715000000000000552e-02 4.949671165377367288e-06
1.730000000000000288e-02 4.888088824372971430e-06
1.745000000000000717e-02 4.823288691113702953e-06
1.760000000000000453e-02 4.755375357490265742e-06
1.775000000000000189e-02 4.684457962866872549e-06
1.790000000000000618e-02 4.610646556102437899e-06
1.805000000000000354e-02 4.534055733529385179e-06
1.820000000000000784e-02 4.454801910469541326e-06
1.835000000000000520e-02 4.373004685476189479e-06
1.850000000000000255e-02 4.288785476092016324e-06
1.865000000000000685e-02 4.202268428343813866e-06
1.880000000000000421e-02 4.113578597753075883e-06
1.895000000000000157e-02 4.022842404083348811e-06
1.910000000000000586e-02 3.930188995582284406e-06
1.925000000000000322e-02 3.835747975244885311e-06
1.940000000000000752e-02 3.739648946066154167e-06
1.955000000000000487e-02 3.642022875283146277e-06
1.970000000000000223e-02 3.543001412253943272e-06
1.985000000000000653e-02 3.442715524215600453e-06
2.000000000000000389e-02 3.341297087899874896e-06
2.015000000000000818e-02 3.238876615796471015e-06
2.030000000000000554e-02 3.135585075142444111e-06
2.045000000000000290e-02 3.031552068932796828e-06
2.060000000000000719e-02 2.926906290667830035e-06
2.075000000000000455e-02 2.821775524353142828e-06
2.090000000000000191e-02 2.716285962378606200e-06
2.105000000000000621e-02 2.610562432892038487e-06
2.120000000000000356e-02 2.504727945051854476e-06
2.135000000000000786e-02 2.398903234279714525e-06
2.150000000000000522e-02 2.293207444381550886e-06
2.165000000000000258e-02 2.187756990679190494e-06
2.180000000000000687e-02 2.082666014757705852e-06
2.195000000000000423e-02 1.978045702344388701e-06
2.210000000000000159e-02 1.874005079116614070e-06
2.225000000000000588e-02 1.770650101207138505e-06
2.240000000000000324e-02 1.668083314143586904e-06
2.255000000000000754e-02 1.566404534969478846e-06
2.270000000000000490e-02 1.465710170123202261e-06
2.285000000000000225e-02 1.366093101751175709e-06
2.299999999999999961e-02 1.267643028768361546e-06
2.315000000000001085e-02 1.170445898424077313e-06
2.330000000000000820e-02 1.074583906301995739e-06
2.345000000000000556e-02 9.801358373806579039e-07
2.360000000000000292e-02 8.871768955032166559e-07
2.375000000000000028e-02 7.957779644129914232e-07
2.390000000000001151e-02 7.060064604047511239e-07
2.405000000000000887e-02 6.179257070471066982e-07
2.420000000000000623e-02 5.315953899298619945e-07
2.435000000000000359e-02 4.470711019166628830e-07
2.450000000000000094e-02 3.644046273620915599e-07
2.464999999999999830e-02 2.836436863162816735e-07
2.480000000000000954e-02 2.048324603265427868e-07
2.495000000000000689e-02 1.280108392620604718e-07
2.510000000000000425e-02 5.321519935819196689e-08
2.525000000000000161e-02 -1.952201778010476119e-08
2.539999999999999897e-02 -9.017214352979863179e-08
2.555000000000001020e-02 -1.587101223776699044e-07
2.570000000000000756e-02 -2.251146185017205426e-07
2.585000000000000492e-02 -2.893678470172744710e-07
2.600000000000000228e-02 -3.514556112804712029e-07
2.614999999999999963e-02 -4.113670684091630392e-07
2.630000000000001087e-02 -4.690947719154792139e-07
2.645000000000000823e-02 -5.246345722298428882e-07
2.660000000000000558e-02 -5.779854745924239978e-07
2.675000000000000294e-02 -6.291494969445921015e-07
2.690000000000000030e-02 -6.781318688808823936e-07
2.705000000000001154e-02 -7.249404347930976655e-07
2.720000000000000889e-02 -7.695859380874026101e-07
2.735000000000000625e-02 -8.120819643409049604e-07
2.750000000000000361e-02 -8.524444297108857427e-07
2.765000000000000097e-02 -8.906918651518935803e-07
2.780000000000001220e-02 -9.268449616683938075e-07
2.795000000000000956e-02 -9.609267408450250514e-07
2.810000000000000692e-02 -9.929624411597615108e-07
2.825000000000000427e-02 -1.022979176923399791e-06
2.840000000000000163e-02 -1.051005824592721183e-06
2.854999999999999899e-02 -1.077073193300748244e-06
2.870000000000001023e-02 -1.101213456422556192e-06
2.885000000000000758e-02 -1.123460833696299233e-06
2.900000000000000494e-02 -1.143850454354833346e-06
2.915000000000000230e-02 -1.162418925559904892e-06
2.929999999999999966e-02 -1.179203991341637447e-06
2.945000000000001089e-02 -1.194244532598531805e-06
2.960000000000000825e-02 -1.207580112350115087e-06
2.975000000000000561e-02 -1.219251430484291632e-06
2.990000000000000296e-02 -1.229300096383667551e-06
3.005000000000000032e-02 -1.237767719430848956e-06
3.020000000000001156e-02 -1.244697159563656896e-06
3.035000000000000892e-02 -1.250131390406750143e-06
3.050000000000000627e-02 -1.254113499271625187e-06
3.065000000000000363e-02 -1.256687369277642574e-06
3.080000000000000099e-02 -1.257896428796811961e-06
3.095000000000001222e-02 -1.257784788322169334e-06
3.110000000000000958e-02 -1.256396103599399794e-06
3.125000000000000694e-02 -1.253774257747863885e-06
3.140000000000000430e-02 -1.249962906513246708e-06
3.155000000000000165e-02 -1.245005705641233362e-06
3.169999999999999901e-02 -1.238945628756482620e-06
3.185000000000001025e-02 -1.231825535796815529e-06
3.200000000000000761e-02 -1.223687718265864532e-06
3.215000000000000496e-02 -1.214574467667262070e-06
3.230000000000000232e-02 -1.204527166009938810e-06
3.244999999999999968e-02 -1.193586854242312256e-06
3.260000000000001091e-02 -1.181793891191773582e-06
3.275000000000000827e-02 -1.169188180938363075e-06
3.290000000000000563e-02 -1.155808831754256971e-06
3.305000000000000299e-02 -1.141694383477442898e-06
3.320000000000000034e-02 -1.126882580138044432e-06
3.335000000000001158e-02 -1.111410597331996541e-06
3.350000000000000894e-02 -1.095314587473694701e-06
3.365000000000000629e-02 -1.078630248230183497e-06
3.380000000000000365e-02 -1.061392595147481188e-06
3.395000000000000101e-02 -1.043635506903228816e-06
3.410000000000001225e-02 -1.025392293740878813e-06
3.425000000000000960e-02 -1.006695470096019562e-06
3.440000000000000696e-02 -9.875767545963753946e-07
3.455000000000000432e-02 -9.680669563749688677e-07
3.470000000000000168e-02 -9.481965435043093748e-07
3.485000000000001291e-02 -9.279946766582725104e-07
3.500000000000001027e-02 -9.074899480765452608e-07
3.515000000000000763e-02 -8.867103815646260045e-07
3.530000000000000498e-02 -8.656832051201490685e-07
3.545000000000000234e-02 -8.444347940894658677e-07
3.559999999999999970e-02 -8.229910122281580698e-07
3.575000000000001094e-02 -8.013768706405244302e-07
3.590000000000000829e-02 -7.796167551532562356e-07
3.605000000000000565e-02 -7.577344831588561647e-07
3.620000000000000301e-02 -7.357532467722194269e-07
3.635000000000000037e-02 -7.136954991437960416e-07
3.650000000000001160e-02 -6.915832955201040022e-07
3.665000000000000896e-02 -6.694380090266349725e-07
3.680000000000000632e-02 -6.472807854152051732e-07
3.695000000000000367e-02 -6.251318609429290518e-07
3.710000000000000103e-02 -6.030112444932456128e-07
3.725000000000001227e-02 -5.809383765154052526e-07
3.740000000000000963e-02 -5.589323563981452025e-07
3.755000000000000698e-02 -5.370117150960140862e-07
3.770000000000000434e-02 -5.151948130333039444e-07
3.785000000000000170e-02 -4.934995558869559318e-07
3.800000000000001293e-02 -4.719433661648508860e-07
3.815000000000001029e-02 -4.505436663748696446e-07
3.830000000000000765e-02 -4.293171969038667157e-07
3.845000000000000501e-02 -4.082806697169871768e-07
3.860000000000000236e-02 -3.874504557188629406e-07
3.874999999999999972e-02 -3.668426415970316157e-07
3.890000000000001096e-02 -3.464731150870647980e-07
3.905000000000000832e-02 -3.263574797074397793e-07
3.920000000000000567e-02 -3.065112537115055602e-07
3.935000000000000303e-02 -2.869496142920979764e-07
3.950000000000000039e-02 -2.676875965335057117e-07
3.965000000000001162e-02 -2.487400081463420065e-07
3.980000000000000898e-02 -2.301215999978012405e-07
3.995000000000000634e-02 -2.118468245271287742e-07
4.010000000000000370e-02 -1.939299920650228160e-07
4.025000000000000105e-02 -1.763852850444891374e-07
4.040000000000001229e-02 -1.592266585248580668e-07
4.055000000000000965e-02 -1.424678401917844894e-07
4.070000000000000701e-02 -1.261224440440855687e-07
4.085000000000000436e-02 -1.102038709177577402e-07
4.100000000000000172e-02 -9.472540085653236019e-08
4.115000000000001296e-02 -7.969999415990969283e-08
4.130000000000001031e-02 -6.514049744055228075e-08
4.145000000000000767e-02 -5.105938782890007133e-08
4.160000000000000503e-02 -3.746902166312793270e-08
4.175000000000000239e-02 -2.438153323680580797e-08
4.190000000000001362e-02 -1.180866515682055251e-08
4.205000000000001098e-02 2.381373154225485678e-10
4.220000000000000834e-02 1.174758512689777490e-08
4.235000000000000570e-02 2.270885524069399253e-08
4.250000000000000305e-02 3.311139806783103268e-08
4.265000000000000041e-02 4.294508215707537602e-08
4.280000000000001165e-02 5.220016774387659098e-08
4.295000000000000900e-02 6.086728632226368063e-08
4.310000000000000636e-02 6.893759518789011054e-08
4.325000000000000372e-02 7.640256427521308069e-08
4.340000000000000108e-02 8.325428524358358118e-08
4.355000000000001231e-02 8.948531871055820375e-08
4.370000000000000967e-02 9.508876530617271783e-08
4.385000000000000703e-02 1.000582301458052825e-07
4.400000000000000439e-02 1.043879294115868106e-07
4.415000000000000174e-02 1.080727827229566174e-07
4.430000000000001298e-02 1.111081999738416926e-07
4.445000000000001034e-02 1.134903584443236468e-07
4.460000000000000769e-02 1.152160393758094870e-07
4.475000000000000505e-02 1.162826848144504766e-07
4.490000000000000241e-02 1.166886818282364402e-07
4.505000000000001364e-02 1.164328295999439433e-07
4.520000000000001100e-02 1.155149362830343307e-07
4.535000000000000836e-02 1.139355418899867800e-07
4.550000000000000572e-02 1.116958614488794410e-07
4.565000000000000308e-02 1.087980763259110972e-07
4.580000000000000043e-02 1.052450429028795043e-07
4.595000000000001167e-02 1.010405625834209786e-07
4.610000000000000903e-02 9.618928231702739140e-08
4.625000000000000638e-02 9.069666617733673775e-08
4.640000000000000374e-02 8.456908773268878576e-08
4.655000000000000110e-02 7.781365951586849405e-08
4.670000000000001233e-02 7.043851013577295817e-08
4.685000000000000969e-02 6.245251427117182175e-08
4.700000000000000705e-02 5.386558044051525940e-08
4.715000000000000441e-02 4.468833481041656341e-08
4.730000000000000177e-02 3.493234501661390823e-08
4.745000000000001300e-02 2.461002246434418339e-08
4.760000000000001036e-02 1.373456548492413276e-08
4.775000000000000772e-02 2.320117653553666059e-09