-4.000000000000000083e-02 0.000000000000000000e+00
-3.985000000000000347e-02 0.000000000000000000e+00
-3.969999999999999918e-02 0.000000000000000000e+00
-3.955000000000000182e-02 0.000000000000000000e+00
-3.939999999999999752e-02 0.000000000000000000e+00
-3.925000000000000017e-02 0.000000000000000000e+00
-3.910000000000000281e-02 0.000000000000000000e+00
-3.894999999999999851e-02 0.000000000000000000e+00
-3.880000000000000115e-02 0.000000000000000000e+00
-3.865000000000000380e-02 0.000000000000000000e+00
-3.849999999999999950e-02 0.000000000000000000e+00
-3.835000000000000214e-02 0.000000000000000000e+00
-3.819999999999999785e-02 0.000000000000000000e+00
-3.805000000000000049e-02 0.000000000000000000e+00
-3.790000000000000313e-02 0.000000000000000000e+00
-3.774999999999999883e-02 0.000000000000000000e+00
-3.760000000000000148e-02 0.000000000000000000e+00
-3.744999999999999718e-02 0.000000000000000000e+00
-3.729999999999999982e-02 0.000000000000000000e+00
-3.715000000000000246e-02 0.000000000000000000e+00
-3.699999999999999817e-02 0.000000000000000000e+00
-3.685000000000000081e-02 0.000000000000000000e+00
-3.670000000000000345e-02 0.000000000000000000e+00
-3.654999999999999916e-02 0.000000000000000000e+00
-3.640000000000000180e-02 0.000000000000000000e+00
-3.624999999999999750e-02 0.000000000000000000e+00
-3.610000000000000014e-02 0.000000000000000000e+00
-3.595000000000000279e-02 0.000000000000000000e+00
-3.579999999999999849e-02 0.000000000000000000e+00
-3.565000000000000113e-02 0.000000000000000000e+00
-3.550000000000000377e-02 0.000000000000000000e+00
-3.534999999999999948e-02 0.000000000000000000e+00
-3.520000000000000212e-02 0.000000000000000000e+00
-3.504999999999999782e-02 0.000000000000000000e+00
-3.490000000000000047e-02 0.000000000000000000e+00
-3.475000000000000311e-02 0.000000000000000000e+00
-3.459999999999999881e-02 0.000000000000000000e+00
-3.445000000000000145e-02 0.000000000000000000e+00
-3.429999999999999716e-02 0.000000000000000000e+00
-3.414999999999999980e-02 0.000000000000000000e+00
-3.400000000000000244e-02 0.000000000000000000e+00
-3.384999999999999815e-02 0.000000000000000000e+00
-3.370000000000000079e-02 0.000000000000000000e+00
-3.354999999999999649e-02 0.000000000000000000e+00
-3.339999999999999913e-02 0.000000000000000000e+00
-3.325000000000000178e-02 0.000000000000000000e+00
-3.309999999999999748e-02 0.000000000000000000e+00
-3.295000000000000012e-02 0.000000000000000000e+00
-3.280000000000000276e-02 0.000000000000000000e+00
-3.264999999999999847e-02 0.000000000000000000e+00
-3.250000000000000111e-02 0.000000000000000000e+00
-3.235000000000000375e-02 0.000000000000000000e+00
-3.219999999999999946e-02 0.000000000000000000e+00
-3.205000000000000210e-02 0.000000000000000000e+00
-3.189999999999999780e-02 0.000000000000000000e+00
-3.175000000000000044e-02 0.000000000000000000e+00
-3.160000000000000309e-02 0.000000000000000000e+00
-3.144999999999999879e-02 -1.681558157189780485e-44
-3.130000000000000143e-02 7.567011707354012183e-44
-3.115000000000000061e-02 1.021546580492791645e-42
-3.099999999999999978e-02 -1.295360300421860900e-41
-3.085000000000000242e-02 -4.472944698124816090e-42
-3.069999999999999812e-02 9.648556498200668453e-40
-3.055000000000000077e-02 -4.241527263233894175e-39
-3.039999999999999994e-02 -4.276505354461598799e-38
-3.024999999999999911e-02 4.079326461520849442e-37
-3.010000000000000175e-02 9.881181011588759765e-37
-2.994999999999999746e-02 -2.362108832285605777e-35
-2.980000000000000010e-02 1.202060996677648270e-35
-2.964999999999999927e-02 1.024792668969008562e-33
-2.949999999999999845e-02 -2.339933177275091402e-33
-2.935000000000000109e-02 -3.647028528775749580e-32
-2.920000000000000026e-02 1.281495611852603024e-31
-2.904999999999999943e-02 1.133419928543079404e-30
-2.890000000000000208e-02 -4.810495656333333246e-30
-2.874999999999999778e-02 -3.231996928761009363e-29
-2.860000000000000042e-02 1.397345711864277408e-28
-2.844999999999999959e-02 8.691824876271620122e-28
-2.829999999999999877e-02 -3.193837997290378962e-27
-2.815000000000000141e-02 -2.189275904230111097e-26
-2.800000000000000058e-02 5.416053350989537168e-26
-2.784999999999999976e-02 4.966093376886810515e-25
-2.769999999999999893e-02 -5.090156052336721752e-25
-2.754999999999999810e-02 -9.551693501206107352e-24
-2.740000000000000074e-02 -4.697616992354096377e-24
-2.724999999999999992e-02 1.430522006358465668e-22
-2.709999999999999909e-02 3.090761822930227997e-22
-2.695000000000000173e-02 -1.402105166581389522e-21
-2.679999999999999744e-02 -6.670602967787474149e-21
-2.665000000000000008e-02 2.920297538875067184e-21
-2.649999999999999925e-02 8.000847606252047165e-20
-2.634999999999999842e-02 1.532123059122383148e-19
-2.620000000000000107e-02 -3.893193278393477531e-19
-2.605000000000000024e-02 -2.305292603386031174e-18
-2.589999999999999941e-02 -2.866654590192080640e-18
-2.575000000000000205e-02 9.137199173660804090e-18
-2.559999999999999776e-02 4.445981310675746413e-17
-2.545000000000000040e-02 7.265519072791347182e-17
-2.529999999999999957e-02 -2.583047155858935178e-17
-2.514999999999999875e-02 -4.331361473997784534e-16
-2.500000000000000139e-02 -1.262339448161069796e-15
-2.484999999999999709e-02 -2.461326125823438266e-15
-2.469999999999999973e-02 -3.916921328977378616e-15
-2.454999999999999891e-02 -5.638471325042013205e-15
-2.439999999999999808e-02 -7.730840910469792548e-15
-2.425000000000000072e-02 -1.021419328105363164e-14
-2.409999999999999989e-02 -1.303853739927952893e-14
-2.394999999999999907e-02 -1.624934284078904251e-14
-2.379999999999999824e-02 -1.994376343759929338e-14
-2.365000000000000088e-02 -2.412625458301283915e-14
-2.350000000000000006e-02 -2.879834093633473757e-14
-2.334999999999999923e-02 -3.405756511770489936e-14
-2.319999999999999840e-02 -3.996729027377562971e-14
-2.304999999999999757e-02 -4.653329316924720294e-14
-2.290000000000000022e-02 -5.384037874279871960e-14
-2.274999999999999939e-02 -6.198919144922293567e-14
-2.259999999999999856e-02 -7.101191515238372554e-14
-2.244999999999999774e-02 -8.099325653513830825e-14
-2.230000000000000038e-02 -9.205914567982087515e-14
-2.214999999999999955e-02 -1.042731439387933889e-13
-2.199999999999999872e-02 -1.177348827154436894e-13
-2.184999999999999790e-02 -1.325945646682424872e-13
-2.170000000000000054e-02 -1.489493614168987956e-13
-2.154999999999999971e-02 -1.669268564520598463e-13
-2.139999999999999888e-02 -1.867065123383263026e-13
-2.124999999999999806e-02 -2.084221331763100316e-13
-2.110000000000000070e-02 -2.322417703027462865e-13
-2.094999999999999987e-02 -2.583802583781130702e-13
-2.079999999999999905e-02 -2.870140106484009301e-13
-2.064999999999999822e-02 -3.183635809405477302e-13
-2.049999999999999739e-02 -3.526879309434516330e-13
-2.035000000000000003e-02 -3.902158002104527679e-13
-2.019999999999999921e-02 -4.312326049634579439e-13
-2.004999999999999838e-02 -4.760514898949352869e-13
-1.989999999999999755e-02 -5.249698787658518828e-13
-1.975000000000000019e-02 -5.783527953426292889e-13
-1.959999999999999937e-02 -6.365790598643339404e-13
-1.944999999999999854e-02 -7.000311246473100990e-13
-1.929999999999999771e-02 -7.691675530004105088e-13
-1.915000000000000036e-02 -8.444508113603088617e-13
-1.899999999999999953e-02 -9.263733443537480738e-13
-1.884999999999999870e-02 -1.015497907118356746e-12
-1.869999999999999787e-02 -1.112392187911648289e-12
-1.855000000000000052e-02 -1.217686541876705775e-12
-1.839999999999999969e-02 -1.332066076366322793e-12
-1.824999999999999886e-02 -1.456234655430876934e-12
-1.809999999999999803e-02 -1.590976482501726963e-12
-1.794999999999999721e-02 -1.737134958448849353e-12
-1.779999999999999985e-02 -1.895578529212404995e-12
-1.764999999999999902e-02 -2.067295770333266169e-12
-1.749999999999999820e-02 -2.253282846767512559e-12
-1.734999999999999737e-02 -2.454641091081954940e-12
-1.720000000000000001e-02 -2.672541007942008662e-12
-1.704999999999999918e-02 -2.908235935059066968e-12
-1.689999999999999836e-02 -3.163083727233950704e-12
-1.674999999999999753e-02 -3.438465874874840900e-12
-1.660000000000000017e-02 -3.735993285569616518e-12
-1.644999999999999934e-02 -4.057149147890237728e-12
-1.629999999999999852e-02 -4.403901288779765721e-12
-1.614999999999999769e-02 -4.777741136746671557e-12
-1.600000000000000033e-02 -5.181134601212056268e-12
-1.584999999999999951e-02 -5.615570942280045941e-12
-1.569999999999999868e-02 -6.083970566922447532e-12
-1.554999999999999785e-02 -6.587991870782294868e-12
-1.539999999999999702e-02 -7.130833683949289181e-12
-1.524999999999999967e-02 -7.714651834023200649e-12
-1.509999999999999884e-02 -8.342505505853914372e-12
-1.494999999999999801e-02 -9.017705852876201078e-12
-1.479999999999999719e-02 -9.742540975354874178e-12
-1.464999999999999983e-02 -1.052213004226754123e-11
-1.449999999999999900e-02 -1.135738898760951798e-11
-1.434999999999999817e-02 -1.225576844871012483e-11
-1.419999999999999735e-02 -1.321675928422916257e-11
-1.404999999999999999e-02 -1.424994323928618911e-11
-1.389999999999999916e-02 -1.535408605812804694e-11
-1.374999999999999833e-02 -1.653979904425728620e-11
-1.359999999999999751e-02 -1.780658953620672946e-11
-1.344999999999999668e-02 -1.916450678707271038e-11
-1.329999999999999932e-02 -2.061556307608736205e-11
-1.314999999999999850e-02 -2.216794629805729500e-11
-1.299999999999999767e-02 -2.382694562486076251e-11
-1.284999999999999684e-02 -2.559880606101128109e-11
-1.269999999999999948e-02 -2.749164784709989817e-11
-1.254999999999999866e-02 -2.951116781502172159e-11
-1.239999999999999783e-02 -3.166639866991616259e-11
-1.224999999999999700e-02 -3.396448400305729365e-11
-1.209999999999999964e-02 -3.641391008168959331e-11
-1.194999999999999882e-02 -3.902445033787671491e-11
-1.179999999999999799e-02 -4.180338714077080908e-11
-1.164999999999999716e-02 -4.476307519096778265e-11
-1.149999999999999981e-02 -4.791094257439176829e-11
-1.134999999999999898e-02 -5.125988869481012955e-11
-1.119999999999999815e-02 -5.481936432571998807e-11
-1.104999999999999732e-02 -5.860210233743501362e-11
-1.089999999999999650e-02 -6.261990231903880044e-11
-1.074999999999999914e-02 -6.688528897402790108e-11
-1.059999999999999831e-02 -7.141147395639535489e-11
-1.044999999999999749e-02 -7.621291098214300064e-11
-1.029999999999999666e-02 -8.130243700499306669e-11
-1.014999999999999930e-02 -8.669771844882490086e-11
-9.999999999999998473e-03 -9.241079429456178218e-11
-9.849999999999997646e-03 -9.846186366235798459e-11
-9.699999999999996819e-03 -1.048635692169064271e-10
-9.549999999999999462e-03 -1.116373521403701830e-10
-9.399999999999998634e-03 -1.187980963601731332e-10
-9.249999999999997807e-03 -1.263672499973722552e-10
-9.099999999999996980e-03 -1.343623268201810106e-10
-8.949999999999999623e-03 -1.428055174113040948e-10
-8.799999999999998795e-03 -1.517153902508283636e-10
-8.649999999999997968e-03 -1.611161343229028375e-10
-8.500000000000000611e-03 -1.710272756749731116e-10
-8.349999999999996314e-03 -1.814753486373277269e-10
-8.199999999999998956e-03 -1.924802262021074739e-10
-8.049999999999994660e-03 -2.040699970118353690e-10
-7.899999999999997302e-03 -2.162673512495771888e-10
-7.749999999999999944e-03 -2.290995310127996731e-10
-7.599999999999995648e-03 -2.425933898209109429e-10
-7.449999999999998290e-03 -2.567756285376532333e-10
-7.300000000000000933e-03 -2.716755986842400716e-10
-7.149999999999996636e-03 -2.873219440147067871e-10
-6.999999999999999278e-03 -3.037461948629527342e-10
-6.849999999999994982e-03 -3.209784105173696389e-10
-6.699999999999997624e-03 -3.390515090906376372e-10
-6.550000000000000266e-03 -3.579959939603583052e-10
-6.399999999999995970e-03 -3.778442003721238507e-10
-6.249999999999998612e-03 -3.986190266758171674e-10
-6.099999999999994316e-03 -4.203457304452484777e-10
-5.949999999999996958e-03 -4.430390498910696806e-10
-5.799999999999999600e-03 -4.667198849617193446e-10
-5.649999999999995304e-03 -4.914119666743488324e-10
-5.499999999999997946e-03 -5.171693628902573892e-10
-5.350000000000000588e-03 -5.440887185237386348e-10
-5.199999999999996292e-03 -5.723364004950326489e-10
-5.049999999999998934e-03 -6.021583232040939038e-10
-4.899999999999994638e-03 -6.338615743395337176e-10
-4.749999999999997280e-03 -6.677585151493303783e-10
-4.599999999999999922e-03 -7.040501515120922704e-10
-4.449999999999995626e-03 -7.426504411434109443e-10
-4.299999999999998268e-03 -7.829713544182936857e-10
-4.150000000000000910e-03 -8.237261983623511696e-10
-3.999999999999996614e-03 -8.628120440334896557e-10
-3.849999999999999256e-03 -8.974062049027509147e-10
-3.699999999999994960e-03 -9.243034115868908884e-10
-3.549999999999997602e-03 -9.405818346408523212e-10
-3.400000000000000244e-03 -9.444880433306934719e-10
-3.249999999999995948e-03 -9.364011788193238317e-10
-3.099999999999998590e-03 -9.195383343651997166e-10
-2.949999999999994293e-03 -9.001576151135282089e-10
-2.799999999999996936e-03 -8.868698553321507916e-10
-2.649999999999999578e-03 -8.890904679148547984e-10
-2.499999999999995282e-03 -9.146001733739694828e-10
-2.349999999999997924e-03 -9.670478862133791154e-10
-2.200000000000000566e-03 -1.044034414476868733e-09
-2.049999999999996270e-03 -1.136559402148407116e-09
-1.899999999999998912e-03 -1.230068602531275701e-09
-1.749999999999994615e-03 -1.308203101402227730e-09
-1.599999999999997258e-03 -1.357086443221078298e-09
-1.449999999999999900e-03 -1.369999447220493494e-09
-1.299999999999995604e-03 -1.350426326318654446e-09
-1.149999999999998246e-03 -1.311609709730987561e-09
-9.999999999999939493e-04 -1.273151362113367213e-09
-8.499999999999965916e-04 -1.254578996245925282e-09
-6.999999999999992339e-04 -1.268375182661429790e-09
-5.499999999999949374e-04 -1.314696351784050421e-09
-3.999999999999975797e-04 -1.380095926428737130e-09
-2.500000000000002220e-04 -1.441966435145047853e-09
-9.999999999999592548e-05 -1.476071931350020350e-09
5.000000000000143219e-05 -1.466153976004136439e-09
2.000000000000057288e-04 -1.410550232172624874e-09
3.500000000000030864e-04 -1.323555043342139470e-09
5.000000000000004441e-04 -1.229768620270021984e-09
6.500000000000047407e-04 -1.153583673030311729e-09
8.000000000000020983e-04 -1.109655700659573085e-09
9.500000000000063949e-04 -1.093061863244315646e-09
1.100000000000003753e-03 -1.082288259013353127e-09
1.250000000000001110e-03 -1.048195752417768745e-09
1.400000000000005407e-03 -9.641494269629902192e-10
1.550000000000002764e-03 -8.205891521839703273e-10
1.700000000000000122e-03 -6.276792419157573022e-10
1.850000000000004419e-03 -4.116011975696665104e-10
2.000000000000001776e-03 -2.014890476687014598e-10
2.150000000000006073e-03 -1.427258311537116242e-11
2.300000000000003431e-03 1.547184602657125652e-10
2.450000000000000788e-03 3.297309092431532918e-10
2.600000000000005085e-03 5.473572706193863269e-10
2.750000000000002442e-03 8.341194401850771101e-10
2.899999999999999800e-03 1.198778409872147677e-09
3.050000000000004097e-03 1.624244294617938067e-09
3.200000000000001454e-03 2.079590721848489920e-09
3.350000000000005751e-03 2.536646448447754665e-09
3.500000000000003109e-03 2.988435277018197667e-09
3.650000000000000466e-03 3.450072671995485507e-09
3.800000000000004763e-03 3.958357641664633775e-09
3.950000000000002121e-03 4.550714027828917096e-09
4.100000000000006417e-03 5.244207290644453678e-09
4.250000000000003775e-03 6.035558719474920508e-09
4.400000000000001132e-03 6.891312853696263119e-09
4.550000000000005429e-03 7.786740141568770923e-09
4.700000000000002787e-03 8.702423670570169634e-09
4.850000000000000144e-03 9.652916688196455652e-09
5.000000000000004441e-03 1.067797850140550509e-08
5.150000000000001799e-03 1.181433795238717721e-08
5.300000000000006095e-03 1.308975861036287824e-08
5.450000000000003453e-03 1.449953490606503692e-08
5.600000000000000810e-03 1.602046140192214807e-08
5.750000000000005107e-03 1.761782897347075050e-08
5.900000000000002465e-03 1.927767812048841733e-08
6.050000000000006761e-03 2.102363083622549311e-08
6.200000000000004119e-03 2.288608591527463432e-08
6.350000000000001477e-03 2.491200490339906537e-08
6.500000000000005773e-03 2.713563773681926250e-08
6.650000000000003131e-03 2.954575606395337672e-08
6.800000000000000488e-03 3.211577137562926509e-08
6.950000000000004785e-03 3.481483190626022406e-08
7.100000000000002143e-03 3.764497691349788511e-08
7.250000000000006439e-03 4.061509883968028589e-08
7.400000000000003797e-03 4.380255091973594972e-08
7.550000000000001155e-03 4.722445723359669500e-08
7.700000000000005451e-03 5.089960097848234000e-08
7.850000000000002809e-03 5.482874243512014800e-08
8.000000000000000167e-03 5.898359844991318823e-08
8.150000000000004463e-03 6.334437330224318430e-08
8.300000000000001821e-03 6.791258755356466281e-08
8.450000000000006117e-03 7.271956548038360779e-08
8.600000000000003475e-03 7.783351918533298885e-08
8.750000000000000833e-03 8.328824918635291397e-08
8.900000000000005129e-03 8.908067883339754189e-08
9.050000000000002487e-03 9.524521260573237669e-08
9.200000000000006783e-03 1.016890323057850765e-07
9.350000000000004141e-03 1.084321610278493608e-07
9.500000000000001499e-03 1.155053084289647813e-07
9.650000000000005795e-03 1.229698654015010106e-07
9.800000000000003153e-03 1.308509780528765987e-07
9.950000000000000511e-03 1.391931334637774853e-07
1.010000000000000481e-02 1.479822770988903358e-07
1.025000000000000216e-02 1.572194037180452142e-07
1.040000000000000646e-02 1.668420708256235230e-07
1.055000000000000382e-02 1.768967194948345423e-07
1.070000000000000118e-02 1.874455222150572808e-07
1.085000000000000547e-02 1.985178812446974916e-07
1.100000000000000283e-02 2.101400298215594376e-07
1.115000000000000713e-02 2.223426633918279549e-07
1.130000000000000449e-02 2.350907095660659252e-07
1.145000000000000184e-02 2.483597256741632009e-07
1.160000000000000614e-02 2.621814303438441129e-07
1.175000000000000350e-02 2.765817725958186202e-07
1.190000000000000085e-02 2.916504513450490776e-07
1.205000000000000515e-02 3.072541119308880297e-07
1.220000000000000251e-02 3.235842029880586779e-07
1.235000000000000681e-02 3.405772872611123603e-07
1.250000000000000416e-02 3.582374290544976247e-07
1.265000000000000152e-02 3.766299698781949701e-07
1.280000000000000582e-02 3.956248235681414371e-07
1.295000000000000318e-02 4.152015264935471350e-07
1.310000000000000747e-02 4.356895999535481678e-07
1.325000000000000483e-02 4.568198050947103184e-07
1.340000000000000219e-02 4.788529395227669738e-07
1.355000000000000648e-02 5.015882607040111907e-07
1.370000000000000384e-02 5.250322487881931011e-07
1.385000000000000120e-02 5.491900196830101777e-07
1.400000000000000550e-02 5.742438133893301710e-07
1.415000000000000285e-02 5.999941095069516450e-07
1.430000000000000715e-02 6.266862442316778470e-07
1.445000000000000451e-02 6.540598747051262762e-07
1.460000000000000187e-02 6.823918283771490678e-07
1.475000000000000616e-02 7.114231266314163804e-07
1.490000000000000352e-02 7.410095577142783441e-07
1.505000000000000088e-02 7.716440677540958859e-07
1.520000000000000517e-02 8.030650064938527066e-07
1.535000000000000253e-02 8.351777296411455609e-07
1.550000000000000683e-02 8.681108170094375964e-07
1.565000000000000419e-02 9.016909530146222096e-07
1.580000000000000154e-02 9.360238095723616425e-07
1.595000000000000584e-02 9.708975312605616637e-07
1.610000000000000320e-02 1.006486627375124954e-06
1.625000000000000749e-02 1.043022507474233862e-06
1.640000000000000485e-02 1.079906837730959523e-06
1.655000000000000221e-02 1.117627562052803114e-06
1.670000000000000651e-02 1.156246298705809750e-06
1.685000000000000386e-02 1.195345021187677048e-06
1.700000000000000122e-02 1.234617229783907533e-06
1.715000000000000552e-02 1.274470150747220032e-06
1.730000000000000288e-02 1.314866494794841856e-06
1.745000000000000717e-02 1.355675408376555424e-06
1.760000000000000453e-02 1.396733182446041610e-06
1.775000000000000189e-02 1.438488197891274467e-06
1.790000000000000618e-02 1.480213995819212869e-06
1.805000000000000354e-02 1.522167394796269946e-06
1.820000000000000784e-02 1.564057129144202918e-06
1.835000000000000520e-02 1.606525074748788029e-06
1.850000000000000255e-02 1.648615352678461932e-06
1.865000000000000685e-02 1.690882868388143834e-06
1.880000000000000421e-02 1.733380599944212008e-06
1.895000000000000157e-02 1.774844690771715250e-06
1.910000000000000586e-02 1.816466578929976095e-06
1.925000000000000322e-02 1.857427491813723464e-06
1.940000000000000752e-02 1.897395804917323403e-06
1.955000000000000487e-02 1.937508159244316630e-06
1.970000000000000223e-02 1.977228748728521168e-06
1.985000000000000653e-02 2.016256303249974735e-06
2.000000000000000389e-02 2.054096057690912858e-06
2.015000000000000818e-02 2.090790985675994307e-06
2.030000000000000554e-02 2.126550498360302299e-06
2.045000000000000290e-02 2.162073087674798444e-06
2.060000000000000719e-02 2.196019295297446661e-06
2.075000000000000455e-02 2.228224047939875163e-06
2.090000000000000191e-02 2.258066388094448484e-06
2.105000000000000621e-02 2.287450797666679136e-06
2.120000000000000356e-02 2.315834535693284124e-06
2.135000000000000786e-02 2.342350171602447517e-06
2.150000000000000522e-02 2.365959744565770961e-06
2.165000000000000258e-02 2.388002258157939650e-06
2.180000000000000687e-02 2.407576630503172055e-06
2.195000000000000423e-02 2.426544142508646473e-06
2.210000000000000159e-02 2.442286131554283202e-06
2.225000000000000588e-02 2.454452442179899663e-06
2.240000000000000324e-02 2.463694499965640716e-06
2.255000000000000754e-02 2.472683036103262566e-06
2.270000000000000490e-02 2.477694806657382287e-06
2.285000000000000225e-02 2.479669547028606758e-06
2.299999999999999961e-02 2.480019702488789335e-06
2.315000000000001085e-02 2.475720293659833260e-06
2.330000000000000820e-02 2.469299715812667273e-06
2.345000000000000556e-02 2.461388930896646343e-06
2.360000000000000292e-02 2.447408178340992890e-06
2.375000000000000028e-02 2.430312861179118045e-06
2.390000000000001151e-02 2.409542958048405126e-06
2.405000000000000887e-02 2.386910182394785807e-06
2.420000000000000623e-02 2.361106453463435173e-06
2.435000000000000359e-02 2.330243432879797183e-06
2.450000000000000094e-02 2.295029617016552947e-06
2.464999999999999830e-02 2.255052777400123887e-06
2.480000000000000954e-02 2.212426352343754843e-06
2.495000000000000689e-02 2.166926378777134232e-06
2.510000000000000425e-02 2.115132247126894072e-06
2.525000000000000161e-02 2.059866346826311201e-06
2.539999999999999897e-02 2.002082055696519092e-06
2.555000000000001020e-02 1.942138851518393494e-06
2.570000000000000756e-02 1.877335535027668811e-06
2.585000000000000492e-02 1.808135834835411515e-06
2.600000000000000228e-02 1.733166186568269040e-06
2.614999999999999963e-02 1.655073674555751495e-06
2.630000000000001087e-02 1.573151280354068149e-06
2.645000000000000823e-02 1.489380110797355883e-06
2.660000000000000558e-02 1.401813278789632022e-06
2.675000000000000294e-02 1.309631102230923716e-06
2.690000000000000030e-02 1.213667019328568131e-06
2.705000000000001154e-02 1.112922063839505427e-06
2.720000000000000889e-02 1.010949972624075599e-06
2.735000000000000625e-02 9.049098821378720459e-07
2.750000000000000361e-02 7.947073186187481042e-07
2.765000000000000097e-02 6.813068580413528252e-07
2.780000000000001220e-02 5.662233206749078818e-07
2.795000000000000956e-02 4.470935550671129022e-07
2.810000000000000692e-02 3.257188723182480317e-07
2.825000000000000427e-02 2.006816259836341487e-07
2.840000000000000163e-02 7.515655653378416901e-08
2.854999999999999899e-02 -5.334325692274433095e-08
2.870000000000001023e-02 -1.824183897269904264e-07
2.885000000000000758e-02 -3.147755478494218551e-07
2.900000000000000494e-02 -4.489125728923681891e-07
2.915000000000000230e-02 -5.832603733324503992e-07
2.929999999999999966e-02 -7.190830046965857036e-07
2.945000000000001089e-02 -8.560436981497332454e-07
2.960000000000000825e-02 -9.938432867784285918e-07
2.975000000000000561e-02 -1.131646172325417865e-06
2.990000000000000296e-02 -1.268555024580564350e-06
3.005000000000000032e-02 -1.406823571414861362e-06
3.020000000000001156e-02 -1.544749579807103146e-06
3.035000000000000892e-02 -1.682131824054522440e-06
3.050000000000000627e-02 -1.818405507947318256e-06
3.065000000000000363e-02 -1.953363835127674975e-06
3.080000000000000099e-02 -2.088100700348149985e-06
3.095000000000001222e-02 -2.221937847934896126e-06
3.110000000000000958e-02 -2.352155206608586013e-06
3.125000000000000694e-02 -2.480696366546908394e-06
3.140000000000000430e-02 -2.606926727821701206e-06
3.155000000000000165e-02 -2.730676669671083800e-06
3.169999999999999901e-02 -2.851658564395620488e-06
3.185000000000001025e-02 -2.969103888972313143e-06
3.200000000000000761e-02 -3.082448984059737995e-06
3.215000000000000496e-02 -3.193122665834380314e-06
3.230000000000000232e-02 -3.300274329376406968e-06
3.244999999999999968e-02 -3.403236632948392071e-06
3.260000000000001091e-02 -3.501235141811775975e-06
3.275000000000000827e-02 -3.594422423702781089e-06
3.290000000000000563e-02 -3.683175918922643177e-06
3.305000000000000299e-02 -3.767063390114344656e-06
3.320000000000000034e-02 -3.845588253170717508e-06
3.335000000000001158e-02 -3.918686616088962182e-06
3.350000000000000894e-02 -3.986416231782641262e-06
3.365000000000000629e-02 -4.048305981996236369e-06
3.380000000000000365e-02 -4.104120307601988316e-06
3.395000000000000101e-02 -4.153601821599295363e-06
3.410000000000001225e-02 -4.196899226371897385e-06
3.425000000000000960e-02 -4.233872004988370463e-06
3.440000000000000696e-02 -4.264205472281901166e-06
3.455000000000000432e-02 -4.287634055799571797e-06
3.470000000000000168e-02 -4.305999937059823424e-06
3.485000000000001291e-02 -4.317457296565407887e-06
3.500000000000001027e-02 -4.321426786191295832e-06
3.515000000000000763e-02 -4.318127139413263649e-06
3.530000000000000498e-02 -4.307026301830774173e-06
3.545000000000000234e-02 -4.289946900826180354e-06
3.559999999999999970e-02 -4.266122687113238499e-06
3.575000000000001094e-02 -4.236425866110948846e-06
3.590000000000000829e-02 -4.200104740448296070e-06
3.605000000000000565e-02 -4.156901468377327546e-06
3.620000000000000301e-02 -4.107189397473121062e-06
3.635000000000000037e-02 -4.049750714330002666e-06
3.650000000000001160e-02 -3.984627710451604798e-06
3.665000000000000896e-02 -3.912647116521839052e-06
3.680000000000000632e-02 -3.834276867564767599e-06
3.695000000000000367e-02 -3.749713414435973391e-06
3.710000000000000103e-02 -3.660137963379384018e-06
3.725000000000001227e-02 -3.564436156011652201e-06
3.740000000000000963e-02 -3.463079337961971760e-06
3.755000000000000698e-02 -3.355647095304448158e-06
3.770000000000000434e-02 -3.242613047405029647e-06
3.785000000000000170e-02 -3.122394900856306776e-06
3.800000000000001293e-02 -2.997640422108815983e-06
3.815000000000001029e-02 -2.866826662284438498e-06
3.830000000000000765e-02 -2.733557494138949551e-06
3.845000000000000501e-02 -2.597273578430758789e-06
3.860000000000000236e-02 -2.457155233059893362e-06
3.874999999999999972e-02 -2.312539209015085362e-06
3.890000000000001096e-02 -2.163290446333121508e-06
3.905000000000000832e-02 -2.010217713177553378e-06
3.920000000000000567e-02 -1.852091600085259415e-06
3.935000000000000303e-02 -1.691838633632869460e-06
3.950000000000000039e-02 -1.530640815872175153e-06
3.965000000000001162e-02 -1.369584765598119702e-06
3.980000000000000898e-02 -1.207740524478140287e-06
3.995000000000000634e-02 -1.043498059516423382e-06
4.010000000000000370e-02 -8.767987651481234934e-07
4.025000000000000105e-02 -7.069156140460108873e-07
4.040000000000001229e-02 -5.353983851819066331e-07
4.055000000000000965e-02 -3.624867019880184671e-07
4.070000000000000701e-02 -1.917801171202881960e-07
4.085000000000000436e-02 -2.294902756716510339e-08
4.100000000000000172e-02 1.419898580934386700e-07
4.115000000000001296e-02 3.036499265363090672e-07
4.130000000000001031e-02 4.641449891096272040e-07
4.145000000000000767e-02 6.278200999076943845e-07
4.160000000000000503e-02 7.927851584099698812e-07
4.175000000000000239e-02 9.575571766617940739e-07
4.190000000000001362e-02 1.118328327720519155e-06
4.205000000000001098e-02 1.272844087907287758e-06
4.220000000000000834e-02 1.421287493030831683e-06
4.235000000000000570e-02 1.563776322655030526e-06
4.250000000000000305e-02 1.701488372418680228e-06
4.265000000000000041e-02 1.838272851273359265e-06
4.280000000000001165e-02 1.974155338757555000e-06
4.295000000000000900e-02 2.108673243128578179e-06
4.310000000000000636e-02 2.239845798612805083e-06
4.325000000000000372e-02 2.362399300182005391e-06
4.340000000000000108e-02 2.474192797308205627e-06
4.355000000000001231e-02 2.577061195552232675e-06
4.370000000000000967e-02 2.670612730071297847e-06
4.385000000000000703e-02 2.760374854915426113e-06
4.400000000000000439e-02 2.849341854016529396e-06
4.415000000000000174e-02 2.935536713266628794e-06
4.430000000000001298e-02 3.019350742761162110e-06
4.445000000000001034e-02 3.092988890784909017e-06
4.460000000000000769e-02 3.153858415316790342e-06
4.475000000000000505e-02 3.202057314410922118e-06
4.490000000000000241e-02 3.238252929804730229e-06
4.505000000000001364e-02 3.264727183704962954e-06
4.520000000000001100e-02 3.288510924903675914e-06
4.535000000000000836e-02 3.309341991553083062e-06
4.550000000000000572e-02 3.328798811708111316e-06
4.565000000000000308e-02 3.339618160680402070e-06
4.580000000000000043e-02 3.340054718137253076e-06
4.595000000000001167e-02 3.324930048620444722e-06
4.610000000000000903e-02 3.293194595244131051e-06
4.625000000000000638e-02 3.249738028898718767e-06
4.640000000000000374e-02 3.200792434654431418e-06
4.655000000000000110e-02 3.148062887703417800e-06
4.670000000000001233e-02 3.093359055128530599e-06
4.685000000000000969e-02 3.034100245713489130e-06
4.700000000000000705e-02 2.964150553452782333e-06
4.715000000000000441e-02 2.878827672248007730e-06
4.730000000000000177e-02 2.777631607386865653e-06
4.745000000000001300e-02 2.661982080098823644e-06
4.760000000000001036e-02 2.537615273467963561e-06
4.775000000000000772e-02 2.409951093795825727e-06
4.790000000000000507e-02 2.280355829498148523e-06
4.805000000000000243e-02 2.147008899555657990e-06