-4.000000000000000083e-02 -0.000000000000000000e+00
-3.985000000000000347e-02 -0.000000000000000000e+00
-3.969999999999999918e-02 -0.000000000000000000e+00
-3.955000000000000182e-02 -0.000000000000000000e+00
-3.939999999999999752e-02 -0.000000000000000000e+00
-3.925000000000000017e-02 -0.000000000000000000e+00
-3.910000000000000281e-02 0.000000000000000000e+00
-3.894999999999999851e-02 -0.000000000000000000e+00
-3.880000000000000115e-02 3.503246160812042677e-44
-3.865000000000000380e-02 -6.978466352337589013e-43
-3.849999999999999950e-02 -2.454164065495268377e-40
-3.835000000000000214e-02 8.601314307767552637e-39
-3.819999999999999785e-02 2.277887557019712295e-37
-3.805000000000000049e-02 -7.553879948868233174e-36
-3.790000000000000313e-02 -1.075125615155665951e-34
-3.774999999999999883e-02 2.424402364615257822e-33
-3.760000000000000148e-02 2.227333601967381451e-32
-3.744999999999999718e-02 3.237215639374987781e-32
-3.729999999999999982e-02 -8.838231693324162689e-30
-3.715000000000000246e-02 4.714699976131150588e-29
-3.699999999999999817e-02 2.454010305488493988e-28
-3.685000000000000081e-02 -9.544680774277725439e-27
-3.670000000000000345e-02 2.176920339487207890e-25
-3.654999999999999916e-02 -1.992835012696066612e-24
-3.640000000000000180e-02 5.585221983664337894e-25
-3.624999999999999750e-02 1.145086382429557183e-22
-3.610000000000000014e-02 -5.764166497207075617e-22
-3.595000000000000279e-02 -2.129950495439265893e-21
-3.579999999999999849e-02 1.651063488648353709e-20
-3.565000000000000113e-02 4.686346523979429298e-20
-3.550000000000000377e-02 -1.456670487078651615e-19
-3.534999999999999948e-02 -8.762485528993670000e-19
-3.520000000000000212e-02 -2.036475034328241963e-18
-3.504999999999999782e-02 -3.512778394751898267e-18
-3.490000000000000047e-02 -6.008555597162712621e-18
-3.475000000000000311e-02 -1.039631116821248388e-17
-3.459999999999999881e-02 -1.428275723774694294e-17
-3.445000000000000145e-02 -3.353276052365441876e-18
-3.429999999999999716e-02 4.740066186878764173e-17
-3.414999999999999980e-02 1.046292882058893201e-16
-3.400000000000000244e-02 -9.798278610490733596e-17
-3.384999999999999815e-02 -1.091436257371529786e-15
-3.370000000000000079e-02 -2.729296645390360924e-15
-3.354999999999999649e-02 -1.617783483707417678e-15
-3.339999999999999913e-02 1.038098253869747592e-14
-3.325000000000000178e-02 3.719317266822307066e-14
-3.309999999999999748e-02 5.015552114796296979e-14
-3.295000000000000012e-02 -3.931877135617163621e-14
-3.280000000000000276e-02 -3.247026670975816653e-13
-3.264999999999999847e-02 -6.720753511005317371e-13
-3.250000000000000111e-02 -4.107453309767916672e-13
-3.235000000000000375e-02 1.513967553753992057e-12
-3.219999999999999946e-02 5.166827469343937551e-12
-3.205000000000000210e-02 7.230746383590780368e-12
-3.189999999999999780e-02 2.917197733376397650e-13
-3.175000000000000044e-02 -2.161855763849196421e-11
-3.160000000000000309e-02 -5.002731909287128076e-11
-3.144999999999999879e-02 -5.142002101887754861e-11
-3.130000000000000143e-02 2.008370553197025288e-11
-3.115000000000000061e-02 1.731949444971903063e-10
-3.099999999999999978e-02 3.171921336697636207e-10
-3.085000000000000242e-02 2.582465630229791032e-10
-3.069999999999999812e-02 -1.755459944074999612e-10
-3.055000000000000077e-02 -9.063002570641742750e-10
-3.039999999999999994e-02 -1.451189279855213954e-09
-3.024999999999999911e-02 -1.073987010435928369e-09
-3.010000000000000175e-02 6.923644435552489540e-10
-2.994999999999999746e-02 3.438371587449751132e-09
-2.980000000000000010e-02 5.722760931803350104e-09
-2.964999999999999927e-02 5.747609055362090658e-09
-2.949999999999999845e-02 2.658619768780567938e-09
-2.935000000000000109e-02 -2.349825001246585998e-09
-2.920000000000000026e-02 -6.065766111618131617e-09
-2.904999999999999943e-02 -4.780003060034232476e-09
-2.890000000000000208e-02 3.343885168760607485e-09
-2.874999999999999778e-02 1.646132119503818103e-08
-2.860000000000000042e-02 2.919548691693307774e-08
-2.844999999999999959e-02 3.513939361710072262e-08
-2.829999999999999877e-02 3.052161190453261952e-08
-2.815000000000000141e-02 1.669488014499620476e-08
-2.800000000000000058e-02 -4.734275194095971528e-10
-2.784999999999999976e-02 -1.408493233157059876e-08
-2.769999999999999893e-02 -2.002420984581476660e-08
-2.754999999999999810e-02 -1.828924212077254197e-08
-2.740000000000000074e-02 -1.135387606154836249e-08
-2.724999999999999992e-02 -1.754607126258633798e-09
-2.709999999999999909e-02 8.738361145788076101e-09
-2.695000000000000173e-02 1.839995533714500198e-08
-2.679999999999999744e-02 2.518675401574910211e-08
-2.665000000000000008e-02 2.767202289533088333e-08
-2.649999999999999925e-02 2.602450877020601183e-08
-2.634999999999999842e-02 2.168017232406782568e-08
-2.620000000000000107e-02 1.643773117621094570e-08
-2.605000000000000024e-02 1.245882685907417908e-08
-2.589999999999999941e-02 1.252632841897138860e-08
-2.575000000000000205e-02 1.847925545916950796e-08
-2.559999999999999776e-02 2.844519997324823635e-08
-2.545000000000000040e-02 3.702434980823454680e-08
-2.529999999999999957e-02 4.035754841424932238e-08
-2.514999999999999875e-02 4.094665939646802144e-08
-2.500000000000000139e-02 4.514176055181451375e-08
-2.484999999999999709e-02 5.472728048516728450e-08
-2.469999999999999973e-02 6.316787448668037541e-08
-2.454999999999999891e-02 6.286470011218625586e-08
-2.439999999999999808e-02 5.516358214663341641e-08
-2.425000000000000072e-02 4.950177867613092531e-08
-2.409999999999999989e-02 5.157207283446041401e-08
-2.394999999999999907e-02 5.579761364060686901e-08
-2.379999999999999824e-02 5.246309342510357965e-08
-2.365000000000000088e-02 3.964518668908567633e-08
-2.350000000000000006e-02 2.320791736565297469e-08
-2.334999999999999923e-02 5.653532753058243543e-09
-2.319999999999999840e-02 -1.818642658690805547e-08
-2.304999999999999757e-02 -5.038970130044617690e-08
-2.290000000000000022e-02 -7.975802418513922021e-08
-2.274999999999999939e-02 -8.978122423286549747e-08
-2.259999999999999856e-02 -7.640818466825294308e-08
-2.244999999999999774e-02 -5.080482878838665783e-08
-2.230000000000000038e-02 -2.178023805754492059e-08
-2.214999999999999955e-02 1.787066139513626695e-08
-2.199999999999999872e-02 8.113511285046115518e-08
-2.184999999999999790e-02 1.667332298893597908e-07
-2.170000000000000054e-02 2.581757598818512633e-07
-2.154999999999999971e-02 3.437382929405430332e-07
-2.139999999999999888e-02 4.285100203560432419e-07
-2.124999999999999806e-02 5.208810307522071525e-07
-2.110000000000000070e-02 6.131396048658643849e-07
-2.094999999999999987e-02 6.847833446954609826e-07
-2.079999999999999905e-02 7.251546776387840509e-07
-2.064999999999999822e-02 7.452067620761226863e-07
-2.049999999999999739e-02 7.643259323231177405e-07
-2.035000000000000003e-02 7.918963547126622871e-07
-2.019999999999999921e-02 8.267322755273198709e-07
-2.004999999999999838e-02 8.698250439920229837e-07
-1.989999999999999755e-02 9.296534244640497491e-07
-1.975000000000000019e-02 1.014006102195708081e-06
-1.959999999999999937e-02 1.122165258493623696e-06
-1.944999999999999854e-02 1.247164846063242294e-06
-1.929999999999999771e-02 1.382062237098580226e-06
-1.915000000000000036e-02 1.521896592748817056e-06
-1.899999999999999953e-02 1.662933755142148584e-06
-1.884999999999999870e-02 1.803640316211385652e-06
-1.869999999999999787e-02 1.945117219293024391e-06
-1.855000000000000052e-02 2.088323071802733466e-06
-1.839999999999999969e-02 2.232964561699191108e-06
-1.824999999999999886e-02 2.382535512879258022e-06
-1.809999999999999803e-02 2.548757947806734592e-06
-1.794999999999999721e-02 2.745706296991556883e-06
-1.779999999999999985e-02 2.978704742417903617e-06
-1.764999999999999902e-02 3.242506863898597658e-06
-1.749999999999999820e-02 3.531574293447192758e-06
-1.734999999999999737e-02 3.847379957733210176e-06
-1.720000000000000001e-02 4.192093001620378345e-06
-1.704999999999999918e-02 4.559593435260467231e-06
-1.689999999999999836e-02 4.938975507684517652e-06
-1.674999999999999753e-02 5.327169674274045974e-06
-1.660000000000000017e-02 5.733691978093702346e-06
-1.644999999999999934e-02 6.171780114527791739e-06
-1.629999999999999852e-02 6.649544047832023352e-06
-1.614999999999999769e-02 7.170769094955176115e-06
-1.600000000000000033e-02 7.740894943708553910e-06
-1.584999999999999951e-02 8.366954716620966792e-06
-1.569999999999999868e-02 9.053341273101978004e-06
-1.554999999999999785e-02 9.799783583730459213e-06
-1.539999999999999702e-02 1.060336217051371932e-05
-1.524999999999999967e-02 1.146034810517448932e-05
-1.509999999999999884e-02 1.236803109350148588e-05
-1.494999999999999801e-02 1.332848296442534775e-05
-1.479999999999999719e-02 1.435067679267376661e-05
-1.464999999999999983e-02 1.544695442134980112e-05
-1.449999999999999900e-02 1.662528848100919276e-05
-1.434999999999999817e-02 1.789010275388136506e-05
-1.419999999999999735e-02 1.924962634802795947e-05
-1.404999999999999999e-02 2.071903691103216261e-05
-1.389999999999999916e-02 2.231161124655045569e-05
-1.374999999999999833e-02 2.402985410299152136e-05
-1.359999999999999751e-02 2.586788468761369586e-05
-1.344999999999999668e-02 2.782272713375277817e-05
-1.329999999999999932e-02 2.990061693708412349e-05
-1.314999999999999850e-02 3.211211878806352615e-05
-1.299999999999999767e-02 3.446807750151492655e-05
-1.284999999999999684e-02 3.697931970236822963e-05
-1.269999999999999948e-02 3.966060103266499937e-05
-1.254999999999999866e-02 4.252858707332052290e-05
-1.239999999999999783e-02 4.560021261568181217e-05
-1.224999999999999700e-02 4.889004776487126946e-05
-1.209999999999999964e-02 5.240831887931562960e-05
-1.194999999999999882e-02 5.616036287392489612e-05
-1.179999999999999799e-02 6.014939208398573101e-05
-1.164999999999999716e-02 6.438329000957310200e-05
-1.149999999999999981e-02 6.887872586958110332e-05
-1.134999999999999898e-02 7.365611236309632659e-05
-1.119999999999999815e-02 7.873251888668164611e-05
-1.104999999999999732e-02 8.412047463934868574e-05
-1.089999999999999650e-02 8.983824955066666007e-05
-1.074999999999999914e-02 9.591126581653952599e-05
-1.059999999999999831e-02 1.023675722535699606e-04
-1.044999999999999749e-02 1.092290112865157425e-04
-1.029999999999999666e-02 1.165101130027323961e-04
-1.014999999999999930e-02 1.242225407622754574e-04
-9.999999999999998473e-03 1.323821779806166887e-04
-9.849999999999997646e-03 1.410074764862656593e-04
-9.699999999999996819e-03 1.501188671682029963e-04
-9.549999999999999462e-03 1.597414957359433174e-04
-9.399999999999998634e-03 1.699041167739778757e-04
-9.249999999999997807e-03 1.806350483093410730e-04
-9.099999999999996980e-03 1.919659262057393789e-04
-8.949999999999999623e-03 2.039310638792812824e-04
-8.799999999999998795e-03 2.165596815757453442e-04
-8.649999999999997968e-03 2.298761974088847637e-04
-8.500000000000000611e-03 2.438971132505685091e-04
-8.349999999999996314e-03 2.586447808425873518e-04
-8.199999999999998956e-03 2.741476637311279774e-04
-8.049999999999994660e-03 2.904427819885313511e-04
-7.899999999999997302e-03 3.075616259593516588e-04
-7.749999999999999944e-03 3.255337069276720285e-04
-7.599999999999995648e-03 3.443898167461156845e-04
-7.449999999999998290e-03 3.641668008640408516e-04
-7.300000000000000933e-03 3.849030472338199615e-04
-7.149999999999996636e-03 4.066363617312163115e-04
-6.999999999999999278e-03 4.294005047995597124e-04
-6.849999999999994982e-03 4.532253078650683165e-04
-6.699999999999997624e-03 4.781364405062049627e-04
-6.550000000000000266e-03 5.041587282903492451e-04
-6.399999999999995970e-03 5.313227302394807339e-04
-6.249999999999998612e-03 5.596628179773688316e-04
-6.099999999999994316e-03 5.892141489312052727e-04
-5.949999999999996958e-03 6.200119969435036182e-04
-5.799999999999999600e-03 6.520916940644383430e-04
-5.649999999999995304e-03 6.854927050881087780e-04
-5.499999999999997946e-03 7.202489650808274746e-04
-5.350000000000000588e-03 7.563860854133963585e-04
-5.199999999999996292e-03 7.939218194223940372e-04
-5.049999999999998934e-03 8.328782278113067150e-04
-4.899999999999994638e-03 8.732759160920977592e-04
-4.749999999999997280e-03 9.151399717666208744e-04
-4.599999999999999922e-03 9.584958315826952457e-04
-4.449999999999995626e-03 1.003365963697433472e-03
-4.299999999999998268e-03 1.049765967763960361e-03
-4.150000000000000910e-03 1.097714412026107311e-03
-3.999999999999996614e-03 1.147225964814424515e-03
-3.849999999999999256e-03 1.198314479552209377e-03
-3.699999999999994960e-03 1.250992645509541035e-03
-3.549999999999997602e-03 1.305262790992856026e-03
-3.400000000000000244e-03 1.361120259389281273e-03
-3.249999999999995948e-03 1.418555621057748795e-03
-3.099999999999998590e-03 1.477554556913673878e-03
-2.949999999999994293e-03 1.538111711852252483e-03
-2.799999999999996936e-03 1.600215095095336437e-03
-2.649999999999999578e-03 1.663843402639031410e-03
-2.499999999999995282e-03 1.728984760120511055e-03
-2.349999999999997924e-03 1.795616233721375465e-03
-2.200000000000000566e-03 1.863706740550696850e-03
-2.049999999999996270e-03 1.933215884491801262e-03
-1.899999999999998912e-03 2.004091627895832062e-03
-1.749999999999994615e-03 2.076284028589725494e-03
-1.599999999999997258e-03 2.149725798517465591e-03
-1.449999999999999900e-03 2.224358031526207924e-03
-1.299999999999995604e-03 2.300114138051867485e-03
-1.149999999999998246e-03 2.376929158344864845e-03
-9.999999999999939493e-04 2.454723231494426727e-03
-8.499999999999965916e-04 2.533408580347895622e-03
-6.999999999999992339e-04 2.612883923575282097e-03
-5.499999999999949374e-04 2.693057525902986526e-03
-3.999999999999975797e-04 2.773821586742997169e-03
-2.500000000000002220e-04 2.855060389265418053e-03
-9.999999999999592548e-05 2.936649369075894356e-03
5.000000000000143219e-05 3.018443938344717026e-03
2.000000000000057288e-04 3.100306494161486626e-03
3.500000000000030864e-04 3.182094777002930641e-03
5.000000000000004441e-04 3.263655351474881172e-03
6.500000000000047407e-04 3.344830824062228203e-03
8.000000000000020983e-04 3.425458911806344986e-03
9.500000000000063949e-04 3.505371510982513428e-03
1.100000000000003753e-03 3.584383754059672356e-03
1.250000000000001110e-03 3.662302391603589058e-03
1.400000000000005407e-03 3.738935105502605438e-03
1.550000000000002764e-03 3.814064664766192436e-03
1.700000000000000122e-03 3.887482453137636185e-03
1.850000000000004419e-03 3.958963789045810699e-03
2.000000000000001776e-03 4.028290510177612305e-03
2.150000000000006073e-03 4.095249343663454056e-03
2.300000000000003431e-03 4.159607924520969391e-03
2.450000000000000788e-03 4.221126437187194824e-03
2.600000000000005085e-03 4.279559012502431870e-03
2.750000000000002442e-03 4.334656521677970886e-03
2.899999999999999800e-03 4.386172164231538773e-03
3.050000000000004097e-03 4.433850757777690887e-03
3.200000000000001454e-03 4.477430135011672974e-03
3.350000000000005751e-03 4.516650922596454620e-03
3.500000000000003109e-03 4.551244899630546570e-03
3.650000000000000466e-03 4.580950830131769180e-03
3.800000000000004763e-03 4.605509340763092041e-03
3.950000000000002121e-03 4.624660126864910126e-03
4.100000000000006417e-03 4.638153593987226486e-03
4.250000000000003775e-03 4.645729437470436096e-03
4.400000000000001132e-03 4.647135734558105469e-03
4.550000000000005429e-03 4.642112646251916885e-03
4.700000000000002787e-03 4.630409181118011475e-03
4.850000000000000144e-03 4.611774813383817673e-03
5.000000000000004441e-03 4.585968330502510071e-03
5.150000000000001799e-03 4.552757367491722107e-03
5.300000000000006095e-03 4.511924460530281067e-03
5.450000000000003453e-03 4.463256802409887314e-03
5.600000000000000810e-03 4.406562540680170059e-03
5.750000000000005107e-03 4.341638647019863129e-03
5.900000000000002465e-03 4.268299788236618042e-03
6.050000000000006761e-03 4.186377394944429398e-03
6.200000000000004119e-03 4.095704294741153717e-03
6.350000000000001477e-03 3.996135666966438293e-03
6.500000000000005773e-03 3.887537168338894844e-03
6.650000000000003131e-03 3.769801231101155281e-03
6.800000000000000488e-03 3.642827272415161133e-03
6.950000000000004785e-03 3.506517503410577774e-03
7.100000000000002143e-03 3.360820235684514046e-03
7.250000000000006439e-03 3.205690532922744751e-03
7.400000000000003797e-03 3.041115356609225273e-03
7.550000000000001155e-03 2.867092145606875420e-03
7.700000000000005451e-03 2.683641854673624039e-03
7.850000000000002809e-03 2.490788232535123825e-03
8.000000000000000167e-03 2.288593910634517670e-03
8.150000000000004463e-03 2.077121986076235771e-03
8.300000000000001821e-03 1.856493297964334488e-03
8.450000000000006117e-03 1.626831712201237679e-03
8.600000000000003475e-03 1.388303120620548725e-03
8.750000000000000833e-03 1.141071785241365433e-03
8.900000000000005129e-03 8.853534236550331116e-04
9.050000000000002487e-03 6.213734159246087074e-04
9.200000000000006783e-03 3.493920376058667898e-04
9.350000000000004141e-03 6.967480294406414032e-05
9.500000000000001499e-03 -2.174971741624176502e-04
9.650000000000005795e-03 -5.117767723277211189e-04
9.800000000000003153e-03 -8.128344779834151268e-04
9.950000000000000511e-03 -1.120284898206591606e-03
1.010000000000000481e-02 -1.433741301298141479e-03
1.025000000000000216e-02 -1.752769225277006626e-03
1.040000000000000646e-02 -2.076941542327404022e-03
1.055000000000000382e-02 -2.405778039246797562e-03
1.070000000000000118e-02 -2.738790819421410561e-03
1.085000000000000547e-02 -3.075481159612536430e-03
1.100000000000000283e-02 -3.415323095396161079e-03
1.115000000000000713e-02 -3.757772268727421761e-03
1.130000000000000449e-02 -4.102276638150215149e-03
1.145000000000000184e-02 -4.448251333087682724e-03
1.160000000000000614e-02 -4.795123357325792313e-03
1.175000000000000350e-02 -5.142260808497667313e-03
1.190000000000000085e-02 -5.489035043865442276e-03
1.205000000000000515e-02 -5.834829993546009064e-03
1.220000000000000251e-02 -6.178980693221092224e-03
1.235000000000000681e-02 -6.520851049572229385e-03
1.250000000000000416e-02 -6.859777495265007019e-03
1.265000000000000152e-02 -7.195106707513332367e-03
1.280000000000000582e-02 -7.526177912950515747e-03
1.295000000000000318e-02 -7.852305658161640167e-03
1.310000000000000747e-02 -8.172825910151004791e-03
1.325000000000000483e-02 -8.487075567245483398e-03
1.340000000000000219e-02 -8.794396184384822845e-03
1.355000000000000648e-02 -9.094100445508956909e-03
1.370000000000000384e-02 -9.385553188621997833e-03
1.385000000000000120e-02 -9.668098762631416321e-03
1.400000000000000550e-02 -9.941106662154197693e-03
1.415000000000000285e-02 -1.020394451916217804e-02
1.430000000000000715e-02 -1.045601069927215576e-02
1.445000000000000451e-02 -1.069671288132667542e-02
1.460000000000000187e-02 -1.092548109591007233e-02
1.475000000000000616e-02 -1.114176306873559952e-02
1.490000000000000352e-02 -1.134502794593572617e-02
1.505000000000000088e-02 -1.153475791215896606e-02
1.520000000000000517e-02 -1.171044632792472839e-02
1.535000000000000253e-02 -1.187163311988115311e-02
1.550000000000000683e-02 -1.201787404716014862e-02
1.565000000000000419e-02 -1.214877609163522720e-02
1.580000000000000154e-02 -1.226396579295396805e-02
1.595000000000000584e-02 -1.236309576779603958e-02
1.610000000000000320e-02 -1.244585774838924408e-02
1.625000000000000749e-02 -1.251196488738059998e-02
1.640000000000000485e-02 -1.256116665899753571e-02
1.655000000000000221e-02 -1.259326376020908356e-02
1.670000000000000651e-02 -1.260807085782289505e-02
1.685000000000000386e-02 -1.260545104742050171e-02
1.700000000000000122e-02 -1.258529815822839737e-02
1.715000000000000552e-02 -1.254755444824695587e-02
1.730000000000000288e-02 -1.249219104647636414e-02
1.745000000000000717e-02 -1.241922378540039062e-02
1.760000000000000453e-02 -1.232871506363153458e-02
1.775000000000000189e-02 -1.222075801342725754e-02
1.790000000000000618e-02 -1.209548674523830414e-02
1.805000000000000354e-02 -1.195306517183780670e-02
1.820000000000000784e-02 -1.179371401667594910e-02
1.835000000000000520e-02 -1.161766145378351212e-02
1.850000000000000255e-02 -1.142518315464258194e-02
1.865000000000000685e-02 -1.121660135686397552e-02
1.880000000000000421e-02 -1.099226810038089752e-02
1.895000000000000157e-02 -1.075258292257785797e-02
1.910000000000000586e-02 -1.049797236919403076e-02
1.925000000000000322e-02 -1.022889185696840286e-02
1.940000000000000752e-02 -9.945839643478393555e-03
1.955000000000000487e-02 -9.649326093494892120e-03
1.970000000000000223e-02 -9.339896962046623230e-03
1.985000000000000653e-02 -9.018128737807273865e-03
2.000000000000000389e-02 -8.684619329869747162e-03
2.015000000000000818e-02 -8.339982479810714722e-03
2.030000000000000554e-02 -7.984891533851623535e-03
2.045000000000000290e-02 -7.620006334036588669e-03
2.060000000000000719e-02 -7.245993707329034805e-03
2.075000000000000455e-02 -6.863585673272609711e-03
2.090000000000000191e-02 -6.473515182733535767e-03
2.105000000000000621e-02 -6.076501682400703430e-03
2.120000000000000356e-02 -5.673292092978954315e-03
2.135000000000000786e-02 -5.264645442366600037e-03
2.150000000000000522e-02 -4.851326346397399902e-03
2.165000000000000258e-02 -4.434103146195411682e-03
2.180000000000000687e-02 -4.013719037175178528e-03
2.195000000000000423e-02 -3.590967273339629173e-03
2.210000000000000159e-02 -3.166628768667578697e-03
2.225000000000000588e-02 -2.741485368460416794e-03
2.240000000000000324e-02 -2.316290512681007385e-03
2.255000000000000754e-02 -1.891810330562293530e-03
2.270000000000000490e-02 -1.468806061893701553e-03
2.285000000000000225e-02 -1.048015779815614223e-03
2.299999999999999961e-02 -6.301599787548184395e-04
2.315000000000001085e-02 -2.159422729164361954e-04
2.330000000000000820e-02 1.939261273946613073e-04
2.345000000000000556e-02 5.987499607726931572e-04
2.360000000000000292e-02 9.978801244869828224e-04
2.375000000000000028e-02 1.390661811456084251e-03
2.390000000000001151e-02 1.776490011252462864e-03
2.405000000000000887e-02 2.154747722670435905e-03
2.420000000000000623e-02 2.524852519854903221e-03
2.435000000000000359e-02 2.886278089135885239e-03
2.450000000000000094e-02 3.238479606807231903e-03
2.464999999999999830e-02 3.580948337912559509e-03
2.480000000000000954e-02 3.913243766874074936e-03
2.495000000000000689e-02 4.234926775097846985e-03
2.510000000000000425e-02 4.545590374618768692e-03
2.525000000000000161e-02 4.844858776777982712e-03
2.539999999999999897e-02 5.132357124239206314e-03
2.555000000000001020e-02 5.407805554568767548e-03
2.570000000000000756e-02 5.670883227139711380e-03
2.585000000000000492e-02 5.921348929405212402e-03
2.600000000000000228e-02 6.158975418657064438e-03
2.614999999999999963e-02 6.383589468896389008e-03
2.630000000000001087e-02 6.595030892640352249e-03
2.645000000000000823e-02 6.793168373405933380e-03
2.660000000000000558e-02 6.977913901209831238e-03
2.675000000000000294e-02 7.149207871407270432e-03
2.690000000000000030e-02 7.307013962417840958e-03
2.705000000000001154e-02 7.451320067048072815e-03
2.720000000000000889e-02 7.582169491797685623e-03
2.735000000000000625e-02 7.699596229940652847e-03
2.750000000000000361e-02 7.803692482411861420e-03
2.765000000000000097e-02 7.894580252468585968e-03
2.780000000000001220e-02 7.972375489771366119e-03
2.795000000000000956e-02 8.037252351641654968e-03
2.810000000000000692e-02 8.089389652013778687e-03
2.825000000000000427e-02 8.129021152853965759e-03
2.840000000000000163e-02 8.156371302902698517e-03
2.854999999999999899e-02 8.171685039997100830e-03
2.870000000000001023e-02 8.175233379006385803e-03
2.885000000000000758e-02 8.167303167283535004e-03
2.900000000000000494e-02 8.148196153342723846e-03
2.915000000000000230e-02 8.118245750665664673e-03
2.929999999999999966e-02 8.077796548604965210e-03
2.945000000000001089e-02 8.027209900319576263e-03
2.960000000000000825e-02 7.966861128807067871e-03
2.975000000000000561e-02 7.897116243839263916e-03
2.990000000000000296e-02 7.818358018994331360e-03
3.005000000000000032e-02 7.730981335043907166e-03
3.020000000000001156e-02 7.635394111275672913e-03
3.035000000000000892e-02 7.531999610364437103e-03
3.050000000000000627e-02 7.421215064823627472e-03
3.065000000000000363e-02 7.303462829440832138e-03
3.080000000000000099e-02 7.179161068052053452e-03
3.095000000000001222e-02 7.048737257719039917e-03
3.110000000000000958e-02 6.912610959261655807e-03
3.125000000000000694e-02 6.771204993128776550e-03
3.140000000000000430e-02 6.624940782785415649e-03
3.155000000000000165e-02 6.474237889051437378e-03
3.169999999999999901e-02 6.319508422166109085e-03
3.185000000000001025e-02 6.161157507449388504e-03
3.200000000000000761e-02 5.999585613608360291e-03
3.215000000000000496e-02 5.835182964801788330e-03
3.230000000000000232e-02 5.668337456881999969e-03
3.244999999999999968e-02 5.499437917023897171e-03
3.260000000000001091e-02 5.328858271241188049e-03
3.275000000000000827e-02 5.156967788934707642e-03
3.290000000000000563e-02 4.984121304005384445e-03
3.305000000000000299e-02 4.810653626918792725e-03
3.320000000000000034e-02 4.636895377188920975e-03
3.335000000000001158e-02 4.463158547878265381e-03
3.350000000000000894e-02 4.289750009775161743e-03
3.365000000000000629e-02 4.116971977055072784e-03
3.380000000000000365e-02 3.945110831409692764e-03
3.395000000000000101e-02 3.774435492232441902e-03
3.410000000000001225e-02 3.605200909078121185e-03
3.425000000000000960e-02 3.437651554122567177e-03
3.440000000000000696e-02 3.272020490840077400e-03
3.455000000000000432e-02 3.108528209850192070e-03
3.470000000000000168e-02 2.947379602119326591e-03
3.485000000000001291e-02 2.788763726130127907e-03
3.500000000000001027e-02 2.632856834679841995e-03
3.515000000000000763e-02 2.479820745065808296e-03
3.530000000000000498e-02 2.329803537577390671e-03
3.545000000000000234e-02 2.182944212108850479e-03
3.559999999999999970e-02 2.039369661360979080e-03
3.575000000000001094e-02 1.899202819913625717e-03
3.590000000000000829e-02 1.762546366080641747e-03
3.605000000000000565e-02 1.629491220228374004e-03
3.620000000000000301e-02 1.500116777606308460e-03
3.635000000000000037e-02 1.374484505504369736e-03
3.650000000000001160e-02 1.252645161002874374e-03
3.665000000000000896e-02 1.134635065682232380e-03
3.680000000000000632e-02 1.020492520183324814e-03
3.695000000000000367e-02 9.102452313527464867e-04
3.710000000000000103e-02 8.039114181883633137e-04
3.725000000000001227e-02 7.014999864622950554e-04
3.740000000000000963e-02 6.030058721080422401e-04
3.755000000000000698e-02 5.084181320853531361e-04
3.770000000000000434e-02 4.177180817350745201e-04
3.785000000000000170e-02 3.308837767690420151e-04
3.800000000000001293e-02 2.478774695191532373e-04
3.815000000000001029e-02 1.686587202129885554e-04
3.830000000000000765e-02 9.317751391790807247e-05
3.845000000000000501e-02 2.137908450094982982e-05
3.860000000000000236e-02 -4.679801713791675866e-05
3.874999999999999972e-02 -1.114129918278194964e-04
3.890000000000001096e-02 -1.725230977172031999e-04
3.905000000000000832e-02 -2.301978383911773562e-04
3.920000000000000567e-02 -2.845075505319982767e-04
3.935000000000000303e-02 -3.355370135977864265e-04
3.950000000000000039e-02 -3.833705559372901917e-04
3.965000000000001162e-02 -4.280958382878452539e-04
3.980000000000000898e-02 -4.697996191680431366e-04
3.995000000000000634e-02 -5.085730808787047863e-04
4.010000000000000370e-02 -5.445015267468988895e-04
4.025000000000000105e-02 -5.776721518486738205e-04
4.040000000000001229e-02 -6.081707542762160301e-04
4.055000000000000965e-02 -6.360931438393890858e-04
4.070000000000000701e-02 -6.615314632654190063e-04
4.085000000000000436e-02 -6.845820462331175804e-04
4.100000000000000172e-02 -7.053390727378427982e-04
4.115000000000001296e-02 -7.238987600430846214e-04
4.130000000000001031e-02 -7.403488853015005589e-04
4.145000000000000767e-02 -7.547796121798455715e-04
4.160000000000000503e-02 -7.672855863347649574e-04
4.175000000000000239e-02 -7.779579027555882931e-04
4.190000000000001362e-02 -7.868844550102949142e-04
4.205000000000001098e-02 -7.941518560983240604e-04
4.220000000000000834e-02 -7.998434593901038170e-04
4.235000000000000570e-02 -8.040363318286836147e-04
4.250000000000000305e-02 -8.068123715929687023e-04
4.265000000000000041e-02 -8.082538261078298092e-04
4.280000000000001165e-02 -8.084463188424706459e-04
4.295000000000000900e-02 -8.074709912762045860e-04
4.310000000000000636e-02 -8.053991477936506271e-04
4.325000000000000372e-02 -8.023028494790196419e-04
4.340000000000000108e-02 -7.982444367371499538e-04
4.355000000000001231e-02 -7.932864245958626270e-04
4.370000000000000967e-02 -7.874940638430416584e-04
4.385000000000000703e-02 -7.809349917806684971e-04
4.400000000000000439e-02 -7.736724801361560822e-04
4.415000000000000174e-02 -7.657639798708260059e-04
4.430000000000001298e-02 -7.572651375085115433e-04
4.445000000000001034e-02 -7.482302607968449593e-04
4.460000000000000769e-02 -7.387099904008209705e-04
4.475000000000000505e-02 -7.287532207556068897e-04
4.490000000000000241e-02 -7.184076821431517601e-04
4.505000000000001364e-02 -7.077169721014797688e-04
4.520000000000001100e-02 -6.967226509004831314e-04
4.535000000000000836e-02 -6.854616804048418999e-04
4.550000000000000572e-02 -6.739725358784198761e-04
4.565000000000000308e-02 -6.622879300266504288e-04
4.580000000000000043e-02 -6.504427292384207249e-04
4.595000000000001167e-02 -6.384731968864798546e-04
4.610000000000000903e-02 -6.264145486056804657e-04
4.625000000000000638e-02 -6.142958300188183784e-04
4.640000000000000374e-02 -6.021430017426609993e-04
4.655000000000000110e-02 -5.899762036278843880e-04
4.670000000000001233e-02 -5.778118502348661423e-04
4.685000000000000969e-02 -5.656693247146904469e-04
4.700000000000000705e-02 -5.535688833333551884e-04
4.715000000000000441e-02 -5.415345076471567154e-04
4.730000000000000177e-02 -5.295876180753111839e-04
4.745000000000001300e-02 -5.177437560632824898e-04
4.760000000000001036e-02 -5.060161347500979900e-04
4.775000000000000772e-02 -4.944129614159464836e-04
4.790000000000000507e-02 -4.829442186746746302e-04
4.805000000000000243e-02 -4.716232651844620705e-04
4.820000000000001367e-02 -4.604613059200346470e-04
4.835000000000001102e-02 -4.494670720305293798e-04