-4.000000000000000083e-02 0.000000000000000000e+00
-3.985000000000000347e-02 0.000000000000000000e+00
-3.969999999999999918e-02 0.000000000000000000e+00
-3.955000000000000182e-02 0.000000000000000000e+00
-3.939999999999999752e-02 0.000000000000000000e+00
-3.925000000000000017e-02 0.000000000000000000e+00
-3.910000000000000281e-02 0.000000000000000000e+00
-3.894999999999999851e-02 0.000000000000000000e+00
-3.880000000000000115e-02 0.000000000000000000e+00
-3.865000000000000380e-02 0.000000000000000000e+00
-3.849999999999999950e-02 0.000000000000000000e+00
-3.835000000000000214e-02 0.000000000000000000e+00
-3.819999999999999785e-02 0.000000000000000000e+00
-3.805000000000000049e-02 0.000000000000000000e+00
-3.790000000000000313e-02 0.000000000000000000e+00
-3.774999999999999883e-02 4.203895392974451213e-45
-3.760000000000000148e-02 -4.287973300833940237e-43
-3.744999999999999718e-02 2.406029463245710911e-41
-3.729999999999999982e-02 -9.225812777483157639e-40
-3.715000000000000246e-02 3.012018181546049403e-38
-3.699999999999999817e-02 -9.747116433325384451e-37
-3.685000000000000081e-02 3.105466664161657739e-35
-3.670000000000000345e-02 -8.623153806208711925e-34
-3.654999999999999916e-02 1.849560280466219625e-32
-3.640000000000000180e-02 -2.693689973694603071e-31
-3.624999999999999750e-02 1.826412592646620993e-30
-3.610000000000000014e-02 1.789172517838559435e-29
-3.595000000000000279e-02 -5.824991487203722129e-28
-3.579999999999999849e-02 5.415683033179830391e-27
-3.565000000000000113e-02 2.299089271133962491e-27
-3.550000000000000377e-02 -4.768328906176297434e-25
-3.534999999999999948e-02 3.041772905961451831e-24
-3.520000000000000212e-02 1.242427211186143549e-23
-3.504999999999999782e-02 -2.042531656225961809e-22
-3.490000000000000047e-02 6.790786671382589826e-23
-3.475000000000000311e-02 7.487745533580843427e-21
-3.459999999999999881e-02 -1.183326375682644831e-20
-3.445000000000000145e-02 -2.019682957700685794e-19
-3.429999999999999716e-02 2.891975415922941370e-19
-3.414999999999999980e-02 4.398085402539333473e-18
-3.400000000000000244e-02 -9.863926145444779531e-19
-3.384999999999999815e-02 -7.102403688207320422e-17
-3.370000000000000079e-02 -1.115802060071806193e-16
-3.354999999999999649e-02 6.045630427787380360e-16
-3.339999999999999913e-02 2.582209162341414857e-15
-3.325000000000000178e-02 1.713539605482450670e-15
-3.309999999999999748e-02 -1.386114953963154053e-14
-3.295000000000000012e-02 -5.531635059404828303e-14
-3.280000000000000276e-02 -1.203365613535942180e-13
-3.264999999999999847e-02 -1.998581828461729049e-13
-3.250000000000000111e-02 -2.956882785495884569e-13
-3.235000000000000375e-02 -4.143388648673862473e-13
-3.219999999999999946e-02 -5.530813979547077874e-13
-3.205000000000000210e-02 -7.111220791909678152e-13
-3.189999999999999780e-02 -8.949290418967803529e-13
-3.175000000000000044e-02 -1.104690449359180260e-12
-3.160000000000000309e-02 -1.340173631791952147e-12
-3.144999999999999879e-02 -1.607590362912025839e-12
-3.130000000000000143e-02 -1.908105401113302513e-12
-3.115000000000000061e-02 -2.243074215951823547e-12
-3.099999999999999978e-02 -2.618895551809163891e-12
-3.085000000000000242e-02 -3.037119384111108822e-12
-3.069999999999999812e-02 -3.501330518920764412e-12
-3.055000000000000077e-02 -4.018005980016559064e-12
-3.039999999999999994e-02 -4.589551828859672611e-12
-3.024999999999999911e-02 -5.221882388301013478e-12
-3.010000000000000175e-02 -5.921684149978734268e-12
-2.994999999999999746e-02 -6.692680697834019199e-12
-2.980000000000000010e-02 -7.543641059037931029e-12
-2.964999999999999927e-02 -8.480756895357099978e-12
-2.949999999999999845e-02 -9.511141006723899949e-12
-2.935000000000000109e-02 -1.064506902764827956e-11
-2.920000000000000026e-02 -1.188934714568823381e-11
-2.904999999999999943e-02 -1.325610714947300650e-11
-2.890000000000000208e-02 -1.475392030769739904e-11
-2.874999999999999778e-02 -1.639699487299139946e-11
-2.860000000000000042e-02 -1.819393247171063877e-11
-2.844999999999999959e-02 -2.016449854314039669e-11
-2.829999999999999877e-02 -2.231500921545670479e-11
-2.815000000000000141e-02 -2.467215320933746625e-11
-2.800000000000000058e-02 -2.724151113020489845e-11
-2.784999999999999976e-02 -3.005264093136617021e-11
-2.769999999999999893e-02 -3.311443133591218668e-11
-2.754999999999999810e-02 -3.645390239670476262e-11
-2.740000000000000074e-02 -4.008818277334569302e-11
-2.724999999999999992e-02 -4.404571846139404556e-11
-2.709999999999999909e-02 -4.836011105457949100e-11
-2.695000000000000173e-02 -5.307290024125776995e-11
-2.679999999999999744e-02 -5.822775595021312256e-11
-2.665000000000000008e-02 -6.385885570336924388e-11
-2.649999999999999925e-02 -6.996747625720445285e-11
-2.634999999999999842e-02 -7.653529893181243438e-11
-2.620000000000000107e-02 -8.353377711767251412e-11
-2.605000000000000024e-02 -9.103256343179211285e-11
-2.589999999999999941e-02 -9.926003768923052917e-11
-2.575000000000000205e-02 -1.086607540057293875e-10
-2.559999999999999776e-02 -1.196803489644793217e-10
-2.545000000000000040e-02 -1.322995324404274697e-10
-2.529999999999999957e-02 -1.452681586133763858e-10
-2.514999999999999875e-02 -1.554939232928376214e-10
-2.500000000000000139e-02 -1.582016739831715313e-10
-2.484999999999999709e-02 -1.487612394379667080e-10
-2.469999999999999973e-02 -1.266124288745729132e-10
-2.454999999999999891e-02 -1.009720640432476557e-10
-2.439999999999999808e-02 -9.656576926975191100e-11
-2.425000000000000072e-02 -1.566760055027316412e-10
-2.409999999999999989e-02 -3.403898274356720322e-10
-2.394999999999999907e-02 -7.121018774647325245e-10
-2.379999999999999824e-02 -1.323554821297534545e-09
-2.365000000000000088e-02 -2.191346437641072953e-09
-2.350000000000000006e-02 -3.275019810899948425e-09
-2.334999999999999923e-02 -4.461603531069613382e-09
-2.319999999999999840e-02 -5.562772908973556696e-09
-2.304999999999999757e-02 -6.330727497783072977e-09
-2.290000000000000022e-02 -6.499170090989991877e-09
-2.274999999999999939e-02 -5.853306284109294211e-09
-2.259999999999999856e-02 -4.324463453997395845e-09
-2.244999999999999774e-02 -2.087755968105398097e-09
-2.230000000000000038e-02 3.800896264394282298e-10
-2.214999999999999955e-02 2.338712334903902956e-09
-2.199999999999999872e-02 2.960126366247095575e-09
-2.184999999999999790e-02 1.633727264582773842e-09
-2.170000000000000054e-02 -1.689863582399198094e-09
-2.154999999999999971e-02 -6.278616737631637079e-09
-2.139999999999999888e-02 -1.069711252910110488e-08
-2.124999999999999806e-02 -1.326515697286367867e-08
-2.110000000000000070e-02 -1.279250927410657823e-08
-2.094999999999999987e-02 -9.283374957647083647e-09
-2.079999999999999905e-02 -4.209955051237557200e-09
-2.064999999999999822e-02 -7.539457946847960557e-11
-2.049999999999999739e-02 6.812475028539211053e-10
-2.035000000000000003e-02 -3.019265726322828414e-09
-2.019999999999999921e-02 -1.009156491704743530e-08
-2.004999999999999838e-02 -1.754702516620909591e-08
-1.989999999999999755e-02 -2.187875836057173728e-08
-1.975000000000000019e-02 -2.096951057239948568e-08
-1.959999999999999937e-02 -1.547557282322031824e-08
-1.944999999999999854e-02 -8.767296222345066781e-09
-1.929999999999999771e-02 -5.242204892397239746e-09
-1.915000000000000036e-02 -7.820558423077272892e-09
-1.899999999999999953e-02 -1.606972865886291402e-08
-1.884999999999999870e-02 -2.619783323609681247e-08
-1.869999999999999787e-02 -3.312118579401612806e-08
-1.855000000000000052e-02 -3.350535848767322022e-08
-1.839999999999999969e-02 -2.794944009565369925e-08
-1.824999999999999886e-02 -2.085236872062523616e-08
-1.809999999999999803e-02 -1.785228498363267136e-08
-1.794999999999999721e-02 -2.229450934976284771e-08
-1.779999999999999985e-02 -3.296116801720927469e-08
-1.764999999999999902e-02 -4.466878777975580306e-08
-1.749999999999999820e-02 -5.154158344566894812e-08
-1.734999999999999737e-02 -5.089437848937450326e-08
-1.720000000000000001e-02 -4.511171169951921911e-08
-1.704999999999999918e-02 -4.013056909002443717e-08
-1.689999999999999836e-02 -4.149575971723606926e-08
-1.674999999999999753e-02 -5.065740182885747345e-08
-1.660000000000000017e-02 -6.401540275646766531e-08
-1.644999999999999934e-02 -7.535120971624564845e-08
-1.629999999999999852e-02 -8.001676121693890309e-08
-1.614999999999999769e-02 -7.809649815726515953e-08
-1.600000000000000033e-02 -7.441497729132606764e-08
-1.584999999999999951e-02 -7.526480771957722027e-08
-1.569999999999999868e-02 -8.396166606416954892e-08
-1.554999999999999785e-02 -9.839891390583943576e-08
-1.539999999999999702e-02 -1.126003041918011149e-07
-1.524999999999999967e-02 -1.212239340020460077e-07
-1.509999999999999884e-02 -1.235685402889430407e-07
-1.494999999999999801e-02 -1.238827138649867265e-07
-1.479999999999999719e-02 -1.278444869967643172e-07
-1.464999999999999983e-02 -1.383312167035910534e-07
-1.449999999999999900e-02 -1.537177922728005797e-07
-1.434999999999999817e-02 -1.695622842134980601e-07
-1.419999999999999735e-02 -1.818961266053520376e-07
-1.404999999999999999e-02 -1.897300023756542942e-07
-1.389999999999999916e-02 -1.956659474444677471e-07
-1.374999999999999833e-02 -2.041906412841854035e-07
-1.359999999999999751e-02 -2.184630290003042319e-07
-1.344999999999999668e-02 -2.375702052859196556e-07
-1.329999999999999932e-02 -2.568453965068329126e-07
-1.314999999999999850e-02 -2.718124108014308149e-07
-1.299999999999999767e-02 -2.824917828547768295e-07
-1.284999999999999684e-02 -2.936353382665402023e-07
-1.269999999999999948e-02 -3.100978460679471027e-07
-1.254999999999999866e-02 -3.320554640140471747e-07
-1.239999999999999783e-02 -3.551991767380968668e-07
-1.224999999999999700e-02 -3.751360964088235050e-07
-1.209999999999999964e-02 -3.911877115569950547e-07
-1.194999999999999882e-02 -4.058805416207178496e-07
-1.179999999999999799e-02 -4.221462859277380630e-07
-1.164999999999999716e-02 -4.419439960656745825e-07
-1.149999999999999981e-02 -4.659788999106240226e-07
-1.134999999999999898e-02 -4.931968078381032683e-07
-1.119999999999999815e-02 -5.199301540415035561e-07
-1.104999999999999732e-02 -5.418382329480664339e-07
-1.089999999999999650e-02 -5.582264748227316886e-07
-1.074999999999999914e-02 -5.741506470258173067e-07
-1.059999999999999831e-02 -5.963420903754013125e-07
-1.044999999999999749e-02 -6.268510333029553294e-07
-1.029999999999999666e-02 -6.614693575102137402e-07
-1.014999999999999930e-02 -6.949085218366235495e-07
-9.999999999999998473e-03 -7.256277854139625560e-07
-9.849999999999997646e-03 -7.552906140517734457e-07
-9.699999999999996819e-03 -7.846062999306013808e-07
-9.549999999999999462e-03 -8.125878139253472909e-07
-9.399999999999998634e-03 -8.399306921091920231e-07
-9.249999999999997807e-03 -8.707718279765686020e-07
-9.099999999999996980e-03 -9.089897048397688195e-07
-8.949999999999999623e-03 -9.534014679957181215e-07
-8.799999999999998795e-03 -9.977944728234433569e-07
-8.649999999999997968e-03 -1.035719719766348135e-06
-8.500000000000000611e-03 -1.064824232344108168e-06
-8.349999999999996314e-03 -1.087029659174731933e-06
-8.199999999999998956e-03 -1.107286038859456312e-06
-8.049999999999994660e-03 -1.132058400798996445e-06
-7.899999999999997302e-03 -1.166877041214320343e-06
-7.749999999999999944e-03 -1.212047436638385989e-06
-7.599999999999995648e-03 -1.259960868082998786e-06
-7.449999999999998290e-03 -1.298793677051435225e-06
-7.300000000000000933e-03 -1.321032982559700031e-06
-7.149999999999996636e-03 -1.328979465142765548e-06
-6.999999999999999278e-03 -1.333000454906141385e-06
-6.849999999999994982e-03 -1.344499992228520568e-06
-6.699999999999997624e-03 -1.369348751723009627e-06
-6.550000000000000266e-03 -1.404034719598712400e-06
-6.399999999999995970e-03 -1.437653168068209197e-06
-6.249999999999998612e-03 -1.457833263884822372e-06
-6.099999999999994316e-03 -1.457315306652162690e-06
-5.949999999999996958e-03 -1.439363813915406354e-06
-5.799999999999999600e-03 -1.413711629538738634e-06
-5.649999999999995304e-03 -1.390531451761489734e-06
-5.499999999999997946e-03 -1.373949316985090263e-06
-5.350000000000000588e-03 -1.362372472613060381e-06
-5.199999999999996292e-03 -1.349561784991237801e-06
-5.049999999999998934e-03 -1.326833398707094602e-06
-4.899999999999994638e-03 -1.284888412556028925e-06
-4.749999999999997280e-03 -1.219357045556535013e-06
-4.599999999999999922e-03 -1.133472778747091070e-06
-4.449999999999995626e-03 -1.037475385601283051e-06
-4.299999999999998268e-03 -9.407386869497713633e-07
-4.150000000000000910e-03 -8.459495575152686797e-07
-3.999999999999996614e-03 -7.479075634364562575e-07
-3.849999999999999256e-03 -6.362388376146554947e-07
-3.699999999999994960e-03 -5.004819740861421451e-07
-3.549999999999997602e-03 -3.346209211940731620e-07
-3.400000000000000244e-03 -1.402063389832619578e-07
-3.249999999999995948e-03 7.546333335994859226e-08
-3.099999999999998590e-03 3.029288961897691479e-07
-2.949999999999994293e-03 5.394762183641432784e-07
-2.799999999999996936e-03 7.897908744780579582e-07
-2.649999999999999578e-03 1.062706132870516740e-06
-2.499999999999995282e-03 1.365432922284526285e-06
-2.349999999999997924e-03 1.703428551991237327e-06
-2.200000000000000566e-03 2.075275233437423594e-06
-2.049999999999996270e-03 2.478521764714969322e-06
-1.899999999999998912e-03 2.910411694756476209e-06
-1.749999999999994615e-03 3.371433649590471759e-06
-1.599999999999997258e-03 3.865932740154676139e-06
-1.449999999999999900e-03 4.397701559355482459e-06
-1.299999999999995604e-03 4.968670054950052872e-06
-1.149999999999998246e-03 5.580010565608972684e-06
-9.999999999999939493e-04 6.230685357877518982e-06
-8.499999999999965916e-04 6.925141406100010499e-06
-6.999999999999992339e-04 7.668626494705677032e-06
-5.499999999999949374e-04 8.465589417028240860e-06
-3.999999999999975797e-04 9.316984687757212669e-06
-2.500000000000002220e-04 1.022299602482235059e-05
-9.999999999999592548e-05 1.118388081522425637e-05
5.000000000000143219e-05 1.219958994624903426e-05
2.000000000000057288e-04 1.327138397755334154e-05
3.500000000000030864e-04 1.440081632608780637e-05
5.000000000000004441e-04 1.559662632644176483e-05
6.500000000000047407e-04 1.686237374087795615e-05
8.000000000000020983e-04 1.820386023609898984e-05
9.500000000000063949e-04 1.962739406735636294e-05
1.100000000000003753e-03 2.113256414304487407e-05
1.250000000000001110e-03 2.271328230563085526e-05
1.400000000000005407e-03 2.436731665511615574e-05
1.550000000000002764e-03 2.609516741358675063e-05
1.700000000000000122e-03 2.790362850646488369e-05
1.850000000000004419e-03 2.980498720717150718e-05
2.000000000000001776e-03 3.180775092914700508e-05
2.150000000000006073e-03 3.391730933799408376e-05
2.300000000000003431e-03 3.613088119891472161e-05
2.450000000000000788e-03 3.844558887067250907e-05
2.600000000000005085e-03 4.085432374267838895e-05
2.750000000000002442e-03 4.336210258770734072e-05
2.899999999999999800e-03 4.597249062499031425e-05
3.050000000000004097e-03 4.869501572102308273e-05
3.200000000000001454e-03 5.153863457962870598e-05
3.350000000000005751e-03 5.450451499200426042e-05
3.500000000000003109e-03 5.759151099482551217e-05
3.650000000000000466e-03 6.080197272240184247e-05
3.800000000000004763e-03 6.413533992599695921e-05
3.950000000000002121e-03 6.759339885320514441e-05
4.100000000000006417e-03 7.117738277884200215e-05
4.250000000000003775e-03 7.488993287552148104e-05
4.400000000000001132e-03 7.873448339523747563e-05
4.550000000000005429e-03 8.271190017694607377e-05
4.700000000000002787e-03 8.682283078087493777e-05
4.850000000000000144e-03 9.106896322919055820e-05
5.000000000000004441e-03 9.545384818920865655e-05
5.150000000000001799e-03 9.998221503337845206e-05
5.300000000000006095e-03 1.046487741405144334e-04
5.450000000000003453e-03 1.094561303034424782e-04
5.600000000000000810e-03 1.144051420851610601e-04
5.750000000000005107e-03 1.194877113448455930e-04
5.900000000000002465e-03 1.247046602657064795e-04
6.050000000000006761e-03 1.300549774896353483e-04
6.200000000000004119e-03 1.355428539682179689e-04
6.350000000000001477e-03 1.411656121490523219e-04
6.500000000000005773e-03 1.469275448471307755e-04
6.650000000000003131e-03 1.528270076960325241e-04
6.800000000000000488e-03 1.588606828590855002e-04
6.950000000000004785e-03 1.650151825742796063e-04
7.100000000000002143e-03 1.712844823487102985e-04
7.250000000000006439e-03 1.776627614162862301e-04
7.400000000000003797e-03 1.841489574871957302e-04
7.550000000000001155e-03 1.907484256662428379e-04
7.700000000000005451e-03 1.974610786419361830e-04
7.850000000000002809e-03 2.042786509264260530e-04
8.000000000000000167e-03 2.111904468620195985e-04
8.150000000000004463e-03 2.181858435506001115e-04
8.300000000000001821e-03 2.252541453344747424e-04
8.450000000000006117e-03 2.323871303815394640e-04
8.600000000000003475e-03 2.395816991338506341e-04
8.750000000000000833e-03 2.468276943545788527e-04
8.900000000000005129e-03 2.541177673265337944e-04
9.050000000000002487e-03 2.614437835291028023e-04
9.200000000000006783e-03 2.687876985874027014e-04
9.350000000000004141e-03 2.761451760306954384e-04
9.500000000000001499e-03 2.835015766322612762e-04
9.650000000000005795e-03 2.908497117459774017e-04
9.800000000000003153e-03 2.981675788760185242e-04
9.950000000000000511e-03 3.054455446545034647e-04
1.010000000000000481e-02 3.126614319626241922e-04
1.025000000000000216e-02 3.198086342308670282e-04
1.040000000000000646e-02 3.268637810833752155e-04
1.055000000000000382e-02 3.338154929224401712e-04
1.070000000000000118e-02 3.406478499528020620e-04
1.085000000000000547e-02 3.473467077128589153e-04
1.100000000000000283e-02 3.538980090525001287e-04
1.115000000000000713e-02 3.602810902521014214e-04
1.130000000000000449e-02 3.664718242362141609e-04
1.145000000000000184e-02 3.724476264324039221e-04
1.160000000000000614e-02 3.781861159950494766e-04
1.175000000000000350e-02 3.836670948658138514e-04
1.190000000000000085e-02 3.888762148562818766e-04
1.205000000000000515e-02 3.937962464988231659e-04
1.220000000000000251e-02 3.984098439104855061e-04
1.235000000000000681e-02 4.026947135571390390e-04
1.250000000000000416e-02 4.066236142534762621e-04
1.265000000000000152e-02 4.101700615137815475e-04
1.280000000000000582e-02 4.133106267545372248e-04
1.295000000000000318e-02 4.160240641795098782e-04
1.310000000000000747e-02 4.182889533694833517e-04
1.325000000000000483e-02 4.200856492388993502e-04
1.340000000000000219e-02 4.213946813251823187e-04
1.355000000000000648e-02 4.221935232635587454e-04
1.370000000000000384e-02 4.224583390168845654e-04
1.385000000000000120e-02 4.221662820782512426e-04
1.400000000000000550e-02 4.212970379739999771e-04
1.415000000000000285e-02 4.198299429845064878e-04
1.430000000000000715e-02 4.177446244284510612e-04
1.445000000000000451e-02 4.150189051870256662e-04
1.460000000000000187e-02 4.116309282835572958e-04
1.475000000000000616e-02 4.075612232554703951e-04
1.490000000000000352e-02 4.027929680887609720e-04
1.505000000000000088e-02 3.973115817643702030e-04
1.520000000000000517e-02 3.911025996785610914e-04
1.535000000000000253e-02 3.841523430310189724e-04
1.550000000000000683e-02 3.764466091524809599e-04
1.565000000000000419e-02 3.679680812638252974e-04
1.580000000000000154e-02 3.587007522583007812e-04
1.595000000000000584e-02 3.486315545160323381e-04
1.610000000000000320e-02 3.377508255653083324e-04
1.625000000000000749e-02 3.260513185523450375e-04
1.640000000000000485e-02 3.135318402200937271e-04
1.655000000000000221e-02 3.001877339556813240e-04
1.670000000000000651e-02 2.860214153770357370e-04
1.685000000000000386e-02 2.710245607886463404e-04
1.700000000000000122e-02 2.551946381572633982e-04
1.715000000000000552e-02 2.385287079960107803e-04
1.730000000000000288e-02 2.210265229223296046e-04
1.745000000000000717e-02 2.026981528615579009e-04
1.760000000000000453e-02 1.835520670283585787e-04
1.775000000000000189e-02 1.636016240809112787e-04
1.790000000000000618e-02 1.428557297913357615e-04
1.805000000000000354e-02 1.213279319927096367e-04
1.820000000000000784e-02 9.902997408062219620e-05
1.835000000000000520e-02 7.597937656100839376e-05
1.850000000000000255e-02 5.219568265601992607e-05
1.865000000000000685e-02 2.770112041616812348e-05
1.880000000000000421e-02 2.520937187000527047e-06
1.895000000000000157e-02 -2.331990253878757358e-05
1.910000000000000586e-02 -4.980161975254304707e-05
1.925000000000000322e-02 -7.689034828217700124e-05
1.940000000000000752e-02 -1.045585740939714015e-04
1.955000000000000487e-02 -1.327665959252044559e-04
1.970000000000000223e-02 -1.614728098502382636e-04
1.985000000000000653e-02 -1.906349352793768048e-04
2.000000000000000389e-02 -2.202211035182699561e-04
2.015000000000000818e-02 -2.501906128600239754e-04
2.030000000000000554e-02 -2.805029798764735460e-04
2.045000000000000290e-02 -3.111167461611330509e-04
2.060000000000000719e-02 -3.419854328967630863e-04
2.075000000000000455e-02 -3.730562748387455940e-04
2.090000000000000191e-02 -4.042735090479254723e-04
2.105000000000000621e-02 -4.355817509349435568e-04
2.120000000000000356e-02 -4.669312620535492897e-04
2.135000000000000786e-02 -4.982670070603489876e-04
2.150000000000000522e-02 -5.295390146784484386e-04
2.165000000000000258e-02 -5.606980994343757629e-04
2.180000000000000687e-02 -5.916848895139992237e-04
2.195000000000000423e-02 -6.224368698894977570e-04
2.210000000000000159e-02 -6.528971716761589050e-04
2.225000000000000588e-02 -6.830039201304316521e-04
2.240000000000000324e-02 -7.126943673938512802e-04
2.255000000000000754e-02 -7.419169996865093708e-04
2.270000000000000490e-02 -7.706108153797686100e-04
2.285000000000000225e-02 -7.987141143530607224e-04
2.299999999999999961e-02 -8.261716575361788273e-04
2.315000000000001085e-02 -8.529182523488998413e-04
2.330000000000000820e-02 -8.788972627371549606e-04
2.345000000000000556e-02 -9.040602017194032669e-04
2.360000000000000292e-02 -9.283521794714033604e-04
2.375000000000000028e-02 -9.517167927697300911e-04
2.390000000000001151e-02 -9.740950190462172031e-04
2.405000000000000887e-02 -9.954357519745826721e-04
2.420000000000000623e-02 -1.015683170408010483e-03
2.435000000000000359e-02 -1.034783665090799332e-03
2.450000000000000094e-02 -1.052697189152240753e-03
2.464999999999999830e-02 -1.069383462890982628e-03
2.480000000000000954e-02 -1.084798248484730721e-03
2.495000000000000689e-02 -1.098899403586983681e-03
2.510000000000000425e-02 -1.111651654355227947e-03
2.525000000000000161e-02 -1.123016001656651497e-03
2.539999999999999897e-02 -1.132950885221362114e-03
2.555000000000001020e-02 -1.141425804235041142e-03
2.570000000000000756e-02 -1.148415729403495789e-03
2.585000000000000492e-02 -1.153896213509142399e-03
2.600000000000000228e-02 -1.157846883870661259e-03
2.614999999999999963e-02 -1.160253188572824001e-03
2.630000000000001087e-02 -1.161092775873839855e-03
2.645000000000000823e-02 -1.160355284810066223e-03
2.660000000000000558e-02 -1.158032217063009739e-03
2.675000000000000294e-02 -1.154116354882717133e-03
2.690000000000000030e-02 -1.148603623732924461e-03
2.705000000000001154e-02 -1.141498913057148457e-03
2.720000000000000889e-02 -1.132804551161825657e-03
2.735000000000000625e-02 -1.122532295994460583e-03
2.750000000000000361e-02 -1.110681798309087753e-03
2.765000000000000097e-02 -1.097273663617670536e-03
2.780000000000001220e-02 -1.082322327420115471e-03
2.795000000000000956e-02 -1.065862714312970638e-03
2.810000000000000692e-02 -1.047912985086441040e-03
2.825000000000000427e-02 -1.028507598675787449e-03
2.840000000000000163e-02 -1.007674494758248329e-03
2.854999999999999899e-02 -9.854383533820509911e-04
2.870000000000001023e-02 -9.618379408493638039e-04
2.885000000000000758e-02 -9.369118488393723965e-04
2.900000000000000494e-02 -9.107096120715141296e-04
2.915000000000000230e-02 -8.832783787511289120e-04
2.929999999999999966e-02 -8.546714670956134796e-04
2.945000000000001089e-02 -8.249399834312498569e-04
2.960000000000000825e-02 -7.941359071992337704e-04
2.975000000000000561e-02 -7.623086567036807537e-04
2.990000000000000296e-02 -7.295174873434007168e-04
3.005000000000000032e-02 -6.958206067793071270e-04
3.020000000000001156e-02 -6.612835568375885487e-04
3.035000000000000892e-02 -6.259692017920315266e-04
3.050000000000000627e-02 -5.899451789446175098e-04
3.065000000000000363e-02 -5.532770883291959763e-04
3.080000000000000099e-02 -5.160280270501971245e-04
3.095000000000001222e-02 -4.782694450113922358e-04
3.110000000000000958e-02 -4.400702309794723988e-04
3.125000000000000694e-02 -4.015018348582088947e-04
3.140000000000000430e-02 -3.626332036219537258e-04
3.155000000000000165e-02 -3.235345648135989904e-04
3.169999999999999901e-02 -2.842762332875281572e-04
3.185000000000001025e-02 -2.449221210554242134e-04
3.200000000000000761e-02 -2.055449876934289932e-04
3.215000000000000496e-02 -1.662117429077625275e-04
3.230000000000000232e-02 -1.269955973839387298e-04
3.244999999999999968e-02 -8.796894690021872520e-05
3.260000000000001091e-02 -4.919971979688853025e-05
3.275000000000000827e-02 -1.075216005119727924e-05
3.290000000000000563e-02 2.731234417296946049e-05
3.305000000000000299e-02 6.493638647953048348e-05
3.320000000000000034e-02 1.020594572764821351e-04
3.335000000000001158e-02 1.386199000990018249e-04
3.350000000000000894e-02 1.745557674439623952e-04
3.365000000000000629e-02 2.098093245876953006e-04
3.380000000000000365e-02 2.443252305965870619e-04
3.395000000000000101e-02 2.780545910354703665e-04
3.410000000000001225e-02 3.109494282398372889e-04
3.425000000000000960e-02 3.429660864640027285e-04
3.440000000000000696e-02 3.740569809451699257e-04
3.455000000000000432e-02 4.041824431624263525e-04
3.470000000000000168e-02 4.333031247369945049e-04
3.485000000000001291e-02 4.613854107446968555e-04
3.500000000000001027e-02 4.883939982391893864e-04
3.515000000000000763e-02 5.142976879142224789e-04
3.530000000000000498e-02 5.390716833062469959e-04
3.545000000000000234e-02 5.626866477541625500e-04
3.559999999999999970e-02 5.851195892319083214e-04
3.575000000000001094e-02 6.063518230803310871e-04
3.590000000000000829e-02 6.263669347390532494e-04
3.605000000000000565e-02 6.451537483371794224e-04
3.620000000000000301e-02 6.627048132941126823e-04
3.635000000000000037e-02 6.790130282752215862e-04
3.650000000000001160e-02 6.940751918591558933e-04
3.665000000000000896e-02 7.078872877173125744e-04
3.680000000000000632e-02 7.204458815976977348e-04
3.695000000000000367e-02 7.317526615224778652e-04
3.710000000000000103e-02 7.418140303343534470e-04
3.725000000000001227e-02 7.506397087126970291e-04
3.740000000000000963e-02 7.582448306493461132e-04
3.755000000000000698e-02 7.646441226825118065e-04
3.770000000000000434e-02 7.698537083342671394e-04
3.785000000000000170e-02 7.738894782960414886e-04
3.800000000000001293e-02 7.767685456201434135e-04
3.815000000000001029e-02 7.785137859173119068e-04
3.830000000000000765e-02 7.791475509293377399e-04
3.845000000000000501e-02 7.786992355249822140e-04
3.860000000000000236e-02 7.771950331516563892e-04
3.874999999999999972e-02 7.746640476398169994e-04
3.890000000000001096e-02 7.711354410275816917e-04
3.905000000000000832e-02 7.666405290365219116e-04
3.920000000000000567e-02 7.612142944708466530e-04
3.935000000000000303e-02 7.548914873041212559e-04
3.950000000000000039e-02 7.477100589312613010e-04
3.965000000000001162e-02 7.397060981020331383e-04
3.980000000000000898e-02 7.309141219593584538e-04
3.995000000000000634e-02 7.213688222691416740e-04
4.010000000000000370e-02 7.111077429726719856e-04
4.025000000000000105e-02 7.001681951805949211e-04
4.040000000000001229e-02 6.885926122777163982e-04
4.055000000000000965e-02 6.764210411347448826e-04
4.070000000000000701e-02 6.636948091909289360e-04
4.085000000000000436e-02 6.504527409560978413e-04
4.100000000000000172e-02 6.367343012243509293e-04
4.115000000000001296e-02 6.225759279914200306e-04
4.130000000000001031e-02 6.080146413296461105e-04
4.145000000000000767e-02 5.930871702730655670e-04
4.160000000000000503e-02 5.778323975391685963e-04
4.175000000000000239e-02 5.622900789603590965e-04
4.190000000000001362e-02 5.464975838549435139e-04
4.205000000000001098e-02 5.304926889948546886e-04
4.220000000000000834e-02 5.143081070855259895e-04
4.235000000000000570e-02 4.979784134775400162e-04
4.250000000000000305e-02 4.815367283299565315e-04
4.265000000000000041e-02 4.650165501516312361e-04
4.280000000000001165e-02 4.484512610360980034e-04
4.295000000000000900e-02 4.318712453823536634e-04
4.310000000000000636e-02 4.153031040914356709e-04
4.325000000000000372e-02 3.987742238678038120e-04
4.340000000000000108e-02 3.823107981588691473e-04
4.355000000000001231e-02 3.659404173959046602e-04
4.370000000000000967e-02 3.496908466331660748e-04
4.385000000000000703e-02 3.335892688482999802e-04
4.400000000000000439e-02 3.176593454554677010e-04
4.415000000000000174e-02 3.019205469172447920e-04
4.430000000000001298e-02 2.863905392587184906e-04
4.445000000000001034e-02 2.710852713789790869e-04
4.460000000000000769e-02 2.560211578384041786e-04
4.475000000000000505e-02 2.412145986454561353e-04
4.490000000000000241e-02 2.266850788146257401e-04
4.505000000000001364e-02 2.124483580701053143e-04
4.520000000000001100e-02 1.985184644581750035e-04
4.535000000000000836e-02 1.849075488280504942e-04
4.550000000000000572e-02 1.716227998258545995e-04
4.565000000000000308e-02 1.586732687428593636e-04
4.580000000000000043e-02 1.460657513234764338e-04
4.595000000000001167e-02 1.338075380772352219e-04
4.610000000000000903e-02 1.219059849972836673e-04
4.625000000000000638e-02 1.103669783333316445e-04
4.640000000000000374e-02 9.919396688928827643e-05
4.655000000000000110e-02 8.838908252073451877e-05
4.670000000000001233e-02 7.795545388944447041e-05
4.685000000000000969e-02 6.789449253119528294e-05
4.700000000000000705e-02 5.820813385071232915e-05
4.715000000000000441e-02 4.889772026217542589e-05
4.730000000000000177e-02 3.996202940470539033e-05
4.745000000000001300e-02 3.139638647553510964e-05
4.760000000000001036e-02 2.319533814443275332e-05
4.775000000000000772e-02 1.535514093120582402e-05
4.790000000000000507e-02 7.871146408433560282e-06
4.805000000000000243e-02 7.428092203554115258e-07