-4.000000000000000083e-02 0.000000000000000000e+00
-3.985000000000000347e-02 0.000000000000000000e+00
-3.969999999999999918e-02 0.000000000000000000e+00
-3.955000000000000182e-02 0.000000000000000000e+00
-3.939999999999999752e-02 0.000000000000000000e+00
-3.925000000000000017e-02 0.000000000000000000e+00
-3.910000000000000281e-02 0.000000000000000000e+00
-3.894999999999999851e-02 0.000000000000000000e+00
-3.880000000000000115e-02 0.000000000000000000e+00
-3.865000000000000380e-02 0.000000000000000000e+00
-3.849999999999999950e-02 0.000000000000000000e+00
-3.835000000000000214e-02 0.000000000000000000e+00
-3.819999999999999785e-02 0.000000000000000000e+00
-3.805000000000000049e-02 -0.000000000000000000e+00
-3.790000000000000313e-02 0.000000000000000000e+00
-3.774999999999999883e-02 4.203895392974451213e-45
-3.760000000000000148e-02 -4.287973300833940237e-43
-3.744999999999999718e-02 2.406029463245710911e-41
-3.729999999999999982e-02 -9.225784751513871143e-40
-3.715000000000000246e-02 3.012012015832806374e-38
-3.699999999999999817e-02 -9.747095806211989589e-37
-3.685000000000000081e-02 3.105460063485371384e-35
-3.670000000000000345e-02 -8.623135439109480326e-34
-3.654999999999999916e-02 1.849556313172785600e-32
-3.640000000000000180e-02 -2.693684331321719124e-31
-3.624999999999999750e-02 1.826408831064698361e-30
-3.610000000000000014e-02 1.789168756256636804e-29
-3.595000000000000279e-02 -5.824979931624055806e-28
-3.579999999999999849e-02 5.415672247972141822e-27
-3.565000000000000113e-02 2.299083685937123768e-27
-3.550000000000000377e-02 -4.768319538453047934e-25
-3.534999999999999948e-02 3.041766989504662673e-24
-3.520000000000000212e-02 1.242424765717337364e-23
-3.504999999999999782e-02 -2.042527743475871913e-22
-3.490000000000000047e-02 6.790774680696830466e-23
-3.475000000000000311e-02 7.487730993296638393e-21
-3.459999999999999881e-02 -1.183324113860657381e-20
-3.445000000000000145e-02 -2.019679080291564452e-19
-3.429999999999999716e-02 2.891969987550171491e-19
-3.414999999999999980e-02 4.398077130733207943e-18
-3.400000000000000244e-02 -9.863907533880997088e-19
-3.384999999999999815e-02 -7.102389791573029531e-17
-3.370000000000000079e-02 -1.115799942489438057e-16
-3.354999999999999649e-02 6.045618781084355613e-16
-3.339999999999999913e-02 2.582204291901968145e-15
-3.325000000000000178e-02 1.713536323229780060e-15
-3.309999999999999748e-02 -1.386112328161017565e-14
-3.295000000000000012e-02 -5.531624556196282350e-14
-3.280000000000000276e-02 -1.203363309606325648e-13
-3.264999999999999847e-02 -1.998578033754125349e-13
-3.250000000000000111e-02 -2.956877093434479020e-13
-3.235000000000000375e-02 -4.143380788208111953e-13
-3.219999999999999946e-02 -5.530803679626439262e-13
-3.205000000000000210e-02 -7.111207239382522083e-13
-3.189999999999999780e-02 -8.949273613834130003e-13
-3.175000000000000044e-02 -1.104688389375052537e-12
-3.160000000000000309e-02 -1.340171029706738182e-12
-3.144999999999999879e-02 -1.607587327145942879e-12
-3.130000000000000143e-02 -1.908101714825916062e-12
-3.115000000000000061e-02 -2.243069879143133605e-12
-3.099999999999999978e-02 -2.618890564479170457e-12
-3.085000000000000242e-02 -3.037113529419377400e-12
-3.069999999999999812e-02 -3.501323796867295002e-12
-3.055000000000000077e-02 -4.017998173760917169e-12
-3.039999999999999994e-02 -4.589543155242292727e-12
-3.024999999999999911e-02 -5.221872413641026611e-12
-3.010000000000000175e-02 -5.921672874276140419e-12
-2.994999999999999746e-02 -6.692668121088818367e-12
-2.980000000000000010e-02 -7.543627181250123215e-12
-2.964999999999999927e-02 -8.480741282845816187e-12
-2.949999999999999845e-02 -9.511121924765664204e-12
-2.935000000000000109e-02 -1.064504387415787789e-11
-2.920000000000000026e-02 -1.188931331858045226e-11
-2.904999999999999943e-02 -1.325606898555653501e-11
-2.890000000000000208e-02 -1.475389775629221134e-11
-2.874999999999999778e-02 -1.639702262856701509e-11
-2.860000000000000042e-02 -1.819404522873657726e-11
-2.844999999999999959e-02 -2.016467028076451840e-11
-2.829999999999999877e-02 -2.231505952243750812e-11
-2.815000000000000141e-02 -2.467169177289285642e-11
-2.800000000000000058e-02 -2.724006090137898184e-11
-2.784999999999999976e-02 -3.005011170453819602e-11
-2.769999999999999893e-02 -3.311195068134153985e-11
-2.754999999999999810e-02 -3.645454771383782600e-11
-2.740000000000000074e-02 -4.009654760994685319e-11
-2.724999999999999992e-02 -4.406503634202252329e-11
-2.709999999999999909e-02 -4.838665926265584005e-11
-2.695000000000000173e-02 -5.309012604537421964e-11
-2.679999999999999744e-02 -5.820640497367080002e-11
-2.665000000000000008e-02 -6.377082195641037288e-11
-2.649999999999999925e-02 -6.981560468632963534e-11
-2.634999999999999842e-02 -7.638548821242707731e-11
-2.620000000000000107e-02 -8.351432045916595825e-11
-2.605000000000000024e-02 -9.125548233734903647e-11
-2.589999999999999941e-02 -9.964801206407969403e-11
-2.575000000000000205e-02 -1.087513343267509924e-10
-2.559999999999999776e-02 -1.186135495379048166e-10
-2.545000000000000040e-02 -1.292990853274389451e-10
-2.529999999999999957e-02 -1.408664157542816042e-10
-2.514999999999999875e-02 -1.533871363257333087e-10
-2.500000000000000139e-02 -1.669289012573571540e-10
-2.484999999999999709e-02 -1.815737282750973236e-10
-2.469999999999999973e-02 -1.973983199121676080e-10
-2.454999999999999891e-02 -2.144959765359999437e-10
-2.439999999999999808e-02 -2.329557657887448840e-10
-2.425000000000000072e-02 -2.528803277890290246e-10
-2.409999999999999989e-02 -2.743760219026114555e-10
-2.394999999999999907e-02 -2.975542590100133111e-10
-2.379999999999999824e-02 -3.225409939133783155e-10
-2.365000000000000088e-02 -3.494600442355277892e-10
-2.350000000000000006e-02 -3.784555724362093088e-10
-2.334999999999999923e-02 -4.096694650179699693e-10
-2.319999999999999840e-02 -4.432626210526535715e-10
-2.304999999999999757e-02 -4.793972441241578508e-10
-2.290000000000000022e-02 -5.182521078950230731e-10
-2.274999999999999939e-02 -5.600081509626875231e-10
-2.259999999999999856e-02 -6.048643808043152603e-10
-2.244999999999999774e-02 -6.530209706312462004e-10
-2.230000000000000038e-02 -7.046977446023561242e-10
-2.214999999999999955e-02 -7.601208551477611763e-10
-2.199999999999999872e-02 -8.195329970206444159e-10
-2.184999999999999790e-02 -8.831962938771198424e-10
-2.170000000000000054e-02 -9.513823062690107690e-10
-2.154999999999999971e-02 -1.024393014859015238e-09
-2.139999999999999888e-02 -1.102535063246534719e-09
-2.124999999999999806e-02 -1.186143960829610933e-09
-2.110000000000000070e-02 -1.275560101987593953e-09
-2.094999999999999987e-02 -1.371144309203486955e-09
-2.079999999999999905e-02 -1.473267507989817204e-09
-2.064999999999999822e-02 -1.582320718895857681e-09
-2.049999999999999739e-02 -1.698715390574534467e-09
-2.035000000000000003e-02 -1.822889394986759726e-09
-2.019999999999999921e-02 -1.955310580115110497e-09
-2.004999999999999838e-02 -2.096471884982520351e-09
-1.989999999999999755e-02 -2.246896890767402510e-09
-1.975000000000000019e-02 -2.407120947012231227e-09
-1.959999999999999937e-02 -2.577708047013516079e-09
-1.944999999999999854e-02 -2.759230843807358724e-09
-1.929999999999999771e-02 -2.952295963254414346e-09
-1.915000000000000036e-02 -3.157536898612534060e-09
-1.899999999999999953e-02 -3.375626445034640710e-09
-1.884999999999999870e-02 -3.607277809791753498e-09
-1.869999999999999787e-02 -3.853234176176556502e-09
-1.855000000000000052e-02 -4.114271145994052858e-09
-1.839999999999999969e-02 -4.391182972796059403e-09
-1.824999999999999886e-02 -4.684793886156057852e-09
-1.809999999999999803e-02 -4.995952096464861825e-09
-1.794999999999999721e-02 -5.325554663926368448e-09
-1.779999999999999985e-02 -5.674536396327312104e-09
-1.764999999999999902e-02 -6.043885392159609182e-09
-1.749999999999999820e-02 -6.434623944784334526e-09
-1.734999999999999737e-02 -6.847806321985672184e-09
-1.720000000000000001e-02 -7.284521430506174511e-09
-1.704999999999999918e-02 -7.745878605192046962e-09
-1.689999999999999836e-02 -8.233039139327047451e-09
-1.674999999999999753e-02 -8.747202961956190848e-09
-1.660000000000000017e-02 -9.289628621900192229e-09
-1.644999999999999934e-02 -9.861619965079171379e-09
-1.629999999999999852e-02 -1.046451991726371489e-08
-1.614999999999999769e-02 -1.109970604318277765e-08
-1.600000000000000033e-02 -1.176858610563158436e-08
-1.584999999999999951e-02 -1.247260872361266593e-08
-1.569999999999999868e-02 -1.321326958958479736e-08
-1.554999999999999785e-02 -1.399212035124719478e-08
-1.539999999999999702e-02 -1.481075440068480020e-08
-1.524999999999999967e-02 -1.567082108522299677e-08
-1.509999999999999884e-02 -1.657399018029082072e-08
-1.494999999999999801e-02 -1.752197320570303418e-08
-1.479999999999999719e-02 -1.851651276751908881e-08
-1.464999999999999983e-02 -1.955939410436258186e-08
-1.449999999999999900e-02 -2.065246285098965018e-08
-1.434999999999999817e-02 -2.179759484022270044e-08
-1.419999999999999735e-02 -2.299671386651880312e-08
-1.404999999999999999e-02 -2.425176859333078028e-08
-1.389999999999999916e-02 -2.556473965853456320e-08
-1.374999999999999833e-02 -2.693763256900183478e-08
-1.359999999999999751e-02 -2.837249368781158410e-08
-1.344999999999999668e-02 -2.987139779975223064e-08
-1.329999999999999932e-02 -3.143645699310582131e-08
-1.314999999999999850e-02 -3.306982065964803041e-08
-1.299999999999999767e-02 -3.477363463844085345e-08
-1.284999999999999684e-02 -3.655007319025571633e-08
-1.269999999999999948e-02 -3.840132123400508135e-08
-1.254999999999999866e-02 -4.032958855759716243e-08
-1.239999999999999783e-02 -4.233709915979488869e-08
-1.224999999999999700e-02 -4.442609125021590444e-08
-1.209999999999999964e-02 -4.659880659119153279e-08
-1.194999999999999882e-02 -4.885747628691206046e-08
-1.179999999999999799e-02 -5.120433144156777416e-08
-1.164999999999999716e-02 -5.364159960663528182e-08
-1.149999999999999981e-02 -5.617149767545015493e-08
-1.134999999999999898e-02 -5.879623188320692861e-08
-1.119999999999999815e-02 -6.151799425424542278e-08
-1.104999999999999732e-02 -6.433894839119602693e-08
-1.089999999999999650e-02 -6.726123302769337897e-08
-1.074999999999999914e-02 -7.028693715938061359e-08
-1.059999999999999831e-02 -7.341810004390936228e-08
-1.044999999999999749e-02 -7.665674672807654133e-08
-1.029999999999999666e-02 -8.000484541526020621e-08
-1.014999999999999930e-02 -8.346431457084690919e-08
-9.999999999999998473e-03 -8.703698739509491134e-08
-9.849999999999997646e-03 -9.072465445569832809e-08
-9.699999999999996819e-03 -9.452901394979562610e-08
-9.549999999999999462e-03 -9.845168591482433840e-08
-9.399999999999998634e-03 -1.024942193339484220e-07
-9.249999999999997807e-03 -1.066580423980667547e-07
-9.099999999999996980e-03 -1.109445122438046383e-07
-8.949999999999999623e-03 -1.153548510046675801e-07
-8.799999999999998795e-03 -1.198902026544601540e-07
-8.649999999999997968e-03 -1.245515619530124241e-07
-8.500000000000000611e-03 -1.293398241841714480e-07
-8.349999999999996314e-03 -1.342557283123824163e-07
-8.199999999999998956e-03 -1.392998711935433676e-07
-8.049999999999994660e-03 -1.444727075750051881e-07
-7.899999999999997302e-03 -1.497745358847168973e-07
-7.749999999999999944e-03 -1.552054982312256470e-07
-7.599999999999995648e-03 -1.607655519819672918e-07
-7.449999999999998290e-03 -1.664545408175399643e-07
-7.300000000000000933e-03 -1.722720952557210694e-07
-7.149999999999996636e-03 -1.782176468623219989e-07
-6.999999999999999278e-03 -1.842904424620428472e-07
-6.849999999999994982e-03 -1.904895015059082652e-07
-6.699999999999997624e-03 -1.968136587038316065e-07
-6.550000000000000266e-03 -2.032615640246149269e-07
-6.399999999999995970e-03 -2.098316542742395541e-07
-6.249999999999998612e-03 -2.165221530958660878e-07
-6.099999999999994316e-03 -2.233310425481249695e-07
-5.949999999999996958e-03 -2.302560915268259123e-07
-5.799999999999999600e-03 -2.372947847106843255e-07
-5.649999999999995304e-03 -2.444444078264496056e-07
-5.499999999999997946e-03 -2.517020334380504210e-07
-5.350000000000000588e-03 -2.590644498923211358e-07
-5.199999999999996292e-03 -2.665281897407112410e-07
-5.049999999999998934e-03 -2.740896150044136448e-07
-4.899999999999994638e-03 -2.817448319092363818e-07
-4.749999999999997280e-03 -2.894896624638931826e-07
-4.599999999999999922e-03 -2.973197297251317650e-07
-4.449999999999995626e-03 -3.052302872674772516e-07
-4.299999999999998268e-03 -3.132164181351981824e-07
-4.150000000000000910e-03 -3.212729495771782240e-07
-3.999999999999996614e-03 -3.293944814686255995e-07
-3.849999999999999256e-03 -3.375753578893636586e-07
-3.699999999999994960e-03 -3.458096955455403076e-07
-3.549999999999997602e-03 -3.540913837696280098e-07
-3.400000000000000244e-03 -3.624140845204237849e-07
-3.249999999999995948e-03 -3.707711471179209184e-07
-3.099999999999998590e-03 -3.791557503518561134e-07
-2.949999999999994293e-03 -3.875608456382906297e-07
-2.799999999999996936e-03 -3.959792138630291447e-07
-2.649999999999999578e-03 -4.044033801164914621e-07
-2.499999999999995282e-03 -4.128256989588408032e-07
-2.349999999999997924e-03 -4.212383259982743766e-07
-2.200000000000000566e-03 -4.296332178910233779e-07
-2.049999999999996270e-03 -4.380021891847718507e-07
-1.899999999999998912e-03 -4.463368270535283955e-07
-1.749999999999994615e-03 -4.546286334061733214e-07
-1.599999999999997258e-03 -4.628689396213303553e-07
-1.449999999999999900e-03 -4.710489349690760719e-07
-1.299999999999995604e-03 -4.791596666109398939e-07
-1.149999999999998246e-03 -4.871921532867418136e-07
-9.999999999999939493e-04 -4.951372147843358107e-07
-8.499999999999965916e-04 -5.029856993132852949e-07
-6.999999999999992339e-04 -5.107282845528970938e-07
-5.499999999999949374e-04 -5.183555913390591741e-07
-3.999999999999975797e-04 -5.258582405076595023e-07
-2.500000000000002220e-04 -5.332268528945860453e-07
-9.999999999999592548e-05 -5.404519924923079088e-07
5.000000000000143219e-05 -5.475241664498753380e-07
2.000000000000057288e-04 -5.544339387597574387e-07
3.500000000000030864e-04 -5.611719302578421775e-07
5.000000000000004441e-04 -5.677288186234363820e-07
6.500000000000047407e-04 -5.740952246924280189e-07
8.000000000000020983e-04 -5.802620535177993588e-07
9.500000000000063949e-04 -5.862200396222760901e-07
1.100000000000003753e-03 -5.919603154325159267e-07
1.250000000000001110e-03 -5.974737291580822784e-07
1.400000000000005407e-03 -6.027516405993083026e-07
1.550000000000002764e-03 -6.077854095565271564e-07
1.700000000000000122e-03 -6.125665663603285793e-07
1.850000000000004419e-03 -6.170868118715588935e-07
2.000000000000001776e-03 -6.213381311681587249e-07
2.150000000000006073e-03 -6.253125661714875605e-07
2.300000000000003431e-03 -6.290023861765803304e-07
2.450000000000000788e-03 -6.324002015389851294e-07
2.600000000000005085e-03 -6.354988499879254960e-07
2.750000000000002442e-03 -6.382912829394626897e-07
2.899999999999999800e-03 -6.407709065570088569e-07
3.050000000000004097e-03 -6.429312975342327263e-07
3.200000000000001454e-03 -6.447663736253161915e-07
3.350000000000005751e-03 -6.462703368015354499e-07
3.500000000000003109e-03 -6.474376164078421425e-07
3.650000000000000466e-03 -6.482630965365387965e-07
3.800000000000004763e-03 -6.487418318101845216e-07
3.950000000000002121e-03 -6.488693884421081748e-07
4.100000000000006417e-03 -6.486415600193140563e-07
4.250000000000003775e-03 -6.480544243459007703e-07
4.400000000000001132e-03 -6.471045708167366683e-07
4.550000000000005429e-03 -6.457888162003655452e-07
4.700000000000002787e-03 -6.441043751692632213e-07
4.850000000000000144e-03 -6.420488602998375427e-07
5.000000000000004441e-03 -6.396202252290095203e-07
5.150000000000001799e-03 -6.368167078107944690e-07
5.300000000000006095e-03 -6.336369438031397294e-07
5.450000000000003453e-03 -6.300800237113435287e-07
5.600000000000000810e-03 -6.261453222577983979e-07
5.750000000000005107e-03 -6.218324415385723114e-07
5.900000000000002465e-03 -6.171416089273407124e-07
6.050000000000006761e-03 -6.120732791714544874e-07
6.200000000000004119e-03 -6.066282480787776876e-07
6.350000000000001477e-03 -6.008075388308498077e-07
6.500000000000005773e-03 -5.946126861999800894e-07
6.650000000000003131e-03 -5.880455091755720787e-07
6.800000000000000488e-03 -5.811080541207047645e-07
6.950000000000004785e-03 -5.738028221458080225e-07
7.100000000000002143e-03 -5.661325417349871714e-07
7.250000000000006439e-03 -5.581002255894418340e-07
7.400000000000003797e-03 -5.497092274708847981e-07
7.550000000000001155e-03 -5.409631285147042945e-07
7.700000000000005451e-03 -5.318657940733828582e-07
7.850000000000002809e-03 -5.224213168730784673e-07
8.000000000000000167e-03 -5.126340738570434041e-07
8.150000000000004463e-03 -5.025087261856242549e-07
8.300000000000001821e-03 -4.920501055494241882e-07
8.450000000000006117e-03 -4.812632141693029553e-07
8.600000000000003475e-03 -4.701533100615051808e-07
8.750000000000000833e-03 -4.587257365074037807e-07
8.900000000000005129e-03 -4.469861210054659750e-07
9.050000000000002487e-03 -4.349402615844155662e-07
9.200000000000006783e-03 -4.225940415381046478e-07
9.350000000000004141e-03 -4.099535146906418959e-07
9.500000000000001499e-03 -3.970248769746831385e-07
9.650000000000005795e-03 -3.838143811663030647e-07
9.800000000000003153e-03 -3.703284221501235152e-07
9.950000000000000511e-03 -3.565734516541851917e-07
1.010000000000000481e-02 -3.425560350933665177e-07
1.025000000000000216e-02 -3.282827947259647772e-07
1.040000000000000646e-02 -3.137604096536961151e-07
1.055000000000000382e-02 -2.989955873999861069e-07
1.070000000000000118e-02 -2.839952060185169103e-07
1.085000000000000547e-02 -2.687659446110046702e-07
1.100000000000000283e-02 -2.533147096528409747e-07
1.115000000000000713e-02 -2.376483365651438362e-07
1.130000000000000449e-02 -2.217736323473218363e-07
1.145000000000000184e-02 -2.056974750530571328e-07
1.160000000000000614e-02 -1.894266574709035922e-07
1.175000000000000350e-02 -1.729680434436886571e-07
1.190000000000000085e-02 -1.563284541816756246e-07
1.205000000000000515e-02 -1.395146824734183610e-07
1.220000000000000251e-02 -1.225335637400348787e-07
1.235000000000000681e-02 -1.053918126103781105e-07
1.250000000000000416e-02 -8.809615081872834708e-08
1.265000000000000152e-02 -7.065325746680173324e-08
1.280000000000000582e-02 -5.306980810360073519e-08
1.295000000000000318e-02 -3.535248893626885547e-08
1.310000000000000747e-02 -1.750788847232342960e-08
1.325000000000000483e-02 4.573206535685159224e-10
1.340000000000000219e-02 1.853663356143897545e-08
1.355000000000000648e-02 3.672339232707599876e-08
1.370000000000000384e-02 5.501111033368033532e-08
1.385000000000000120e-02 7.339320262644832837e-08
1.400000000000000550e-02 9.186310023778787581e-08
1.415000000000000285e-02 1.104143194652351667e-07
1.430000000000000715e-02 1.290402309450655594e-07
1.445000000000000451e-02 1.477343118949647760e-07
1.460000000000000187e-02 1.664898974240713869e-07
1.475000000000000616e-02 1.853004647500711144e-07
1.490000000000000352e-02 2.041592921386836679e-07
1.505000000000000088e-02 2.230595583796457504e-07
1.520000000000000517e-02 2.419946270038053626e-07
1.535000000000000253e-02 2.609575346923520556e-07
1.550000000000000683e-02 2.799414460241678171e-07
1.565000000000000419e-02 2.989393692587327678e-07
1.580000000000000154e-02 3.179442273903987370e-07
1.595000000000000584e-02 3.369488581483892631e-07
1.610000000000000320e-02 3.559459287316713016e-07
1.625000000000000749e-02 3.749281916043400997e-07
1.640000000000000485e-02 3.938879160614305874e-07
1.655000000000000221e-02 4.128175135065248469e-07
1.670000000000000651e-02 4.317092248129483778e-07
1.685000000000000386e-02 4.505550350586418062e-07
1.700000000000000122e-02 4.693469008998363279e-07
1.715000000000000552e-02 4.880765800407971255e-07
1.730000000000000288e-02 5.067355459686950780e-07
1.745000000000000717e-02 5.253152153272822034e-07
1.760000000000000453e-02 5.438068342300539371e-07
1.775000000000000189e-02 5.622014214168302715e-07
1.790000000000000618e-02 5.804898250971746165e-07
1.805000000000000354e-02 5.986627229503937997e-07
1.820000000000000784e-02 6.167106221255380660e-07
1.835000000000000520e-02 6.346236318677256349e-07
1.850000000000000255e-02 6.523919751089124475e-07
1.865000000000000685e-02 6.700056474073790014e-07
1.880000000000000421e-02 6.874541327306360472e-07
1.895000000000000157e-02 7.047272561067075003e-07
1.910000000000000586e-02 7.218141604425909463e-07
1.925000000000000322e-02 7.387041023321216926e-07
1.940000000000000752e-02 7.553859973086218815e-07
1.955000000000000487e-02 7.718488177488325164e-07
1.970000000000000223e-02 7.880811949689814355e-07
1.985000000000000653e-02 8.040717602852964774e-07
2.000000000000000389e-02 8.198089176403300371e-07
2.015000000000000818e-02 8.352809572897967882e-07
2.030000000000000554e-02 8.504761694894114044e-07
2.045000000000000290e-02 8.653825034343753941e-07
2.060000000000000719e-02 8.799881925369845703e-07
2.075000000000000455e-02 8.942810723056027200e-07
2.090000000000000191e-02 9.082492056222690735e-07
2.105000000000000621e-02 9.218803711519285571e-07
2.120000000000000356e-02 9.351625180897826795e-07
2.135000000000000786e-02 9.480836524744518101e-07
2.150000000000000522e-02 9.606316098142997362e-07
2.165000000000000258e-02 9.727945098347845487e-07
2.180000000000000687e-02 9.845603017311077565e-07
2.195000000000000423e-02 9.959173894458217546e-07
2.210000000000000159e-02 1.006853835860965773e-06
2.225000000000000588e-02 1.017358385979605373e-06
2.240000000000000324e-02 1.027419443744292948e-06
2.255000000000000754e-02 1.037025981531769503e-06
2.270000000000000490e-02 1.046166858031938318e-06
2.285000000000000225e-02 1.054831727742566727e-06
2.299999999999999961e-02 1.063009904100908898e-06
2.315000000000001085e-02 1.070691268978407606e-06
2.330000000000000820e-02 1.077866158993856516e-06
2.345000000000000556e-02 1.084525138139724731e-06
2.360000000000000292e-02 1.090659111468994524e-06
2.375000000000000028e-02 1.096259666155674495e-06
2.390000000000001151e-02 1.101318275686935522e-06
2.405000000000000887e-02 1.105827209357812535e-06
2.420000000000000623e-02 1.109779304897529073e-06
2.435000000000000359e-02 1.113167854782659560e-06
2.450000000000000094e-02 1.115986492550291587e-06
2.464999999999999830e-02 1.118229761232214514e-06
2.480000000000000954e-02 1.119892431233893149e-06
2.495000000000000689e-02 1.120969955081818625e-06
2.510000000000000425e-02 1.121458467423508409e-06
2.525000000000000161e-02 1.121354671340668574e-06
2.539999999999999897e-02 1.120655952036031522e-06
2.555000000000001020e-02 1.119360263146518264e-06
2.570000000000000756e-02 1.117466695177427027e-06
2.585000000000000492e-02 1.114974224947218318e-06
2.600000000000000228e-02 1.111883307203243021e-06
2.614999999999999963e-02 1.108194737753365189e-06
2.630000000000001087e-02 1.103910108213312924e-06
2.645000000000000823e-02 1.099031806006678380e-06
2.660000000000000558e-02 1.093563014364917763e-06
2.675000000000000294e-02 1.087507484953675885e-06
2.690000000000000030e-02 1.080869878933299333e-06
2.705000000000001154e-02 1.073655425898323301e-06
2.720000000000000889e-02 1.065870378624822479e-06
2.735000000000000625e-02 1.057521558323060162e-06
2.750000000000000361e-02 1.048616809384839144e-06
2.765000000000000097e-02 1.039164317262475379e-06
2.780000000000001220e-02 1.029173290589824319e-06
2.795000000000000956e-02 1.018653620121767744e-06
2.810000000000000692e-02 1.007615765047376044e-06
2.825000000000000427e-02 9.960710940504213795e-07
2.840000000000000163e-02 9.840316579357022420e-07
2.854999999999999899e-02 9.715101896290434524e-07
2.870000000000001023e-02 9.585201041772961617e-07
2.885000000000000758e-02 9.450752145312435459e-07
2.900000000000000494e-02 9.311902999797894154e-07
2.915000000000000230e-02 9.168806514026073273e-07
2.929999999999999966e-02 9.021620144267217256e-07
2.945000000000001089e-02 8.870507599567645229e-07
2.960000000000000825e-02 8.715638841749751009e-07
2.975000000000000561e-02 8.557188948543625884e-07
2.990000000000000296e-02 8.395334702981926966e-07
3.005000000000000032e-02 8.230260846175951883e-07
3.020000000000001156e-02 8.062156098276318517e-07
3.035000000000000892e-02 7.891209747867833357e-07
3.050000000000000627e-02 7.717618473179754801e-07
3.065000000000000363e-02 7.541580089309718460e-07
3.080000000000000099e-02 7.363295253526302986e-07
3.095000000000001222e-02 7.182968602137407288e-07
3.110000000000000958e-02 7.000804203016741667e-07
3.125000000000000694e-02 6.817011239945713896e-07
3.140000000000000430e-02 6.631797191403165925e-07
3.155000000000000165e-02 6.445372946473071352e-07
3.169999999999999901e-02 6.257947688936837949e-07
3.185000000000001025e-02 6.069734013181005139e-07
3.200000000000000761e-02 5.880940534552792087e-07
3.215000000000000496e-02 5.691778710570361000e-07
3.230000000000000232e-02 5.502456588146742433e-07
3.244999999999999968e-02 5.313182782629155554e-07
3.260000000000001091e-02 5.124163635628065094e-07
3.275000000000000827e-02 4.935603783451369964e-07
3.290000000000000563e-02 4.747704167584743118e-07
3.305000000000000299e-02 4.560664592645480298e-07
3.320000000000000034e-02 4.374680315777368378e-07
3.335000000000001158e-02 4.189944888821628410e-07
3.350000000000000894e-02 4.006646463494689669e-07
3.365000000000000629e-02 3.824970917776226997e-07
3.380000000000000365e-02 3.645097024218557635e-07
3.395000000000000101e-02 3.467202134288527304e-07
3.410000000000001225e-02 3.291454220288869692e-07
3.425000000000000960e-02 3.118021538739412790e-07
3.440000000000000696e-02 2.947062114344589645e-07
3.455000000000000432e-02 2.778729708552418742e-07
3.470000000000000168e-02 2.613172114251938183e-07
3.485000000000001291e-02 2.450531439990299987e-07
3.500000000000001027e-02 2.290941694127468509e-07
3.515000000000000763e-02 2.134531200681522023e-07
3.530000000000000498e-02 1.981420041374803986e-07
3.545000000000000234e-02 1.831723750456148991e-07
3.559999999999999970e-02 1.685546919816260925e-07
3.575000000000001094e-02 1.542990304415070568e-07
3.590000000000000829e-02 1.404144285288566607e-07
3.605000000000000565e-02 1.269093701239398797e-07
3.620000000000000301e-02 1.137913372417642677e-07
3.635000000000000037e-02 1.010671581980204792e-07
3.650000000000001160e-02 8.874287260596247506e-08
3.665000000000000896e-02 7.682365321670658886e-08
3.680000000000000632e-02 6.531395513320603641e-08
3.695000000000000367e-02 5.421739501798583660e-08
3.710000000000000103e-02 4.353672622414705984e-08
3.725000000000001227e-02 3.327400932562341040e-08
3.740000000000000963e-02 2.343039895436049846e-08
3.755000000000000698e-02 1.400632942960555738e-08
3.770000000000000434e-02 5.001353553524268136e-09
3.785000000000000170e-02 -3.585559626984036186e-09
3.800000000000001293e-02 -1.175647934559265195e-08
3.815000000000001029e-02 -1.951404371425269346e-08
3.830000000000000765e-02 -2.686155120557032205e-08
3.845000000000000501e-02 -3.380339563818779425e-08
3.860000000000000236e-02 -4.034423994880853570e-08
3.874999999999999972e-02 -4.648983420452168502e-08
3.890000000000001096e-02 -5.224627841471374268e-08
3.905000000000000832e-02 -5.762055010904987284e-08
3.920000000000000567e-02 -6.262030183279421180e-08
3.935000000000000303e-02 -6.725353074443773949e-08
3.950000000000000039e-02 -7.152921455144678475e-08
3.965000000000001162e-02 -7.545660452024094411e-08
3.980000000000000898e-02 -7.904548482429163414e-08
3.995000000000000634e-02 -8.230647097207111074e-08
4.010000000000000370e-02 -8.525028505346199381e-08
4.025000000000000105e-02 -8.788836680651002098e-08
4.040000000000001229e-02 -9.023254676776559791e-08
4.055000000000000965e-02 -9.229501074514701031e-08
4.070000000000000701e-02 -9.408838508306871518e-08
4.085000000000000436e-02 -9.562561587017626152e-08
4.100000000000000172e-02 -9.691986946336328401e-08
4.115000000000001296e-02 -9.798485223200259497e-08
4.130000000000001031e-02 -9.883423501833021874e-08
4.145000000000000767e-02 -9.948209367394156288e-08
4.160000000000000503e-02 -9.994260352641504142e-08
4.175000000000000239e-02 -1.002301743824318692e-07
4.190000000000001362e-02 -1.003593581572204130e-07
4.205000000000001098e-02 -1.003446570280175365e-07
4.220000000000000834e-02 -1.002008431782996922e-07
4.235000000000000570e-02 -9.994249694500467740e-08
4.250000000000000305e-02 -9.958435498447215650e-08
4.265000000000000041e-02 -9.914105447705878760e-08
4.280000000000001165e-02 -9.862714733799293754e-08
4.295000000000000900e-02 -9.805714995536618517e-08
4.310000000000000636e-02 -9.744537976530409651e-08
4.325000000000000372e-02 -9.680601920081244316e-08
4.340000000000000108e-02 -9.615304463750362629e-08
4.355000000000001231e-02 -9.550034718586175586e-08
4.370000000000000967e-02 -9.486128504931912175e-08
4.385000000000000703e-02 -9.424920932588065625e-08
4.400000000000000439e-02 -9.367701636620040517e-08
4.415000000000000174e-02 -9.315731830383811030e-08
4.430000000000001298e-02 -9.270237910641299095e-08
4.445000000000001034e-02 -9.232408615389431361e-08
4.460000000000000769e-02 -9.203377970834480948e-08
4.475000000000000505e-02 -9.184267213413477293e-08
4.490000000000000241e-02 -9.176113735520630144e-08
4.505000000000001364e-02 -9.179945692494584364e-08
4.520000000000001100e-02 -9.196715922143994248e-08
4.535000000000000836e-02 -9.227331787542425445e-08
4.550000000000000572e-02 -9.272658019199297996e-08
4.565000000000000308e-02 -9.333491846064134734e-08
4.580000000000000043e-02 -9.410582180180426803e-08
4.595000000000001167e-02 -9.504616116373654222e-08
4.610000000000000903e-02 -9.616235274734208360e-08
4.625000000000000638e-02 -9.745998141852396657e-08
4.640000000000000374e-02 -9.894426966639002785e-08
4.655000000000000110e-02 -1.006196441721840529e-07
4.670000000000001233e-02 -1.024900413426621526e-07
4.685000000000000969e-02 -1.045587509906908963e-07
4.700000000000000705e-02 -1.068283665972558083e-07
4.715000000000000441e-02 -1.093009061037264473e-07
4.730000000000000177e-02 -1.119778190172837640e-07
4.745000000000001300e-02 -1.148597803535267303e-07
4.760000000000001036e-02 -1.179470032752760744e-07
4.775000000000000772e-02 -1.212389406646252610e-07