-4.000000000000000083e-02 0.000000000000000000e+00
-3.985000000000000347e-02 0.000000000000000000e+00
-3.969999999999999918e-02 0.000000000000000000e+00
-3.955000000000000182e-02 0.000000000000000000e+00
-3.939999999999999752e-02 0.000000000000000000e+00
-3.925000000000000017e-02 0.000000000000000000e+00
-3.910000000000000281e-02 0.000000000000000000e+00
-3.894999999999999851e-02 0.000000000000000000e+00
-3.880000000000000115e-02 0.000000000000000000e+00
-3.865000000000000380e-02 0.000000000000000000e+00
-3.849999999999999950e-02 0.000000000000000000e+00
-3.835000000000000214e-02 0.000000000000000000e+00
-3.819999999999999785e-02 0.000000000000000000e+00
-3.805000000000000049e-02 0.000000000000000000e+00
-3.790000000000000313e-02 0.000000000000000000e+00
-3.774999999999999883e-02 0.000000000000000000e+00
-3.760000000000000148e-02 0.000000000000000000e+00
-3.744999999999999718e-02 0.000000000000000000e+00
-3.729999999999999982e-02 0.000000000000000000e+00
-3.715000000000000246e-02 0.000000000000000000e+00
-3.699999999999999817e-02 0.000000000000000000e+00
-3.685000000000000081e-02 0.000000000000000000e+00
-3.670000000000000345e-02 0.000000000000000000e+00
-3.654999999999999916e-02 0.000000000000000000e+00
-3.640000000000000180e-02 0.000000000000000000e+00
-3.624999999999999750e-02 0.000000000000000000e+00
-3.610000000000000014e-02 0.000000000000000000e+00
-3.595000000000000279e-02 0.000000000000000000e+00
-3.579999999999999849e-02 0.000000000000000000e+00
-3.565000000000000113e-02 0.000000000000000000e+00
-3.550000000000000377e-02 0.000000000000000000e+00
-3.534999999999999948e-02 0.000000000000000000e+00
-3.520000000000000212e-02 0.000000000000000000e+00
-3.504999999999999782e-02 0.000000000000000000e+00
-3.490000000000000047e-02 0.000000000000000000e+00
-3.475000000000000311e-02 0.000000000000000000e+00
-3.459999999999999881e-02 0.000000000000000000e+00
-3.445000000000000145e-02 0.000000000000000000e+00
-3.429999999999999716e-02 0.000000000000000000e+00
-3.414999999999999980e-02 0.000000000000000000e+00
-3.400000000000000244e-02 0.000000000000000000e+00
-3.384999999999999815e-02 0.000000000000000000e+00
-3.370000000000000079e-02 0.000000000000000000e+00
-3.354999999999999649e-02 0.000000000000000000e+00
-3.339999999999999913e-02 0.000000000000000000e+00
-3.325000000000000178e-02 0.000000000000000000e+00
-3.309999999999999748e-02 0.000000000000000000e+00
-3.295000000000000012e-02 0.000000000000000000e+00
-3.280000000000000276e-02 0.000000000000000000e+00
-3.264999999999999847e-02 0.000000000000000000e+00
-3.250000000000000111e-02 0.000000000000000000e+00
-3.235000000000000375e-02 0.000000000000000000e+00
-3.219999999999999946e-02 0.000000000000000000e+00
-3.205000000000000210e-02 0.000000000000000000e+00
-3.189999999999999780e-02 0.000000000000000000e+00
-3.175000000000000044e-02 0.000000000000000000e+00
-3.160000000000000309e-02 -0.000000000000000000e+00
-3.144999999999999879e-02 0.000000000000000000e+00
-3.130000000000000143e-02 -0.000000000000000000e+00
-3.115000000000000061e-02 5.605193857299268284e-45
-3.099999999999999978e-02 -1.121038771459853657e-43
-3.085000000000000242e-02 1.908568508410400851e-42
-3.069999999999999812e-02 -2.830342638243265520e-41
-3.055000000000000077e-02 3.352606575897124842e-40
-3.039999999999999994e-02 -2.417392592492920852e-39
-3.024999999999999911e-02 -1.397195882810813304e-38
-3.010000000000000175e-02 9.054735983141263796e-37
-2.994999999999999746e-02 -1.962515656332581886e-35
-2.980000000000000010e-02 2.908830336498090117e-34
-2.964999999999999927e-02 -3.098194991822623758e-33
-2.949999999999999845e-02 2.000023998181853985e-32
-2.935000000000000109e-02 2.814101149773908681e-32
-2.920000000000000026e-02 -2.761036113923269370e-30
-2.904999999999999943e-02 4.020108827789586820e-29
-2.890000000000000208e-02 -3.226849399502148378e-28
-2.874999999999999778e-02 9.174610253975807050e-28
-2.860000000000000042e-02 1.308260791914125566e-26
-2.844999999999999959e-02 -2.070171435273667691e-25
-2.829999999999999877e-02 1.296702636123908539e-24
-2.815000000000000141e-02 -5.870314835697014271e-25
-2.800000000000000058e-02 -5.861819651773257086e-23
-2.784999999999999976e-02 4.605422976133097772e-22
-2.769999999999999893e-02 -7.445760462938808648e-22
-2.754999999999999810e-02 -1.175726653804813889e-20
-2.740000000000000074e-02 8.301358445383440777e-20
-2.724999999999999992e-02 -4.029805193860421770e-20
-2.709999999999999909e-02 -1.866371752006459108e-18
-2.695000000000000173e-02 6.565008267033259869e-18
-2.679999999999999744e-02 1.868256565750222437e-17
-2.665000000000000008e-02 -1.396614922608084130e-16
-2.649999999999999925e-02 -8.224053981384325525e-17
-2.634999999999999842e-02 1.682781509827042075e-15
-2.620000000000000107e-02 5.678270120980822167e-16
-2.605000000000000024e-02 -1.315262257287931613e-14
-2.589999999999999941e-02 -1.620265946693406900e-14
-2.575000000000000205e-02 4.135115237420897150e-14
-2.559999999999999776e-02 1.547529601209421402e-13
-2.545000000000000040e-02 3.037440633214816277e-13
-2.529999999999999957e-02 5.084752605945264126e-13
-2.514999999999999875e-02 7.561723599711078769e-13
-2.500000000000000139e-02 1.047977026338853257e-12
-2.484999999999999709e-02 1.398224960293126262e-12
-2.469999999999999973e-02 1.794161065375721176e-12
-2.454999999999999891e-02 2.254611211269241799e-12
-2.439999999999999808e-02 2.775665114418401913e-12
-2.425000000000000072e-02 3.363832649927456231e-12
-2.409999999999999989e-02 4.030630863793849272e-12
-2.394999999999999907e-02 4.773003173252909903e-12
-2.379999999999999824e-02 5.608804653361998405e-12
-2.365000000000000088e-02 6.537615501039928390e-12
-2.350000000000000006e-02 7.572209352602055077e-12
-2.334999999999999923e-02 8.723666754251180322e-12
-2.319999999999999840e-02 9.995506158877454084e-12
-2.304999999999999757e-02 1.141045070929269656e-11
-2.290000000000000022e-02 1.296697211411457218e-11
-2.274999999999999939e-02 1.469325182357206216e-11
-2.259999999999999856e-02 1.659050154201313632e-11
-2.244999999999999774e-02 1.868576994523696300e-11
-2.230000000000000038e-02 2.098856158316841913e-11
-2.214999999999999955e-02 2.352253634929635240e-11
-2.199999999999999872e-02 2.630583771645600422e-11
-2.184999999999999790e-02 2.936173179590717552e-11
-2.170000000000000054e-02 3.271321061260046292e-11
-2.154999999999999971e-02 3.638876353018183352e-11
-2.139999999999999888e-02 4.041195156290200430e-11
-2.124999999999999806e-02 4.482076862433181930e-11
-2.110000000000000070e-02 4.963817551439930753e-11
-2.094999999999999987e-02 5.491200549823105348e-11
-2.079999999999999905e-02 6.066785962488552286e-11
-2.064999999999999822e-02 6.695994453354003895e-11
-2.049999999999999739e-02 7.382263550459455814e-11
-2.035000000000000003e-02 8.131191553406580397e-11
-2.019999999999999921e-02 8.947671770176413020e-11
-2.004999999999999838e-02 9.837241438104271651e-11
-1.989999999999999755e-02 1.080650360862911441e-10
-1.975000000000000019e-02 1.186111764361896803e-10
-1.959999999999999937e-02 1.300923674341092351e-10
-1.944999999999999854e-02 1.425722179204669260e-10
-1.929999999999999771e-02 1.561435841734848395e-10
-1.915000000000000036e-02 1.708843622161282383e-10
-1.899999999999999953e-02 1.868949023320354286e-10
-1.884999999999999870e-02 2.042731539475539648e-10
-1.869999999999999787e-02 2.231262397067723668e-10
-1.855000000000000052e-02 2.435743828854697313e-10
-1.839999999999999969e-02 2.657349063017733215e-10
-1.824999999999999886e-02 2.897491691022935356e-10
-1.809999999999999803e-02 3.157511752061026300e-10
-1.794999999999999721e-02 3.439006301952929334e-10
-1.779999999999999985e-02 3.743552412505124494e-10
-1.764999999999999902e-02 4.072918946551595809e-10
-1.749999999999999820e-02 4.428968580771908137e-10
-1.734999999999999737e-02 4.813662246583305659e-10
-1.720000000000000001e-02 5.229165433995319745e-10
-1.704999999999999918e-02 5.677686654159685986e-10
-1.689999999999999836e-02 6.161691712414096855e-10
-1.674999999999999753e-02 6.683707476362599209e-10
-1.660000000000000017e-02 7.246496736001972749e-10
-1.644999999999999934e-02 7.852968830768247699e-10
-1.629999999999999852e-02 8.506205739777783492e-10
-1.614999999999999769e-02 9.209537021881430974e-10
-1.600000000000000033e-02 9.966423242246946756e-10
-1.584999999999999951e-02 1.078062306092419931e-09
-1.569999999999999868e-02 1.165605723052465237e-09
-1.554999999999999785e-02 1.259692572475046290e-09
-1.539999999999999702e-02 1.360768053793037780e-09
-1.524999999999999967e-02 1.469300014989016745e-09
-1.509999999999999884e-02 1.585791165048533458e-09
-1.494999999999999801e-02 1.710764863105396216e-09
-1.479999999999999719e-02 1.844783548143880125e-09
-1.464999999999999983e-02 1.988435416322431593e-09
-1.449999999999999900e-02 2.142344746047797344e-09
-1.434999999999999817e-02 2.307172897175746584e-09
-1.419999999999999735e-02 2.483611316606015862e-09
-1.404999999999999999e-02 2.672399634917610456e-09
-1.389999999999999916e-02 2.874306348488175900e-09
-1.374999999999999833e-02 3.090151912132910184e-09
-1.359999999999999751e-02 3.320792085759194379e-09
-1.344999999999999668e-02 3.567131923176702912e-09
-1.329999999999999932e-02 3.830123773695959244e-09
-1.314999999999999850e-02 4.110763729414657064e-09
-1.299999999999999767e-02 4.410108278563029671e-09
-1.284999999999999684e-02 4.729254321489406721e-09
-1.269999999999999948e-02 5.069364039655965826e-09
-1.254999999999999866e-02 5.431648020248758257e-09
-1.239999999999999783e-02 5.817380799300053695e-09
-1.224999999999999700e-02 6.227894200350192477e-09
-1.209999999999999964e-02 6.664581775339684100e-09
-1.194999999999999882e-02 7.128905910036564819e-09
-1.179999999999999799e-02 7.622388054073780950e-09
-1.164999999999999716e-02 8.146626484517582867e-09
-1.149999999999999981e-02 8.703282539102019655e-09
-1.134999999999999898e-02 9.294094382994444459e-09
-1.119999999999999815e-02 9.920871235635786434e-09
-1.104999999999999732e-02 1.058550047616790835e-08
-1.089999999999999650e-02 1.128994675525518687e-08
-1.074999999999999914e-02 1.203625377144135200e-08
-1.059999999999999831e-02 1.282655048839842493e-08
-1.044999999999999749e-02 1.366304047678568168e-08
-1.029999999999999666e-02 1.454802323053172586e-08
-1.014999999999999930e-02 1.548387551508767501e-08
-9.999999999999998473e-03 1.647307179553081369e-08
-9.849999999999997646e-03 1.751816469663936005e-08
-9.699999999999996819e-03 1.862180276646085986e-08
-9.549999999999999462e-03 1.978673225266902591e-08
-9.399999999999998634e-03 2.101577933899534401e-08
-9.249999999999997807e-03 2.231187856693850335e-08
-9.099999999999996980e-03 2.367804441405496618e-08
-8.949999999999999623e-03 2.511739616295471933e-08
-8.799999999999998795e-03 2.663314724316023785e-08
-8.649999999999997968e-03 2.822860345474964561e-08
-8.500000000000000611e-03 2.990717007378407288e-08
-8.349999999999996314e-03 3.167234297052345937e-08
-8.199999999999998956e-03 3.352772282028126938e-08
-8.049999999999994660e-03 3.547699378714241902e-08
-7.899999999999997302e-03 3.752393595846115204e-08
-7.749999999999999944e-03 3.967242534486103978e-08
-7.599999999999995648e-03 4.192643032752130239e-08
-7.449999999999998290e-03 4.429000100003577245e-08
-7.300000000000000933e-03 4.676727982655393134e-08
-7.149999999999996636e-03 4.936249453635355167e-08
-6.999999999999999278e-03 5.207995101841333963e-08
-6.849999999999994982e-03 5.492403687412661384e-08
-6.699999999999997624e-03 5.789922141730130534e-08
-6.550000000000000266e-03 6.101003435787788476e-08
-6.399999999999995970e-03 6.426108711821143515e-08
-6.249999999999998612e-03 6.765703375322118518e-08
-6.099999999999994316e-03 7.120261358295465470e-08
-5.949999999999996958e-03 7.490259434916879400e-08
-5.799999999999999600e-03 7.876181484789412934e-08
-5.649999999999995304e-03 8.278512808601590223e-08
-5.499999999999997946e-03 8.697744391383821494e-08
-5.350000000000000588e-03 9.134369349794724258e-08
-5.199999999999996292e-03 9.588882932121123304e-08
-5.049999999999998934e-03 1.006178180773531494e-07
-4.899999999999994638e-03 1.055356193546685972e-07
-4.749999999999997280e-03 1.106472140577352548e-07
-4.599999999999999922e-03 1.159575404585666547e-07
-4.449999999999995626e-03 1.214715297237489722e-07
-4.299999999999998268e-03 1.271940988090136671e-07
-4.150000000000000910e-03 1.331300722995365504e-07
-3.999999999999996614e-03 1.392842534642113606e-07
-3.849999999999999256e-03 1.456613887285129749e-07
-3.699999999999994960e-03 1.522661392527879798e-07
-3.549999999999997602e-03 1.591030667213999550e-07
-3.400000000000000244e-03 1.661766191318747588e-07
-3.249999999999995948e-03 1.734911592166099581e-07
-3.099999999999998590e-03 1.810509218103106832e-07
-2.949999999999994293e-03 1.888599570065707667e-07
-2.799999999999996936e-03 1.969222154230010347e-07
-2.649999999999999578e-03 2.052414487252463005e-07
-2.499999999999995282e-03 2.138212096269853646e-07
-2.349999999999997924e-03 2.226648945224951603e-07
-2.200000000000000566e-03 2.317756297998130322e-07
-2.049999999999996270e-03 2.411563855275744572e-07
-1.899999999999998912e-03 2.508098191356111784e-07
-1.749999999999994615e-03 2.607383464692247799e-07
-1.599999999999997258e-03 2.709441275783319725e-07
-1.449999999999999900e-03 2.814290098740457324e-07
-1.299999999999995604e-03 2.921945565503847320e-07
-1.149999999999998246e-03 3.032419897408544784e-07
-9.999999999999939493e-04 3.145721905184473144e-07
-8.499999999999965916e-04 3.261857273173518479e-07
-6.999999999999992339e-04 3.380827138244058006e-07
-5.499999999999949374e-04 3.502629795093525900e-07
-3.999999999999975797e-04 3.627258706728753168e-07
-2.500000000000002220e-04 3.754703641334344866e-07
-9.999999999999592548e-05 3.884949819621397182e-07
5.000000000000143219e-05 4.017978767478780355e-07
2.000000000000057288e-04 4.153766326453478541e-07
3.500000000000030864e-04 4.292284927487344248e-07
5.000000000000004441e-04 4.433500748746155296e-07
6.500000000000047407e-04 4.577376273573463550e-07
8.000000000000020983e-04 4.723868585188029101e-07
9.500000000000063949e-04 4.872928798249631654e-07
1.100000000000003753e-03 5.024504048378730658e-07
1.250000000000001110e-03 5.178536639505182393e-07
1.400000000000005407e-03 5.334960633263108321e-07
1.550000000000002764e-03 5.493707249115686864e-07
1.700000000000000122e-03 5.654701453750021756e-07
1.850000000000004419e-03 5.817861961077142041e-07
2.000000000000001776e-03 5.983102937534567900e-07
2.150000000000006073e-03 6.150332296783744823e-07
2.300000000000003431e-03 6.319451699710043613e-07
2.450000000000000788e-03 6.490358828159514815e-07
2.600000000000005085e-03 6.662943974333757069e-07
2.750000000000002442e-03 6.837091746092482936e-07
2.899999999999999800e-03 7.012683340690273326e-07
3.050000000000004097e-03 7.189591997303068638e-07
3.200000000000001454e-03 7.367685270764923189e-07
3.350000000000005751e-03 7.546827873738948256e-07
3.500000000000003109e-03 7.726876560809614602e-07
3.650000000000000466e-03 7.907683539087884128e-07
3.800000000000004763e-03 8.089096468211209867e-07
3.950000000000002121e-03 8.270957891909347381e-07
4.100000000000006417e-03 8.453104669570166152e-07
4.250000000000003775e-03 8.635369681542215403e-07
4.400000000000001132e-03 8.817580692266346887e-07
4.550000000000005429e-03 8.999562624012469314e-07
4.700000000000002787e-03 9.181134714708605316e-07
4.850000000000000144e-03 9.362112223243457265e-07
5.000000000000004441e-03 9.542306997900595888e-07
5.150000000000001799e-03 9.721528613226837479e-07
5.300000000000006095e-03 9.899581527861300856e-07
5.450000000000003453e-03 1.007626792670635041e-06
5.600000000000000810e-03 1.025138885779597331e-06
5.750000000000005107e-03 1.042474195855902508e-06
5.900000000000002465e-03 1.059612145581922960e-06
6.050000000000006761e-03 1.076532157640031073e-06
6.200000000000004119e-03 1.093213654712599237e-06
6.350000000000001477e-03 1.109635491047811229e-06
6.500000000000005773e-03 1.125776861954363994e-06
6.650000000000003131e-03 1.141616962740954477e-06
6.800000000000000488e-03 1.157134533968928736e-06
6.950000000000004785e-03 1.172308884633821435e-06
7.100000000000002143e-03 1.187119096357491799e-06
7.250000000000006439e-03 1.201544591822312213e-06
7.400000000000003797e-03 1.215564680023817345e-06
7.550000000000001155e-03 1.229159011018055025e-06
7.700000000000005451e-03 1.242307462234748527e-06
7.850000000000002809e-03 1.254990365850972012e-06
8.000000000000000167e-03 1.267188054043799639e-06
8.150000000000004463e-03 1.278881313737656455e-06
8.300000000000001821e-03 1.290051500291156117e-06
8.450000000000006117e-03 1.300680310123425443e-06
8.600000000000003475e-03 1.310749780714104418e-06
8.750000000000000833e-03 1.320242631663859356e-06
8.900000000000005129e-03 1.329142151007545181e-06
9.050000000000002487e-03 1.337432081527367700e-06
9.200000000000006783e-03 1.345096848126559053e-06
9.350000000000004141e-03 1.352121557829377707e-06
9.500000000000001499e-03 1.358492113467946183e-06
9.650000000000005795e-03 1.364194872621737886e-06
9.800000000000003153e-03 1.369217216051765718e-06
9.950000000000000511e-03 1.373547206640068907e-06
1.010000000000000481e-02 1.377173703076550737e-06
1.025000000000000216e-02 1.380086700919491705e-06
1.040000000000000646e-02 1.382276650474523194e-06
1.055000000000000382e-02 1.383735138915653806e-06
1.070000000000000118e-02 1.384454662911593914e-06
1.085000000000000547e-02 1.384428628625755664e-06
1.100000000000000283e-02 1.383651579089928418e-06
1.115000000000000713e-02 1.382118739456927869e-06
1.130000000000000449e-02 1.379826358061109204e-06
1.145000000000000184e-02 1.376772047478880268e-06
1.160000000000000614e-02 1.372954216094512958e-06
1.175000000000000350e-02 1.368372181786980946e-06
1.190000000000000085e-02 1.363026512990472838e-06
1.205000000000000515e-02 1.356918915007554460e-06
1.220000000000000251e-02 1.350051775261817966e-06
1.235000000000000681e-02 1.342428845418908168e-06
1.250000000000000416e-02 1.334054786639171652e-06
1.265000000000000152e-02 1.324935169577656779e-06
1.280000000000000582e-02 1.315076815444626845e-06
1.295000000000000318e-02 1.304487568631884642e-06
1.310000000000000747e-02 1.293176183025934733e-06
1.325000000000000483e-02 1.281152435694821179e-06
1.340000000000000219e-02 1.268427126888127532e-06
1.355000000000000648e-02 1.255011738976463675e-06
1.370000000000000384e-02 1.240919118572492152e-06
1.385000000000000120e-02 1.226162794409901835e-06
1.400000000000000550e-02 1.210757204717083368e-06
1.415000000000000285e-02 1.194717697217129171e-06
1.430000000000000715e-02 1.178060301754157990e-06
1.445000000000000451e-02 1.160802071353828069e-06
1.460000000000000187e-02 1.142960854849661700e-06
1.475000000000000616e-02 1.124554842135694344e-06
1.490000000000000352e-02 1.105603246287500951e-06
1.505000000000000088e-02 1.086125962501682807e-06
1.520000000000000517e-02 1.066143340722192079e-06
1.535000000000000253e-02 1.045676299327169545e-06
1.550000000000000683e-02 1.024746552502620034e-06
1.565000000000000419e-02 1.003375928121386096e-06
1.580000000000000154e-02 9.815870498641743325e-07
1.595000000000000584e-02 9.594028824722045101e-07
1.610000000000000320e-02 9.368464475301152561e-07
1.625000000000000749e-02 9.139413919001526665e-07
1.640000000000000485e-02 8.907115329748194199e-07
1.655000000000000221e-02 8.671809155202936381e-07
1.670000000000000651e-02 8.433737548330100253e-07
1.685000000000000386e-02 8.193143230528221466e-07
1.700000000000000122e-02 7.950270628498401493e-07
1.715000000000000552e-02 7.705362463639175985e-07
1.730000000000000288e-02 7.458663731085835025e-07
1.745000000000000717e-02 7.210418289105291478e-07
1.760000000000000453e-02 6.960867722227703780e-07
1.775000000000000189e-02 6.710252478114853147e-07
1.790000000000000618e-02 6.458810730691766366e-07
1.805000000000000354e-02 6.206778948580904398e-07
1.820000000000000784e-02 5.954389052931219339e-07
1.835000000000000520e-02 5.701870691154908855e-07
1.850000000000000255e-02 5.449449531624850351e-07
1.865000000000000685e-02 5.197346695240412373e-07
1.880000000000000421e-02 4.945778755427454598e-07
1.895000000000000157e-02 4.694957453921233537e-07
1.910000000000000586e-02 4.445088848115119617e-07
1.925000000000000322e-02 4.196374163711880101e-07
1.940000000000000752e-02 3.949007236769830342e-07
1.955000000000000487e-02 3.703176219005399616e-07
1.970000000000000223e-02 3.459062725141848205e-07
1.985000000000000653e-02 3.216840980257984484e-07
2.000000000000000389e-02 2.976678104005259229e-07
2.015000000000000818e-02 2.738734110607765615e-07
2.030000000000000554e-02 2.503160487776767695e-07
2.045000000000000290e-02 2.270102470447454834e-07
2.060000000000000719e-02 2.039694493305432843e-07
2.075000000000000455e-02 1.812065590911515756e-07
2.090000000000000191e-02 1.587334566011122661e-07
2.105000000000000621e-02 1.365612689596673590e-07
2.120000000000000356e-02 1.147001924550750118e-07
2.135000000000000786e-02 9.315958493516518502e-08
2.150000000000000522e-02 7.194798001819435740e-08
2.165000000000000258e-02 5.107288814087951323e-08
2.180000000000000687e-02 3.054115182976602227e-08
2.195000000000000423e-02 1.035849628294727154e-08
2.210000000000000159e-02 -9.470015882584448264e-09
2.225000000000000588e-02 -2.894031503331007116e-08
2.240000000000000324e-02 -4.804915931799769169e-08
2.255000000000000754e-02 -6.679411512777733151e-08
2.270000000000000490e-02 -8.517377381167534622e-08
2.285000000000000225e-02 -1.031872471912720357e-07
2.299999999999999961e-02 -1.208347839565249160e-07
2.315000000000001085e-02 -1.381172438641442568e-07
2.330000000000000820e-02 -1.550363606384053128e-07
2.345000000000000556e-02 -1.715946211788832443e-07
2.360000000000000292e-02 -1.877951945061795413e-07
2.375000000000000028e-02 -2.036421875573068974e-07
2.390000000000001151e-02 -2.191400909623553162e-07
2.405000000000000887e-02 -2.342944185329542961e-07
2.420000000000000623e-02 -2.491110251412465004e-07
2.435000000000000359e-02 -2.635966325215122197e-07
2.450000000000000094e-02 -2.777583745228184853e-07
2.464999999999999830e-02 -2.916041239586775191e-07
2.480000000000000954e-02 -3.051420947031147080e-07
2.495000000000000689e-02 -3.183811259077629074e-07
2.510000000000000425e-02 -3.313305398933152901e-07
2.525000000000000161e-02 -3.440000284626876237e-07
2.539999999999999897e-02 -3.563998234312748536e-07
2.555000000000001020e-02 -3.685403839881473687e-07
2.570000000000000756e-02 -3.804325672263075830e-07
2.585000000000000492e-02 -3.920875997209805064e-07
2.600000000000000228e-02 -4.035168217342288699e-07
2.614999999999999963e-02 -4.147319998537568608e-07
2.630000000000001087e-02 -4.257449575106875272e-07
2.645000000000000823e-02 -4.365677170881099300e-07
2.660000000000000558e-02 -4.472124146559508517e-07
2.675000000000000294e-02 -4.576913283926842269e-07
2.690000000000000030e-02 -4.680167080550745595e-07
2.705000000000001154e-02 -4.782008886650146451e-07
2.720000000000000889e-02 -4.882561484009784181e-07
2.735000000000000625e-02 -4.981946517546020914e-07
2.750000000000000361e-02 -5.080286769043595996e-07
2.765000000000000097e-02 -5.177701609682117123e-07
2.780000000000001220e-02 -5.274310979075380601e-07
2.795000000000000956e-02 -5.370230837797862478e-07
2.810000000000000692e-02 -5.465576577989850193e-07
2.825000000000000427e-02 -5.560458475883933716e-07
2.840000000000000163e-02 -5.654987376146891620e-07
2.854999999999999899e-02 -5.749269575971993618e-07
2.870000000000001023e-02 -5.843407961947377771e-07
2.885000000000000758e-02 -5.937500304753484670e-07
2.900000000000000494e-02 -6.031642669768189080e-07
2.915000000000000230e-02 -6.125925438027479686e-07
2.929999999999999966e-02 -6.220435011528024916e-07
2.945000000000001089e-02 -6.315253813227172941e-07
2.960000000000000825e-02 -6.410458013306197245e-07
2.975000000000000561e-02 -6.506119234472862445e-07
2.990000000000000296e-02 -6.602303415093047079e-07
3.005000000000000032e-02 -6.699070809190743603e-07
3.020000000000001156e-02 -6.796476554882247001e-07
3.035000000000000892e-02 -6.894570674376154784e-07
3.050000000000000627e-02 -6.993394663368235342e-07
3.065000000000000363e-02 -7.092985470080748200e-07
3.080000000000000099e-02 -7.193373789959878195e-07
3.095000000000001222e-02 -7.294584634109924082e-07
3.110000000000000958e-02 -7.396635623990732711e-07
3.125000000000000694e-02 -7.499536991417699028e-07
3.140000000000000430e-02 -7.603294420732709114e-07
3.155000000000000165e-02 -7.707904501330631319e-07
3.169999999999999901e-02 -7.813359843567013741e-07
3.185000000000001025e-02 -7.919643962850386743e-07
3.200000000000000761e-02 -8.026735827115771826e-07
3.215000000000000496e-02 -8.134607014653738588e-07
3.230000000000000232e-02 -8.243221714110404719e-07
3.244999999999999968e-02 -8.352538429790001828e-07
3.260000000000001091e-02 -8.462509413220686838e-07
3.275000000000000827e-02 -8.573081231588730589e-07
3.290000000000000563e-02 -8.684192494001763407e-07
3.305000000000000299e-02 -8.795777830528095365e-07
3.320000000000000034e-02 -8.907763344723207410e-07
3.335000000000001158e-02 -9.020071161103260238e-07
3.350000000000000894e-02 -9.132617719842528459e-07
3.365000000000000629e-02 -9.245314345207589213e-07
3.380000000000000365e-02 -9.358066108688944951e-07
3.395000000000000101e-02 -9.470774102737777866e-07
3.410000000000001225e-02 -9.583334303897572681e-07
3.425000000000000960e-02 -9.695638709672493860e-07
3.440000000000000696e-02 -9.807573633224819787e-07
3.455000000000000432e-02 -9.919024250848451629e-07
3.470000000000000168e-02 -1.002986778075865004e-06
3.485000000000001291e-02 -1.013998371490743011e-06
3.500000000000001027e-02 -1.024924472403654363e-06
3.515000000000000763e-02 -1.035752120515098795e-06
3.530000000000000498e-02 -1.046468241838738322e-06
3.545000000000000234e-02 -1.057059648701397236e-06
3.559999999999999970e-02 -1.067512584995711222e-06
3.575000000000001094e-02 -1.077813521987991408e-06
3.590000000000000829e-02 -1.087948930944548920e-06
3.605000000000000565e-02 -1.097905055758019444e-06
3.620000000000000301e-02 -1.107668026634200942e-06
3.635000000000000037e-02 -1.117224087465729099e-06
3.650000000000001160e-02 -1.126559823205752764e-06
3.665000000000000896e-02 -1.135661591433745343e-06
3.680000000000000632e-02 -1.144516090789693408e-06
3.695000000000000367e-02 -1.153110019913583528e-06
3.710000000000000103e-02 -1.161430532192753162e-06
3.725000000000001227e-02 -1.169464894701377489e-06
3.740000000000000963e-02 -1.177200942947820295e-06
3.755000000000000698e-02 -1.184626398753607646e-06
3.770000000000000434e-02 -1.191730007121805102e-06
3.785000000000000170e-02 -1.198500285681802779e-06
3.800000000000001293e-02 -1.204926775244530290e-06
3.815000000000001029e-02 -1.210999130307754967e-06
3.830000000000000765e-02 -1.216707687490270473e-06
3.845000000000000501e-02 -1.222043579218734521e-06
3.860000000000000236e-02 -1.226998165293480270e-06
3.874999999999999972e-02 -1.231563715009542648e-06
3.890000000000001096e-02 -1.235733066096145194e-06
3.905000000000000832e-02 -1.239499738403537776e-06
3.920000000000000567e-02 -1.242858047589834314e-06
3.935000000000000303e-02 -1.245803218807850499e-06
3.950000000000000039e-02 -1.248331045644590631e-06
3.965000000000001162e-02 -1.250438344868598506e-06
3.980000000000000898e-02 -1.252122387995768804e-06
3.995000000000000634e-02 -1.253381697097211145e-06
4.010000000000000370e-02 -1.254215590051899198e-06
4.025000000000000105e-02 -1.254623953172995243e-06
4.040000000000001229e-02 -1.254607923328876495e-06
4.055000000000000965e-02 -1.254169774256297387e-06
4.070000000000000701e-02 -1.253312007065687794e-06
4.085000000000000436e-02 -1.252038487109530251e-06
4.100000000000000172e-02 -1.250353989235009067e-06
4.115000000000001296e-02 -1.248264197784010321e-06
4.130000000000001031e-02 -1.245775592906284146e-06
4.145000000000000767e-02 -1.242895677933120169e-06
4.160000000000000503e-02 -1.239632865690509789e-06
4.175000000000000239e-02 -1.235996478499146178e-06
4.190000000000001362e-02 -1.231996634487586562e-06
4.205000000000001098e-02 -1.227644588652765378e-06
4.220000000000000834e-02 -1.222952164425805677e-06
4.235000000000000570e-02 -1.217932208419369999e-06
4.250000000000000305e-02 -1.212598135680309497e-06
4.265000000000000041e-02 -1.206964384437014814e-06
4.280000000000001165e-02 -1.201046188725740649e-06
4.295000000000000900e-02 -1.194859237330092583e-06
4.310000000000000636e-02 -1.188419901154702529e-06
4.325000000000000372e-02 -1.181745574285741895e-06
4.340000000000000108e-02 -1.174853991869895253e-06
4.355000000000001231e-02 -1.167763571174873505e-06
4.370000000000000967e-02 -1.160493184215738438e-06
4.385000000000000703e-02 -1.153062271441740450e-06
4.400000000000000439e-02 -1.145490500675805379e-06
4.415000000000000174e-02 -1.137798221861885395e-06
4.430000000000001298e-02 -1.130005784943932667e-06
4.445000000000001034e-02 -1.122134108300087973e-06
4.460000000000000769e-02 -1.114204223995329812e-06
4.475000000000000505e-02 -1.106237391468312126e-06
4.490000000000000241e-02 -1.098254983844526578e-06
4.505000000000001364e-02 -1.090278374249464832e-06
4.520000000000001100e-02 -1.082328935808618553e-06
4.535000000000000836e-02 -1.074428155334317125e-06
4.550000000000000572e-02 -1.066597178578376770e-06
4.565000000000000308e-02 -1.058857037605775986e-06
4.580000000000000043e-02 -1.051228537107817829e-06
4.595000000000001167e-02 -1.043732140715292189e-06
4.610000000000000903e-02 -1.036387970998475794e-06
4.625000000000000638e-02 -1.029215923153969925e-06
4.640000000000000374e-02 -1.022235096570511814e-06
4.655000000000000110e-02 -1.015464022202650085e-06
4.670000000000001233e-02 -1.008921003631257918e-06
4.685000000000000969e-02 -1.002623434942506719e-06
4.700000000000000705e-02 -9.965880281015415676e-07
4.715000000000000441e-02 -9.908306992656434886e-07
4.730000000000000177e-02 -9.853664550973917358e-07
4.745000000000001300e-02 -9.802095064515015110e-07
4.760000000000001036e-02 -9.753732683748239651e-07
4.775000000000000772e-02 -9.708700190458330326e-07
4.790000000000000507e-02 -9.667111271483008750e-07
4.805000000000000243e-02 -9.629068244976224378e-07
4.820000000000001367e-02 -9.594662060408154503e-07
4.835000000000001102e-02 -9.563975709170335904e-07