-4.000000000000000083e-02 0.000000000000000000e+00
-3.985000000000000347e-02 0.000000000000000000e+00
-3.969999999999999918e-02 0.000000000000000000e+00
-3.955000000000000182e-02 0.000000000000000000e+00
-3.939999999999999752e-02 0.000000000000000000e+00
-3.925000000000000017e-02 0.000000000000000000e+00
-3.910000000000000281e-02 0.000000000000000000e+00
-3.894999999999999851e-02 0.000000000000000000e+00
-3.880000000000000115e-02 0.000000000000000000e+00
-3.865000000000000380e-02 0.000000000000000000e+00
-3.849999999999999950e-02 0.000000000000000000e+00
-3.835000000000000214e-02 0.000000000000000000e+00
-3.819999999999999785e-02 0.000000000000000000e+00
-3.805000000000000049e-02 0.000000000000000000e+00
-3.790000000000000313e-02 0.000000000000000000e+00
-3.774999999999999883e-02 0.000000000000000000e+00
-3.760000000000000148e-02 0.000000000000000000e+00
-3.744999999999999718e-02 0.000000000000000000e+00
-3.729999999999999982e-02 0.000000000000000000e+00
-3.715000000000000246e-02 0.000000000000000000e+00
-3.699999999999999817e-02 0.000000000000000000e+00
-3.685000000000000081e-02 0.000000000000000000e+00
-3.670000000000000345e-02 0.000000000000000000e+00
-3.654999999999999916e-02 0.000000000000000000e+00
-3.640000000000000180e-02 0.000000000000000000e+00
-3.624999999999999750e-02 0.000000000000000000e+00
-3.610000000000000014e-02 0.000000000000000000e+00
-3.595000000000000279e-02 0.000000000000000000e+00
-3.579999999999999849e-02 0.000000000000000000e+00
-3.565000000000000113e-02 0.000000000000000000e+00
-3.550000000000000377e-02 0.000000000000000000e+00
-3.534999999999999948e-02 0.000000000000000000e+00
-3.520000000000000212e-02 0.000000000000000000e+00
-3.504999999999999782e-02 0.000000000000000000e+00
-3.490000000000000047e-02 0.000000000000000000e+00
-3.475000000000000311e-02 0.000000000000000000e+00
-3.459999999999999881e-02 0.000000000000000000e+00
-3.445000000000000145e-02 0.000000000000000000e+00
-3.429999999999999716e-02 0.000000000000000000e+00
-3.414999999999999980e-02 0.000000000000000000e+00
-3.400000000000000244e-02 0.000000000000000000e+00
-3.384999999999999815e-02 0.000000000000000000e+00
-3.370000000000000079e-02 0.000000000000000000e+00
-3.354999999999999649e-02 0.000000000000000000e+00
-3.339999999999999913e-02 0.000000000000000000e+00
-3.325000000000000178e-02 0.000000000000000000e+00
-3.309999999999999748e-02 0.000000000000000000e+00
-3.295000000000000012e-02 0.000000000000000000e+00
-3.280000000000000276e-02 0.000000000000000000e+00
-3.264999999999999847e-02 0.000000000000000000e+00
-3.250000000000000111e-02 0.000000000000000000e+00
-3.235000000000000375e-02 0.000000000000000000e+00
-3.219999999999999946e-02 0.000000000000000000e+00
-3.205000000000000210e-02 0.000000000000000000e+00
-3.189999999999999780e-02 0.000000000000000000e+00
-3.175000000000000044e-02 0.000000000000000000e+00
-3.160000000000000309e-02 0.000000000000000000e+00
-3.144999999999999879e-02 0.000000000000000000e+00
-3.130000000000000143e-02 0.000000000000000000e+00
-3.115000000000000061e-02 5.605193857299268284e-45
-3.099999999999999978e-02 -1.121038771459853657e-43
-3.085000000000000242e-02 1.908568508410400851e-42
-3.069999999999999812e-02 -2.830342638243265520e-41
-3.055000000000000077e-02 3.352606575897124842e-40
-3.039999999999999994e-02 -2.417399598985242476e-39
-3.024999999999999911e-02 -1.397198685407741954e-38
-3.010000000000000175e-02 9.054753022930589985e-37
-2.994999999999999746e-02 -1.962519387149613304e-35
-2.980000000000000010e-02 2.908835846627859596e-34
-2.964999999999999927e-02 -3.098200869294377869e-33
-2.949999999999999845e-02 2.000027818538494157e-32
-2.935000000000000109e-02 2.814106439498487381e-32
-2.920000000000000026e-02 -2.761041380137961054e-30
-2.904999999999999943e-02 4.020116350953432082e-29
-2.890000000000000208e-02 -3.226855658774467637e-28
-2.874999999999999778e-02 9.174627587345306535e-28
-2.860000000000000042e-02 1.308263257104454382e-26
-2.844999999999999959e-02 -2.070175379578193796e-25
-2.829999999999999877e-02 1.296705101314237354e-24
-2.815000000000000141e-02 -5.870326175572526823e-25
-2.800000000000000058e-02 -5.861831011370292269e-23
-2.784999999999999976e-02 4.605431558939746577e-22
-2.769999999999999893e-02 -7.445774599326230208e-22
-2.754999999999999810e-02 -1.175728915626801339e-20
-2.740000000000000074e-02 8.301373955019926146e-20
-2.724999999999999992e-02 -4.029812948678664454e-20
-2.709999999999999909e-02 -1.866375267524062458e-18
-2.695000000000000173e-02 6.565020674742448164e-18
-2.679999999999999744e-02 1.868260039908795160e-17
-2.665000000000000008e-02 -1.396617569586044300e-16
-2.649999999999999925e-02 -8.224069863252086543e-17
-2.634999999999999842e-02 1.682784686200594279e-15
-2.620000000000000107e-02 5.678280708892662846e-16
-2.605000000000000024e-02 -1.315264798386773376e-14
-2.589999999999999941e-02 -1.620268996012017015e-14
-2.575000000000000205e-02 4.135123030124011889e-14
-2.559999999999999776e-02 1.547532582765395737e-13
-2.545000000000000040e-02 3.037446325276221826e-13
-2.529999999999999957e-02 5.084762363764816495e-13
-2.514999999999999875e-02 7.561738236440407324e-13
-2.500000000000000139e-02 1.047978977902763731e-12
-2.484999999999999709e-02 1.398227670798557476e-12
-2.469999999999999973e-02 1.794164426402455881e-12
-2.454999999999999891e-02 2.254615548077931741e-12
-2.439999999999999808e-02 2.775670318588829844e-12
-2.425000000000000072e-02 3.363839155140491144e-12
-2.409999999999999989e-02 4.030638670049491168e-12
-2.394999999999999907e-02 4.773012280551158781e-12
-2.379999999999999824e-02 5.608815495383723260e-12
-2.365000000000000088e-02 6.537628077785129221e-12
-2.350000000000000006e-02 7.572224097751600880e-12
-2.334999999999999923e-02 8.723683234124202102e-12
-2.319999999999999840e-02 9.995525240835689829e-12
-2.304999999999999757e-02 1.141047239333614627e-11
-2.290000000000000022e-02 1.296699640024323585e-11
-2.274999999999999939e-02 1.469327957914767779e-11
-2.259999999999999856e-02 1.659053276703570390e-11
-2.244999999999999774e-02 1.868580637442995851e-11
-2.230000000000000038e-02 2.098860148180836660e-11
-2.214999999999999955e-02 2.352258145210672780e-11
-2.199999999999999872e-02 2.630588802343680754e-11
-2.184999999999999790e-02 2.936178730705840678e-11
-2.170000000000000054e-02 3.271327306264559809e-11
-2.154999999999999971e-02 3.638883291912087259e-11
-2.139999999999999888e-02 4.041202789073494728e-11
-2.124999999999999806e-02 4.482085536050561814e-11
-2.110000000000000070e-02 4.963826918946701028e-11
-2.094999999999999987e-02 5.491210958163961209e-11
-2.079999999999999905e-02 6.066797758608188929e-11
-2.064999999999999822e-02 6.696006943363030928e-11
-2.049999999999999739e-02 7.382277428247263629e-11
-2.035000000000000003e-02 8.131206818973168993e-11
-2.019999999999999921e-02 8.947689117411172788e-11
-2.004999999999999838e-02 9.837260173117812201e-11
-1.989999999999999755e-02 1.080652442531082613e-10
-1.975000000000000019e-02 1.186113984807946053e-10
-1.959999999999999937e-02 1.300926172342897758e-10
-1.944999999999999854e-02 1.425724954762230823e-10
-1.929999999999999771e-02 1.561438756070288036e-10
-1.915000000000000036e-02 1.708846814052478180e-10
-1.899999999999999953e-02 1.868952631545184317e-10
-1.884999999999999870e-02 2.042735425256125836e-10
-1.869999999999999787e-02 2.231266699181944091e-10
-1.855000000000000052e-02 2.435748547302551970e-10
-1.839999999999999969e-02 2.657354059021344028e-10
-1.824999999999999886e-02 2.897497242138058482e-10
-1.809999999999999803e-02 3.157517858287661738e-10
-1.794999999999999721e-02 3.439012963291077085e-10
-1.779999999999999985e-02 3.743559628954784557e-10
-1.764999999999999902e-02 4.072926718112768185e-10
-1.749999999999999820e-02 4.428976907444592825e-10
-1.734999999999999737e-02 4.813671683479014973e-10
-1.720000000000000001e-02 5.229175426002541371e-10
-1.704999999999999918e-02 5.677697201278419925e-10
-1.689999999999999836e-02 6.161703369755855419e-10
-1.674999999999999753e-02 6.683720243927382398e-10
-1.660000000000000017e-02 7.246510613789780564e-10
-1.644999999999999934e-02 7.852983818779080138e-10
-1.629999999999999852e-02 8.506221838011640557e-10
-1.614999999999999769e-02 9.209554785449824976e-10
-1.600000000000000033e-02 9.966442116038365384e-10
-1.584999999999999951e-02 1.078064415516166719e-09
-1.569999999999999868e-02 1.165607943498514487e-09
-1.554999999999999785e-02 1.259695014965700466e-09
-1.539999999999999702e-02 1.360770607305994417e-09
-1.524999999999999967e-02 1.469302790546578308e-09
-1.509999999999999884e-02 1.585794162650699946e-09
-1.494999999999999801e-02 1.710768082752167629e-09
-1.479999999999999719e-02 1.844787100857558926e-09
-1.464999999999999983e-02 1.988439191080715318e-09
-1.449999999999999900e-02 2.142348742850685994e-09
-1.434999999999999817e-02 2.307177338067845085e-09
-1.419999999999999735e-02 2.483615979542719288e-09
-1.404999999999999999e-02 2.672404741943523732e-09
-1.389999999999999916e-02 2.874311899603299025e-09
-1.374999999999999833e-02 3.090157907337243159e-09
-1.359999999999999751e-02 3.320798525052737205e-09
-1.344999999999999668e-02 3.567138806559455588e-09
-1.329999999999999932e-02 3.830130879123316845e-09
-1.314999999999999850e-02 4.110771723020434365e-09
-1.299999999999999767e-02 4.410116716258016822e-09
-1.284999999999999684e-02 4.729263203273603722e-09
-1.269999999999999948e-02 5.069373809618582527e-09
-1.254999999999999866e-02 5.431658234300584809e-09
-1.239999999999999783e-02 5.817391901530299947e-09
-1.224999999999999700e-02 6.227906190758858429e-09
-1.209999999999999964e-02 6.664594653926769752e-09
-1.194999999999999882e-02 7.128919676802070171e-09
-1.179999999999999799e-02 7.622402264928496152e-09
-1.164999999999999716e-02 8.146641583550717769e-09
-1.149999999999999981e-02 8.703299414491993957e-09
-1.134999999999999898e-02 9.294112146562838461e-09
-1.119999999999999815e-02 9.920889887382600136e-09
-1.104999999999999732e-02 1.058552090427156145e-08
-1.089999999999999650e-02 1.128996807153725968e-08
-1.074999999999999914e-02 1.203627686408026420e-08
-1.059999999999999831e-02 1.282657535739417654e-08
-1.044999999999999749e-02 1.366306623395985298e-08
-1.029999999999999666e-02 1.454805076406273656e-08
-1.014999999999999930e-02 1.548390571315394482e-08
-9.999999999999998473e-03 1.647310376995392289e-08
-9.849999999999997646e-03 1.751819844741930865e-08
-9.699999999999996819e-03 1.862183829359764786e-08
-9.549999999999999462e-03 1.978676955616265332e-08
-9.399999999999998634e-03 2.101582019520265021e-08
-9.249999999999997807e-03 2.231192119950264896e-08
-9.099999999999996980e-03 2.367808882297595119e-08
-8.949999999999999623e-03 2.511744412458938314e-08
-8.799999999999998795e-03 2.663319875750858046e-08
-8.649999999999997968e-03 2.822865674545482761e-08
-8.500000000000000611e-03 2.990722691720293369e-08
-8.349999999999996314e-03 3.167240336665599898e-08
-8.199999999999998956e-03 3.352778676912748779e-08
-8.049999999999994660e-03 3.547706128870231623e-08
-7.899999999999997302e-03 3.752401056544840685e-08
-7.749999999999999944e-03 3.967251060998933099e-08
-7.599999999999995648e-03 4.192652980350430880e-08
-7.449999999999998290e-03 4.429011468687349407e-08
-7.300000000000000933e-03 4.676738996067797416e-08
-7.149999999999996636e-03 4.936254427434505487e-08
-6.999999999999999278e-03 5.207983733157561801e-08
-6.849999999999994982e-03 5.492363897019458818e-08
-6.699999999999997624e-03 5.789852863813393924e-08
-6.550000000000000266e-03 6.100938065856098547e-08
-6.399999999999995970e-03 6.426149923299817601e-08
-6.249999999999998612e-03 6.766049409634433687e-08
-6.099999999999994316e-03 7.121181511138274800e-08
-5.949999999999996958e-03 7.491967579653646681e-08
-5.799999999999999600e-03 7.878546881556758308e-08
-5.649999999999995304e-03 8.280613172928497079e-08
-5.499999999999997946e-03 8.697378461874905042e-08
-5.350000000000000588e-03 9.127786171347906929e-08
-5.199999999999996292e-03 9.571102310701462557e-08
-5.049999999999998934e-03 1.002780649628220999e-07
-4.899999999999994638e-03 1.050049505124661664e-07
-4.749999999999997280e-03 1.099420927630490041e-07
-4.599999999999999922e-03 1.151560766743386921e-07
-4.449999999999995626e-03 1.207073978548578452e-07
-4.299999999999998268e-03 1.266194544768950436e-07
-4.150000000000000910e-03 1.328525911503675161e-07
-3.999999999999996614e-03 1.393019459783317870e-07
-3.849999999999999256e-03 1.458311658097954933e-07
-3.699999999999994960e-03 1.523370940503809834e-07
-3.549999999999997602e-03 1.588177553912828444e-07
-3.400000000000000244e-03 1.654022270258792560e-07
-3.249999999999995948e-03 1.723108766782388557e-07
-3.099999999999998590e-03 1.797485253973718500e-07
-2.949999999999994293e-03 1.877809978623190545e-07
-2.799999999999996936e-03 1.962718840786692454e-07
-2.649999999999999578e-03 2.049363843070750590e-07
-2.499999999999995282e-03 2.135045207296570879e-07
-2.349999999999997924e-03 2.219038321982225170e-07
-2.200000000000000566e-03 2.303373207723780070e-07
-2.049999999999996270e-03 2.391809061919047963e-07
-1.899999999999998912e-03 2.487419976660021348e-07
-1.749999999999994615e-03 2.590332144336571218e-07
-1.599999999999997258e-03 2.697327659006987233e-07
-1.449999999999999900e-03 2.803895995384664275e-07
-1.299999999999995604e-03 2.907505916027730564e-07
-1.149999999999998246e-03 3.009707825185614638e-07
-9.999999999999939493e-04 3.115269464615266770e-07
-8.499999999999965916e-04 3.228693969958840171e-07
-6.999999999999992339e-04 3.350637598487082869e-07
-5.499999999999949374e-04 3.477143764030188322e-07
-3.999999999999975797e-04 3.602573883654258680e-07
-2.500000000000002220e-04 3.724111650171835208e-07
-9.999999999999592548e-05 3.844167224542616168e-07
5.000000000000143219e-05 3.968542614529724233e-07
2.000000000000057288e-04 4.101613058082875796e-07
3.500000000000030864e-04 4.242579905167076504e-07
5.000000000000004441e-04 4.386041609905078076e-07
6.500000000000047407e-04 4.526590942077746149e-07
8.000000000000020983e-04 4.663435504426161060e-07
9.500000000000063949e-04 4.800955366590642370e-07
1.100000000000003753e-03 4.944666329720348585e-07
1.250000000000001110e-03 5.096230211165675428e-07
1.400000000000005407e-03 5.252078381090541370e-07
1.550000000000002764e-03 5.406844252320297528e-07
1.700000000000000122e-03 5.558291036322771106e-07
1.850000000000004419e-03 5.708961907657794654e-07
2.000000000000001776e-03 5.863249725734931417e-07
2.150000000000006073e-03 6.022930278959393036e-07
2.300000000000003431e-03 6.185660481605737004e-07
2.450000000000000788e-03 6.347789280880533624e-07
2.600000000000005085e-03 6.508143997052684426e-07
2.750000000000002442e-03 6.668707328572054394e-07
2.899999999999999800e-03 6.831696168774215039e-07
3.050000000000004097e-03 6.996576757956063375e-07
3.200000000000001454e-03 7.160580821619078051e-07
3.350000000000005751e-03 7.322396413655951619e-07
3.500000000000003109e-03 7.484021011805452872e-07
3.650000000000000466e-03 7.648505970792029984e-07
3.800000000000004763e-03 7.815553431100852322e-07
3.950000000000002121e-03 7.980631266946147662e-07
4.100000000000006417e-03 8.139299438880698290e-07
4.250000000000003775e-03 8.292607276416674722e-07
4.400000000000001132e-03 8.446977517451159656e-07
4.550000000000005429e-03 8.607379413660964929e-07
4.700000000000002787e-03 8.770995805207348894e-07
4.850000000000000144e-03 8.928501529226195998e-07
5.000000000000004441e-03 9.073501132661476731e-07
5.150000000000001799e-03 9.209728659698157571e-07
5.300000000000006095e-03 9.348057119495933875e-07
5.450000000000003453e-03 9.495016684013535269e-07
5.600000000000000810e-03 9.644803640185273252e-07
5.750000000000005107e-03 9.784139365365263075e-07
5.900000000000002465e-03 9.905523938869009726e-07
6.050000000000006761e-03 1.001572513814608101e-06
6.200000000000004119e-03 1.012879351947049145e-06
6.350000000000001477e-03 1.025115693664702121e-06
6.500000000000005773e-03 1.037438096318510361e-06
6.650000000000003131e-03 1.048287344929121900e-06
6.800000000000000488e-03 1.057013264471606817e-06
6.950000000000004785e-03 1.064522393789957277e-06
7.100000000000002143e-03 1.072284021574887447e-06
7.250000000000006439e-03 1.080793708752025850e-06
7.400000000000003797e-03 1.089024863176746294e-06
7.550000000000001155e-03 1.095493303182593081e-06
7.700000000000005451e-03 1.099769633583491668e-06
7.850000000000002809e-03 1.102805526898009703e-06
8.000000000000000167e-03 1.105854607885703444e-06
8.150000000000004463e-03 1.109229629037145060e-06
8.300000000000001821e-03 1.111975166168122087e-06
8.450000000000006117e-03 1.112872382691421080e-06
8.600000000000003475e-03 1.111664118980115745e-06
8.750000000000000833e-03 1.109101617657870520e-06
8.900000000000005129e-03 1.106178615373210050e-06
9.050000000000002487e-03 1.103099862120870966e-06
9.200000000000006783e-03 1.099166752283053938e-06
9.350000000000004141e-03 1.093476726055087056e-06
9.500000000000001499e-03 1.085723738469823729e-06
9.650000000000005795e-03 1.076370722330466378e-06
9.800000000000003153e-03 1.066146296579972841e-06
9.950000000000000511e-03 1.055471443578426261e-06
1.010000000000000481e-02 1.043889369611861184e-06
1.025000000000000216e-02 1.030658836498332676e-06
1.040000000000000646e-02 1.015308271234971471e-06
1.055000000000000382e-02 9.980129789255443029e-07
1.070000000000000118e-02 9.796603990253061056e-07
1.085000000000000547e-02 9.607459787730476819e-07
1.100000000000000283e-02 9.408495316165499389e-07
1.115000000000000713e-02 9.191422805088222958e-07
1.130000000000000449e-02 8.951584504757192917e-07
1.145000000000000184e-02 8.692794608577969484e-07
1.160000000000000614e-02 8.422495056947809644e-07
1.175000000000000350e-02 8.145844958562520333e-07
1.190000000000000085e-02 7.858175194996874779e-07
1.205000000000000515e-02 7.550771670139511116e-07
1.220000000000000251e-02 7.221184432637528516e-07
1.235000000000000681e-02 6.874289510960807092e-07
1.250000000000000416e-02 6.517373094538925216e-07
1.265000000000000152e-02 6.152673677206621505e-07
1.280000000000000582e-02 5.773056273028487340e-07
1.295000000000000318e-02 5.373942713049473241e-07
1.310000000000000747e-02 4.955711574439192191e-07
1.325000000000000483e-02 4.523662937572225928e-07
1.340000000000000219e-02 4.080669668837799691e-07
1.355000000000000648e-02 3.627792466431856155e-07
1.370000000000000384e-02 3.161703716614283621e-07
1.385000000000000120e-02 2.678427790669957176e-07
1.400000000000000550e-02 2.179527882617549039e-07
1.415000000000000285e-02 1.668649929342791438e-07
1.430000000000000715e-02 1.150501702795736492e-07
1.445000000000000451e-02 6.218340331543004140e-08
1.460000000000000187e-02 8.195229384000413120e-09
1.475000000000000616e-02 -4.731089120468823239e-08
1.490000000000000352e-02 -1.042284338836907409e-07
1.505000000000000088e-02 -1.620791181267122738e-07
1.520000000000000517e-02 -2.204424163210205734e-07
1.535000000000000253e-02 -2.792974100884748623e-07
1.550000000000000683e-02 -3.387242486496688798e-07
1.565000000000000419e-02 -3.996324267063755542e-07
1.580000000000000154e-02 -4.615700390786514618e-07
1.595000000000000584e-02 -5.237210416453308426e-07
1.610000000000000320e-02 -5.858805138814204838e-07
1.625000000000000749e-02 -6.480830165855877567e-07
1.640000000000000485e-02 -7.109522925929923076e-07
1.655000000000000221e-02 -7.746316441625822335e-07
1.670000000000000651e-02 -8.385729870497016236e-07
1.685000000000000386e-02 -9.023373195304884575e-07
1.700000000000000122e-02 -9.656237125454936177e-07
1.715000000000000552e-02 -1.028582573781022802e-06
1.730000000000000288e-02 -1.091727654056739993e-06
1.745000000000000717e-02 -1.155114773609966505e-06
1.760000000000000453e-02 -1.218130364577518776e-06
1.775000000000000189e-02 -1.279993739444762468e-06
1.790000000000000618e-02 -1.340484459433355369e-06
1.805000000000000354e-02 -1.400452219968428835e-06
1.820000000000000784e-02 -1.460150087950751185e-06
1.835000000000000520e-02 -1.518958697488415055e-06
1.850000000000000255e-02 -1.576447857587481849e-06
1.865000000000000685e-02 -1.632449993849149905e-06
1.880000000000000421e-02 -1.686492282715335023e-06
1.895000000000000157e-02 -1.739281287882477045e-06
1.910000000000000586e-02 -1.790796204659272917e-06
1.925000000000000322e-02 -1.841104449340491556e-06
1.940000000000000752e-02 -1.889706254587508738e-06
1.955000000000000487e-02 -1.936597527674166486e-06
1.970000000000000223e-02 -1.980857632588595152e-06
1.985000000000000653e-02 -2.024404693656833842e-06
2.000000000000000389e-02 -2.067527702820370905e-06
2.015000000000000818e-02 -2.110778041242156178e-06
2.030000000000000554e-02 -2.154460617020959035e-06
2.045000000000000290e-02 -2.197164121753303334e-06
2.060000000000000719e-02 -2.239573632323299535e-06
2.075000000000000455e-02 -2.282170726175536402e-06
2.090000000000000191e-02 -2.325278501302818768e-06
2.105000000000000621e-02 -2.369758703935076483e-06
2.120000000000000356e-02 -2.412938329143798910e-06
2.135000000000000786e-02 -2.453250999678857625e-06
2.150000000000000522e-02 -2.490149427103460766e-06
2.165000000000000258e-02 -2.522127715565147810e-06
2.180000000000000687e-02 -2.549819100750028156e-06
2.195000000000000423e-02 -2.571777031334931962e-06
2.210000000000000159e-02 -2.587298240541713312e-06
2.225000000000000588e-02 -2.596320200609625317e-06
2.240000000000000324e-02 -2.598912487883353606e-06
2.255000000000000754e-02 -2.597474122012499720e-06
2.270000000000000490e-02 -2.593472800072049722e-06
2.285000000000000225e-02 -2.589993073343066499e-06
2.299999999999999961e-02 -2.587719109214958735e-06
2.315000000000001085e-02 -2.587320977909257635e-06
2.330000000000000820e-02 -2.590910526123479940e-06
2.345000000000000556e-02 -2.598446599222370423e-06
2.360000000000000292e-02 -2.611023774079512805e-06
2.375000000000000028e-02 -2.624164153530728072e-06
2.390000000000001151e-02 -2.638788828335236758e-06
2.405000000000000887e-02 -2.652022430993383750e-06
2.420000000000000623e-02 -2.662284259713487700e-06
2.435000000000000359e-02 -2.669522928044898435e-06
2.450000000000000094e-02 -2.674764346011215821e-06
2.464999999999999830e-02 -2.680133547983132303e-06
2.480000000000000954e-02 -2.686824927877751179e-06
2.495000000000000689e-02 -2.696098590604378842e-06
2.510000000000000425e-02 -2.711645493036485277e-06
2.525000000000000161e-02 -2.737455361057072878e-06
2.539999999999999897e-02 -2.772425204966566525e-06
2.555000000000001020e-02 -2.818908342305803671e-06
2.570000000000000756e-02 -2.874667188734747469e-06
2.585000000000000492e-02 -2.938276338682044297e-06
2.600000000000000228e-02 -3.008338808285770938e-06
2.614999999999999963e-02 -3.085096750510274433e-06
2.630000000000001087e-02 -3.169033334415871650e-06
2.645000000000000823e-02 -3.261191523051820695e-06
2.660000000000000558e-02 -3.363988298588083126e-06
2.675000000000000294e-02 -3.478950930002611130e-06
2.690000000000000030e-02 -3.611483180065988563e-06
2.705000000000001154e-02 -3.764732809941051528e-06
2.720000000000000889e-02 -3.940647275157971308e-06
2.735000000000000625e-02 -4.140753844694700092e-06
2.750000000000000361e-02 -4.364409960544435307e-06
2.765000000000000097e-02 -4.611180429492378607e-06
2.780000000000001220e-02 -4.880898359260754660e-06
2.795000000000000956e-02 -5.174929356144275516e-06
2.810000000000000692e-02 -5.494419838214525953e-06
2.825000000000000427e-02 -5.840006451762747020e-06
2.840000000000000163e-02 -6.216895144461886957e-06
2.854999999999999899e-02 -6.628305527556221932e-06
2.870000000000001023e-02 -7.079791885189479217e-06
2.885000000000000758e-02 -7.575424206152092665e-06
2.900000000000000494e-02 -8.118791811284609139e-06
2.915000000000000230e-02 -8.710864676686469465e-06
2.929999999999999966e-02 -9.351490007247775793e-06
2.945000000000001089e-02 -1.004141995508689433e-05
2.960000000000000825e-02 -1.078221703210147098e-05
2.975000000000000561e-02 -1.157620408775983378e-05
2.990000000000000296e-02 -1.242901907971827313e-05
3.005000000000000032e-02 -1.334273383690742776e-05
3.020000000000001156e-02 -1.432429417036473751e-05
3.035000000000000892e-02 -1.537962998554576188e-05
3.050000000000000627e-02 -1.651431739446707070e-05
3.065000000000000363e-02 -1.773265285009983927e-05
3.080000000000000099e-02 -1.903813245007768273e-05
3.095000000000001222e-02 -2.043251879513263702e-05
3.110000000000000958e-02 -2.191639578086324036e-05
3.125000000000000694e-02 -2.349363603570964187e-05
3.140000000000000430e-02 -2.516854874556884170e-05
3.155000000000000165e-02 -2.694756221899297088e-05
3.169999999999999901e-02 -2.883763227146118879e-05
3.185000000000001025e-02 -3.084624040639027953e-05
3.200000000000000761e-02 -3.298076990176923573e-05
3.215000000000000496e-02 -3.524710336932912469e-05
3.230000000000000232e-02 -3.765137807931751013e-05
3.244999999999999968e-02 -4.019731204607523978e-05
3.260000000000001091e-02 -4.288888885639607906e-05
3.275000000000000827e-02 -4.572924444801174104e-05
3.290000000000000563e-02 -4.872320641879923642e-05
3.305000000000000299e-02 -5.187757778912782669e-05
3.320000000000000034e-02 -5.520123158930800855e-05
3.335000000000001158e-02 -5.870375753147527575e-05
3.350000000000000894e-02 -6.239461072254925966e-05
3.365000000000000629e-02 -6.628111441386863589e-05
3.380000000000000365e-02 -7.036965689621865749e-05
3.395000000000000101e-02 -7.466594252036884427e-05
3.410000000000001225e-02 -7.917467155493795872e-05
3.425000000000000960e-02 -8.390194852836430073e-05
3.440000000000000696e-02 -8.885217539500445127e-05
3.455000000000000432e-02 -9.403254080098122358e-05
3.470000000000000168e-02 -9.945169585989788175e-05
3.485000000000001291e-02 -1.051193903549574316e-04
3.500000000000001027e-02 -1.110467346734367311e-04
3.515000000000000763e-02 -1.172424745163880289e-04
3.530000000000000498e-02 -1.237126416526734829e-04
3.545000000000000234e-02 -1.304634788539260626e-04
3.559999999999999970e-02 -1.374978746753185987e-04
3.575000000000001094e-02 -1.448211260139942169e-04
3.590000000000000829e-02 -1.524397084722295403e-04
3.605000000000000565e-02 -1.603581476956605911e-04
3.620000000000000301e-02 -1.685845345491543412e-04
3.635000000000000037e-02 -1.771270763128995895e-04
3.650000000000001160e-02 -1.859933836385607719e-04
3.665000000000000896e-02 -1.951905724126845598e-04
3.680000000000000632e-02 -2.047248271992430091e-04
3.695000000000000367e-02 -2.145992912119254470e-04
3.710000000000000103e-02 -2.248142118332907557e-04
3.725000000000001227e-02 -2.353716990910470486e-04
3.740000000000000963e-02 -2.462712873239070177e-04
3.755000000000000698e-02 -2.575173566583544016e-04
3.770000000000000434e-02 -2.691132249310612679e-04
3.785000000000000170e-02 -2.810629084706306458e-04
3.800000000000001293e-02 -2.933675714302808046e-04
3.815000000000001029e-02 -3.060298913624137640e-04
3.830000000000000765e-02 -3.190468123648315668e-04
3.845000000000000501e-02 -3.324169083498418331e-04
3.860000000000000236e-02 -3.461359010543674231e-04
3.874999999999999972e-02 -3.601969510782510042e-04
3.890000000000001096e-02 -3.745949652511626482e-04
3.905000000000000832e-02 -3.893216198775917292e-04
3.920000000000000567e-02 -4.043730150442570448e-04
3.935000000000000303e-02 -4.197416710667312145e-04
3.950000000000000039e-02 -4.354224074631929398e-04
3.965000000000001162e-02 -4.514047468546777964e-04
3.980000000000000898e-02 -4.676770477090030909e-04
3.995000000000000634e-02 -4.842290072701871395e-04
4.010000000000000370e-02 -5.010386812500655651e-04
4.025000000000000105e-02 -5.180948646739125252e-04
4.040000000000001229e-02 -5.353756714612245560e-04
4.055000000000000965e-02 -5.528643378056585789e-04
4.070000000000000701e-02 -5.705390940420329571e-04
4.085000000000000436e-02 -5.883795674890279770e-04
4.100000000000000172e-02 -6.063621840439736843e-04
4.115000000000001296e-02 -6.244658143259584904e-04
4.130000000000001031e-02 -6.426658947020769119e-04
4.145000000000000767e-02 -6.609316915273666382e-04
4.160000000000000503e-02 -6.792345666326582432e-04
4.175000000000000239e-02 -6.975412834435701370e-04
4.190000000000001362e-02 -7.158184889703989029e-04
4.205000000000001098e-02 -7.340288721024990082e-04
4.220000000000000834e-02 -7.521353545598685741e-04
4.235000000000000570e-02 -7.700996939092874527e-04
4.250000000000000305e-02 -7.878831820562481880e-04
4.265000000000000041e-02 -8.054455392993986607e-04
4.280000000000001165e-02 -8.227456710301339626e-04
4.295000000000000900e-02 -8.397419005632400513e-04
4.310000000000000636e-02 -8.563890005461871624e-04
4.325000000000000372e-02 -8.726367377676069736e-04
4.340000000000000108e-02 -8.884357521310448647e-04
4.355000000000001231e-02 -9.037324925884604454e-04
4.370000000000000967e-02 -9.184713126160204411e-04
4.385000000000000703e-02 -9.326007566414773464e-04
4.400000000000000439e-02 -9.460626752115786076e-04
4.415000000000000174e-02 -9.588103857822716236e-04
4.430000000000001298e-02 -9.707899880595505238e-04
4.445000000000001034e-02 -9.819490369409322739e-04
4.460000000000000769e-02 -9.922274621203541756e-04
4.475000000000000505e-02 -1.001568278297781944e-03
4.490000000000000241e-02 -1.009908039122819901e-03
4.505000000000001364e-02 -1.017182483337819576e-03
4.520000000000001100e-02 -1.023330492898821831e-03
4.535000000000000836e-02 -1.028290484100580215e-03
4.550000000000000572e-02 -1.032004714943468571e-03
4.565000000000000308e-02 -1.034420100040733814e-03
4.580000000000000043e-02 -1.035482040606439114e-03
4.595000000000001167e-02 -1.035133260302245617e-03
4.610000000000000903e-02 -1.033319742418825626e-03
4.625000000000000638e-02 -1.029980252496898174e-03
4.640000000000000374e-02 -1.025054603815078735e-03
4.655000000000000110e-02 -1.018485520035028458e-03
4.670000000000001233e-02 -1.010218285955488682e-03
4.685000000000000969e-02 -1.000199350528419018e-03
4.700000000000000705e-02 -9.883830789476633072e-04
4.715000000000000441e-02 -9.747275616973638535e-04
4.730000000000000177e-02 -9.591956040821969509e-04
4.745000000000001300e-02 -9.417451219633221626e-04
4.760000000000001036e-02 -9.223329252563416958e-04
4.775000000000000772e-02 -9.009236237034201622e-04
4.790000000000000507e-02 -8.774774614721536636e-04
4.805000000000000243e-02 -8.519591647200286388e-04
4.820000000000001367e-02 -8.243448100984096527e-04