-4.000000000000000083e-02 -0.000000000000000000e+00
-3.985000000000000347e-02 -0.000000000000000000e+00
-3.969999999999999918e-02 -0.000000000000000000e+00
-3.955000000000000182e-02 -0.000000000000000000e+00
-3.939999999999999752e-02 -0.000000000000000000e+00
-3.925000000000000017e-02 -0.000000000000000000e+00
-3.910000000000000281e-02 -0.000000000000000000e+00
-3.894999999999999851e-02 -0.000000000000000000e+00
-3.880000000000000115e-02 -0.000000000000000000e+00
-3.865000000000000380e-02 -0.000000000000000000e+00
-3.849999999999999950e-02 -0.000000000000000000e+00
-3.835000000000000214e-02 -0.000000000000000000e+00
-3.819999999999999785e-02 -0.000000000000000000e+00
-3.805000000000000049e-02 -0.000000000000000000e+00
-3.790000000000000313e-02 -0.000000000000000000e+00
-3.774999999999999883e-02 -0.000000000000000000e+00
-3.760000000000000148e-02 -0.000000000000000000e+00
-3.744999999999999718e-02 -0.000000000000000000e+00
-3.729999999999999982e-02 -0.000000000000000000e+00
-3.715000000000000246e-02 -0.000000000000000000e+00
-3.699999999999999817e-02 -0.000000000000000000e+00
-3.685000000000000081e-02 -0.000000000000000000e+00
-3.670000000000000345e-02 -0.000000000000000000e+00
-3.654999999999999916e-02 -0.000000000000000000e+00
-3.640000000000000180e-02 -0.000000000000000000e+00
-3.624999999999999750e-02 -0.000000000000000000e+00
-3.610000000000000014e-02 -0.000000000000000000e+00
-3.595000000000000279e-02 -0.000000000000000000e+00
-3.579999999999999849e-02 -0.000000000000000000e+00
-3.565000000000000113e-02 -0.000000000000000000e+00
-3.550000000000000377e-02 -0.000000000000000000e+00
-3.534999999999999948e-02 -0.000000000000000000e+00
-3.520000000000000212e-02 -0.000000000000000000e+00
-3.504999999999999782e-02 -0.000000000000000000e+00
-3.490000000000000047e-02 -0.000000000000000000e+00
-3.475000000000000311e-02 -0.000000000000000000e+00
-3.459999999999999881e-02 -0.000000000000000000e+00
-3.445000000000000145e-02 -0.000000000000000000e+00
-3.429999999999999716e-02 -0.000000000000000000e+00
-3.414999999999999980e-02 -0.000000000000000000e+00
-3.400000000000000244e-02 -0.000000000000000000e+00
-3.384999999999999815e-02 -0.000000000000000000e+00
-3.370000000000000079e-02 -0.000000000000000000e+00
-3.354999999999999649e-02 -0.000000000000000000e+00
-3.339999999999999913e-02 -0.000000000000000000e+00
-3.325000000000000178e-02 -0.000000000000000000e+00
-3.309999999999999748e-02 -0.000000000000000000e+00
-3.295000000000000012e-02 -0.000000000000000000e+00
-3.280000000000000276e-02 -0.000000000000000000e+00
-3.264999999999999847e-02 -0.000000000000000000e+00
-3.250000000000000111e-02 0.000000000000000000e+00
-3.235000000000000375e-02 -0.000000000000000000e+00
-3.219999999999999946e-02 -0.000000000000000000e+00
-3.205000000000000210e-02 1.401298464324817071e-45
-3.189999999999999780e-02 1.681558157189780485e-44
-3.175000000000000044e-02 -3.110882590801093897e-43
-3.160000000000000309e-02 8.758115402030106693e-43
-3.144999999999999879e-02 1.986340573180428198e-41
-3.130000000000000143e-02 -1.803597240447828804e-40
-3.115000000000000061e-02 -4.407083670301549688e-40
-3.099999999999999978e-02 1.343482991634471606e-38
-3.085000000000000242e-02 -2.745779881115120109e-38
-3.069999999999999812e-02 -6.329966946992475702e-37
-3.055000000000000077e-02 3.253344197878212100e-36
-3.039999999999999994e-02 2.122629265461449348e-35
-3.024999999999999911e-02 -1.848639468905117487e-34
-3.010000000000000175e-02 -5.328952110884179732e-34
-2.994999999999999746e-02 7.596765954671439055e-33
-2.980000000000000010e-02 1.072337007355954508e-32
-2.964999999999999927e-02 -2.518768185831790934e-31
-2.949999999999999845e-02 -2.195715536954627579e-31
-2.935000000000000109e-02 7.045700233291970390e-30
-2.920000000000000026e-02 6.643287703841640826e-30
-2.904999999999999943e-02 -1.675946163535717027e-28
-2.890000000000000208e-02 -2.512579520286011169e-28
-2.874999999999999778e-02 3.296736774952094638e-27
-2.860000000000000042e-02 8.274007663753425576e-27
-2.844999999999999959e-02 -4.947733440504648330e-26
-2.829999999999999877e-02 -2.081116880333609230e-25
-2.815000000000000141e-02 4.430478515916637076e-25
-2.800000000000000058e-02 3.767701446392325893e-24
-2.784999999999999976e-02 1.192933210245581525e-24
-2.769999999999999893e-02 -4.395568935948755858e-23
-2.754999999999999810e-02 -1.086991888578695495e-22
-2.740000000000000074e-02 2.083270452855492224e-22
-2.724999999999999992e-02 1.540425072688349382e-21
-2.709999999999999909e-02 2.093544451067345847e-21
-2.695000000000000173e-02 -6.632257814958099470e-21
-2.679999999999999744e-02 -3.325922960191811997e-20
-2.665000000000000008e-02 -5.270348314904084421e-20
-2.649999999999999925e-02 3.440670036376536198e-20
-2.634999999999999842e-02 3.760651026916808833e-19
-2.620000000000000107e-02 1.052251804337760894e-18
-2.605000000000000024e-02 2.001771912499498517e-18
-2.589999999999999941e-02 3.132441576280628695e-18
-2.575000000000000205e-02 4.473036651433069587e-18
-2.559999999999999776e-02 6.111298873867311636e-18
-2.545000000000000040e-02 8.038128429664658984e-18
-2.529999999999999957e-02 1.021097887042814038e-17
-2.514999999999999875e-02 1.269147101588989361e-17
-2.500000000000000139e-02 1.554786381019779452e-17
-2.484999999999999709e-02 1.875654207404406674e-17
-2.469999999999999973e-02 2.233724812710851336e-17
-2.454999999999999891e-02 2.638066577994532282e-17
-2.439999999999999808e-02 3.090407979863440317e-17
-2.425000000000000072e-02 3.591426313803133862e-17
-2.409999999999999989e-02 4.150418097281973883e-17
-2.394999999999999907e-02 4.772446999137764994e-17
-2.379999999999999824e-02 5.458922204262052534e-17
-2.365000000000000088e-02 6.219550511707023772e-17
-2.350000000000000006e-02 7.061824854333429054e-17
-2.334999999999999923e-02 7.988886533235499757e-17
-2.319999999999999840e-02 9.011705948569159155e-17
-2.304999999999999757e-02 1.013977383981059567e-16
-2.290000000000000022e-02 1.137861047949574318e-16
-2.274999999999999939e-02 1.274134223132908318e-16
-2.259999999999999856e-02 1.423940602533201884e-16
-2.244999999999999774e-02 1.588135557078283852e-16
-2.230000000000000038e-02 1.768330699299203537e-16
-2.214999999999999955e-02 1.965878899631403665e-16
-2.199999999999999872e-02 2.182029002276492297e-16
-2.184999999999999790e-02 2.418763196679942504e-16
-2.170000000000000054e-02 2.677698256979825931e-16
-2.154999999999999971e-02 2.960598261637697667e-16
-2.139999999999999888e-02 3.269845490817710433e-16
-2.124999999999999806e-02 3.607420148731867171e-16
-2.110000000000000070e-02 3.975736543977638655e-16
-2.094999999999999987e-02 4.377619266736321960e-16
-2.079999999999999905e-02 4.815554358708108457e-16
-2.064999999999999822e-02 5.292722958005530078e-16
-2.049999999999999739e-02 5.812454433506888257e-16
-2.035000000000000003e-02 6.377982333488326286e-16
-2.019999999999999921e-02 6.993341181756734803e-16
-2.004999999999999838e-02 7.662450623275533085e-16
-1.989999999999999755e-02 8.389528352726455512e-16
-1.975000000000000019e-02 9.179514160378770757e-16
-1.959999999999999937e-02 1.003717419474756036e-15
-1.944999999999999854e-02 1.096796387740873405e-15
-1.929999999999999771e-02 1.197777220492807736e-15
-1.915000000000000036e-02 1.307256970079254902e-15
-1.899999999999999953e-02 1.425917074506280989e-15
-1.884999999999999870e-02 1.554462159306883168e-15
-1.869999999999999787e-02 1.693637401716408409e-15
-1.855000000000000052e-02 1.844270670561679384e-15
-1.839999999999999969e-02 2.007214186866752327e-15
-1.824999999999999886e-02 2.183409110115145171e-15
-1.809999999999999803e-02 2.373849221712224025e-15
-1.794999999999999721e-02 2.579575736908401237e-15
-1.779999999999999985e-02 2.801744643918442114e-15
-1.764999999999999902e-02 3.041549623923264778e-15
-1.749999999999999820e-02 3.300265037992013324e-15
-1.734999999999999737e-02 3.579277902575816669e-15
-1.720000000000000001e-02 3.880016950498456005e-15
-1.704999999999999918e-02 4.204052792602377617e-15
-1.689999999999999836e-02 4.553021473025203186e-15
-1.674999999999999753e-02 4.928672961835960098e-15
-1.660000000000000017e-02 5.332901648221182594e-15
-1.644999999999999934e-02 5.767661213673712720e-15
-1.629999999999999852e-02 6.235063734847529071e-15
-1.614999999999999769e-02 6.737312767954913711e-15
-1.600000000000000033e-02 7.276781275797599563e-15
-1.584999999999999951e-02 7.855958688207567014e-15
-1.569999999999999868e-02 8.477510617869825349e-15
-1.554999999999999785e-02 9.144218720983157689e-15
-1.539999999999999702e-02 9.859089964510316800e-15
-1.524999999999999967e-02 1.062521008947815010e-14
-1.509999999999999884e-02 1.144593249932483736e-14
-1.494999999999999801e-02 1.232472409990349044e-14
-1.479999999999999719e-02 1.326528896629245238e-14
-1.464999999999999983e-02 1.427149041576415006e-14
-1.449999999999999900e-02 1.534747636866128778e-14
-1.434999999999999817e-02 1.649755737565244268e-14
-1.419999999999999735e-02 1.772632943750941659e-14
-1.404999999999999999e-02 1.903851391588020497e-14
-1.389999999999999916e-02 2.043919809064601717e-14
-1.374999999999999833e-02 2.193361493135499024e-14
-1.359999999999999751e-02 2.352739890117225979e-14
-1.344999999999999668e-02 2.522636572831367385e-14
-1.329999999999999932e-02 2.703667503637166569e-14
-1.314999999999999850e-02 2.896477274607484054e-14
-1.299999999999999767e-02 3.101741140407870967e-14
-1.284999999999999684e-02 3.320157733813222656e-14
-1.269999999999999948e-02 3.552463295861292558e-14
-1.254999999999999866e-02 3.799424221962756365e-14
-1.239999999999999783e-02 4.061803858209679652e-14
-1.224999999999999700e-02 4.340418405550036662e-14
-1.209999999999999964e-02 4.636156232138907707e-14
-1.194999999999999882e-02 4.950006333645506906e-14
-1.179999999999999799e-02 5.283123385383531323e-14
-1.164999999999999716e-02 5.636933113209799395e-14
-1.149999999999999981e-02 6.013144490798691399e-14
-1.134999999999999898e-02 6.413451584044715936e-14
-1.119999999999999815e-02 6.838945371383936545e-14
-1.104999999999999732e-02 7.288816766945135917e-14
-1.089999999999999650e-02 7.758779784015207293e-14
-1.074999999999999914e-02 8.239470981582022735e-14
-1.059999999999999831e-02 8.717273457985522112e-14
-1.044999999999999749e-02 9.179427508908266642e-14
-1.029999999999999666e-02 9.627406294052121005e-14
-1.014999999999999930e-02 1.010031088714141712e-13
-9.999999999999998473e-03 1.070535329762874188e-13
-9.849999999999997646e-03 1.164348836530521014e-13
-9.699999999999996819e-03 1.320445353536134347e-13
-9.549999999999999462e-03 1.569073104952523057e-13
-9.399999999999998634e-03 1.922486827935290798e-13
-9.249999999999997807e-03 2.341184429481557583e-13
-9.099999999999996980e-03 2.688441374902594827e-13
-8.949999999999999623e-03 2.686700146213583107e-13
-8.799999999999998795e-03 1.904251225020442417e-13
-8.649999999999997968e-03 -1.842975641888622285e-14
-8.500000000000000611e-03 -4.013186809780078246e-13
-8.349999999999996314e-03 -9.579687303834516499e-13
-8.199999999999998956e-03 -1.594623304929099206e-12
-8.049999999999994660e-03 -2.068530242926858165e-12
-7.899999999999997302e-03 -1.947750120911972971e-12
-7.749999999999999944e-03 -6.193569962453793210e-13
-7.599999999999995648e-03 2.615530621946637879e-12
-7.449999999999998290e-03 8.326003948788684994e-12
-7.300000000000000933e-03 1.660949502935160638e-11
-7.149999999999996636e-03 2.666104836901439512e-11
-6.999999999999999278e-03 3.635649420408171295e-11
-6.849999999999994982e-03 4.200782777186162775e-11
-6.699999999999997624e-03 3.848253660176936819e-11
-6.550000000000000266e-03 1.984648556607737646e-11
-6.399999999999995970e-03 -1.941653435255652482e-11
-6.249999999999998612e-03 -8.273899620991898018e-11
-6.099999999999994316e-03 -1.697145202150807108e-10
-5.949999999999996958e-03 -2.748279936959363567e-10
-5.799999999999999600e-03 -3.872417941863659507e-10
-5.649999999999995304e-03 -4.921462126716846797e-10
-5.499999999999997946e-03 -5.737932351479457793e-10
-5.350000000000000588e-03 -6.196474444664090697e-10
-5.199999999999996292e-03 -6.247118378155391838e-10
-5.049999999999998934e-03 -5.944964520665507735e-10
-4.899999999999994638e-03 -5.453726359405663970e-10
-4.749999999999997280e-03 -5.014610948705922056e-10
-4.599999999999999922e-03 -4.884697091256384738e-10
-4.449999999999995626e-03 -5.259188640138745541e-10
-4.299999999999998268e-03 -6.203650926295267709e-10
-4.150000000000000910e-03 -7.621565600857138634e-10
-3.999999999999996614e-03 -9.275753498627636873e-10
-3.849999999999999256e-03 -1.086376322234627878e-09
-3.699999999999994960e-03 -1.212321798504945036e-09
-3.549999999999997602e-03 -1.293562590376495791e-09
-3.400000000000000244e-03 -1.337999933070932457e-09
-3.249999999999995948e-03 -1.371560642837721389e-09
-3.099999999999998590e-03 -1.429024010235480091e-09
-2.949999999999994293e-03 -1.540525929044633813e-09
-2.799999999999996936e-03 -1.719286046863999218e-09
-2.649999999999999578e-03 -1.955692496835581551e-09
-2.499999999999995282e-03 -2.221259620682758396e-09
-2.349999999999997924e-03 -2.480710747931880178e-09
-2.200000000000000566e-03 -2.708141266793973045e-09
-2.049999999999996270e-03 -2.899557927094065235e-09
-1.899999999999998912e-03 -3.075879106972934096e-09
-1.749999999999994615e-03 -3.274550408605136909e-09
-1.599999999999997258e-03 -3.532854009336006129e-09
-1.449999999999999900e-03 -3.870759712754079374e-09
-1.299999999999995604e-03 -4.281972110220522154e-09
-1.149999999999998246e-03 -4.737152892175799934e-09
-9.999999999999939493e-04 -5.199552788326400332e-09
-8.499999999999965916e-04 -5.643933320698124589e-09
-6.999999999999992339e-04 -6.070820290915435180e-09
-5.499999999999949374e-04 -6.508443561870080885e-09
-3.999999999999975797e-04 -6.999009372066211654e-09
-2.500000000000002220e-04 -7.578499605642718961e-09
-9.999999999999592548e-05 -8.259448236458410975e-09
5.000000000000143219e-05 -9.024518021760741249e-09
2.000000000000057288e-04 -9.838487358138081618e-09
3.500000000000030864e-04 -1.066881338829261949e-08
5.000000000000004441e-04 -1.150533535110298544e-08
6.500000000000047407e-04 -1.236858793163264636e-08
8.000000000000020983e-04 -1.330097632035176503e-08
9.500000000000063949e-04 -1.434553098533797311e-08
1.100000000000003753e-03 -1.552376716063008644e-08
1.250000000000001110e-03 -1.682636252553493250e-08
1.400000000000005407e-03 -1.822101580728485715e-08
1.550000000000002764e-03 -1.967498519661603495e-08
1.700000000000000122e-03 -2.117633357556769624e-08
1.850000000000004419e-03 -2.274765620313701220e-08
2.000000000000001776e-03 -2.443249513817136176e-08
2.150000000000006073e-03 -2.627612616379337851e-08
2.300000000000003431e-03 -2.830228140737744980e-08
2.450000000000000788e-03 -3.050416808036970906e-08
2.600000000000005085e-03 -3.285100547145702876e-08
2.750000000000002442e-03 -3.531101810949621722e-08
2.899999999999999800e-03 -3.788454705500043929e-08
3.050000000000004097e-03 -4.059864977534743957e-08
3.200000000000001454e-03 -4.350323479229700752e-08
3.350000000000005751e-03 -4.664599373427336104e-08
3.500000000000003109e-03 -5.004193326385575347e-08
3.650000000000000466e-03 -5.368161737351329066e-08
3.800000000000004763e-03 -5.753349796577822417e-08
3.950000000000002121e-03 -6.158336418593535200e-08
4.100000000000006417e-03 -6.583650247193872929e-08
4.250000000000003775e-03 -7.033986548776738346e-08
4.400000000000001132e-03 -7.514336175518110394e-08
4.550000000000005429e-03 -8.029235232243081555e-08
4.700000000000002787e-03 -8.579672794439829886e-08
4.850000000000000144e-03 -9.163522918242961168e-08
5.000000000000004441e-03 -9.778602816368220374e-08
5.150000000000001799e-03 -1.042462827172130346e-07
5.300000000000006095e-03 -1.110502125811763108e-07
5.450000000000003453e-03 -1.182481810246827081e-07
5.600000000000000810e-03 -1.259045347978826612e-07
5.750000000000005107e-03 -1.340417838946450502e-07
5.900000000000002465e-03 -1.426571998308645561e-07
6.050000000000006761e-03 -1.517121290817158297e-07
6.200000000000004119e-03 -1.612218056834535673e-07
6.350000000000001477e-03 -1.712098764983238652e-07
6.500000000000005773e-03 -1.817199972720118240e-07
6.650000000000003131e-03 -1.928176516230450943e-07
6.800000000000000488e-03 -2.045348992396611720e-07
6.950000000000004785e-03 -2.168903847632464021e-07
7.100000000000002143e-03 -2.298806975886691362e-07
7.250000000000006439e-03 -2.434794623695779592e-07
7.400000000000003797e-03 -2.577212399046402425e-07
7.550000000000001155e-03 -2.726287675614003092e-07
7.700000000000005451e-03 -2.882807166315615177e-07
7.850000000000002809e-03 -3.047357495233882219e-07
8.000000000000000167e-03 -3.219970494683366269e-07
8.150000000000004463e-03 -3.400787136342842132e-07
8.300000000000001821e-03 -3.589352672861423343e-07
8.450000000000006117e-03 -3.786017259699292481e-07
8.600000000000003475e-03 -3.991372068412601948e-07
8.750000000000000833e-03 -4.206058292766101658e-07
8.900000000000005129e-03 -4.430557964951731265e-07
9.050000000000002487e-03 -4.664689186029136181e-07
9.200000000000006783e-03 -4.908415576210245490e-07
9.350000000000004141e-03 -5.162382876733317971e-07
9.500000000000001499e-03 -5.426845746114850044e-07
9.650000000000005795e-03 -5.701303962268866599e-07
9.800000000000003153e-03 -5.986230462440289557e-07
9.950000000000000511e-03 -6.282280082814395428e-07
1.010000000000000481e-02 -6.590762495761737227e-07
1.025000000000000216e-02 -6.911286618560552597e-07
1.040000000000000646e-02 -7.242833817144855857e-07
1.055000000000000382e-02 -7.584931154269725084e-07
1.070000000000000118e-02 -7.938906492199748755e-07
1.085000000000000547e-02 -8.305687515530735254e-07
1.100000000000000283e-02 -8.686074579600244761e-07
1.115000000000000713e-02 -9.079594747163355350e-07
1.130000000000000449e-02 -9.483264875598251820e-07
1.145000000000000184e-02 -9.899031283566728234e-07
1.160000000000000614e-02 -1.032865839079022408e-06
1.175000000000000350e-02 -1.077321940101683140e-06
1.190000000000000085e-02 -1.122925823437981308e-06
1.205000000000000515e-02 -1.169559254776686430e-06
1.220000000000000251e-02 -1.217478711623698473e-06
1.235000000000000681e-02 -1.266998879145830870e-06
1.250000000000000416e-02 -1.317985152127221227e-06
1.265000000000000152e-02 -1.369997335132211447e-06
1.280000000000000582e-02 -1.422871719114482403e-06
1.295000000000000318e-02 -1.476972101954743266e-06
1.310000000000000747e-02 -1.532705937279388309e-06
1.325000000000000483e-02 -1.590138708706945181e-06
1.340000000000000219e-02 -1.648277248023077846e-06
1.355000000000000648e-02 -1.706914190435782075e-06
1.370000000000000384e-02 -1.766591594787314534e-06
1.385000000000000120e-02 -1.827924279496073723e-06
1.400000000000000550e-02 -1.890744897536933422e-06
1.415000000000000285e-02 -1.954045728780329227e-06
1.430000000000000715e-02 -2.017419319599866867e-06
1.445000000000000451e-02 -2.081516868202015758e-06
1.460000000000000187e-02 -2.147193299606442451e-06
1.475000000000000616e-02 -2.213972038589417934e-06
1.490000000000000352e-02 -2.280576154589653015e-06
1.505000000000000088e-02 -2.346248948015272617e-06
1.520000000000000517e-02 -2.412343746982514858e-06
1.535000000000000253e-02 -2.479857357684522867e-06
1.550000000000000683e-02 -2.548367774579674006e-06
1.565000000000000419e-02 -2.615808625705540180e-06
1.580000000000000154e-02 -2.681685145944356918e-06
1.595000000000000584e-02 -2.747576218098402023e-06
1.610000000000000320e-02 -2.815417246893048286e-06
1.625000000000000749e-02 -2.884735295083373785e-06
1.640000000000000485e-02 -2.953122020699083805e-06
1.655000000000000221e-02 -3.020613803528249264e-06
1.670000000000000651e-02 -3.089458914473652840e-06
1.685000000000000386e-02 -3.162436769343912601e-06
1.700000000000000122e-02 -3.238950739614665508e-06
1.715000000000000552e-02 -3.315872163511812687e-06
1.730000000000000288e-02 -3.393841325305402279e-06
1.745000000000000717e-02 -3.475572157185524702e-06
1.760000000000000453e-02 -3.563603968359529972e-06
1.775000000000000189e-02 -3.656605258584022522e-06
1.790000000000000618e-02 -3.751294570975005627e-06
1.805000000000000354e-02 -3.846464096568524837e-06
1.820000000000000784e-02 -3.944922355003654957e-06
1.835000000000000520e-02 -4.048459231853485107e-06
1.850000000000000255e-02 -4.154207999818027020e-06
1.865000000000000685e-02 -4.257322871126234531e-06
1.880000000000000421e-02 -4.355737473815679550e-06
1.895000000000000157e-02 -4.452318535186350346e-06
1.910000000000000586e-02 -4.548346623778343201e-06
1.925000000000000322e-02 -4.641246050596237183e-06
1.940000000000000752e-02 -4.725996404886245728e-06
1.955000000000000487e-02 -4.802743205800652504e-06
1.970000000000000223e-02 -4.874702426604926586e-06
1.985000000000000653e-02 -4.946399712935090065e-06
2.000000000000000389e-02 -5.016176146455109119e-06
2.015000000000000818e-02 -5.082969437353312969e-06
2.030000000000000554e-02 -5.148802301846444607e-06
2.045000000000000290e-02 -5.219131708145141602e-06
2.060000000000000719e-02 -5.298395990394055843e-06
2.075000000000000455e-02 -5.387148121371865273e-06
2.090000000000000191e-02 -5.483787390403449535e-06
2.105000000000000621e-02 -5.590409273281693459e-06
2.120000000000000356e-02 -5.710404366254806519e-06
2.135000000000000786e-02 -5.846042768098413944e-06
2.150000000000000522e-02 -5.995170795358717442e-06
2.165000000000000258e-02 -6.154776201583445072e-06
2.180000000000000687e-02 -6.323534762486815453e-06
2.195000000000000423e-02 -6.503134500235319138e-06
2.210000000000000159e-02 -6.693546310998499393e-06
2.225000000000000588e-02 -6.893184036016464233e-06
2.240000000000000324e-02 -7.102004019543528557e-06
2.255000000000000754e-02 -7.321010343730449677e-06
2.270000000000000490e-02 -7.552123861387372017e-06
2.285000000000000225e-02 -7.799244485795497894e-06
2.299999999999999961e-02 -8.066563168540596962e-06
2.315000000000001085e-02 -8.357630576938390732e-06
2.330000000000000820e-02 -8.676521247252821922e-06
2.345000000000000556e-02 -9.026640327647328377e-06
2.360000000000000292e-02 -9.412906365469098091e-06
2.375000000000000028e-02 -9.839568519964814186e-06
2.390000000000001151e-02 -1.031087595038115978e-05
2.405000000000000887e-02 -1.082796370610594749e-05
2.420000000000000623e-02 -1.139007508754730225e-05
2.435000000000000359e-02 -1.199991675093770027e-05
2.450000000000000094e-02 -1.266103936359286308e-05
2.464999999999999830e-02 -1.337521825917065144e-05
2.480000000000000954e-02 -1.414600410498678684e-05
2.495000000000000689e-02 -1.497223274782299995e-05
2.510000000000000425e-02 -1.585957943461835384e-05
2.525000000000000161e-02 -1.681505818851292133e-05
2.539999999999999897e-02 -1.784763298928737640e-05
2.555000000000001020e-02 -1.896318281069397926e-05
2.570000000000000756e-02 -2.016749931499361992e-05
2.585000000000000492e-02 -2.146820770576596260e-05
2.600000000000000228e-02 -2.287603274453431368e-05
2.614999999999999963e-02 -2.440153912175446749e-05
2.630000000000001087e-02 -2.604843757580965757e-05
2.645000000000000823e-02 -2.782193769235163927e-05
2.660000000000000558e-02 -2.972786023747175932e-05
2.675000000000000294e-02 -3.177356848027557135e-05
2.690000000000000030e-02 -3.396878310013562441e-05
2.705000000000001154e-02 -3.631704021245241165e-05
2.720000000000000889e-02 -3.882587770931422710e-05
2.735000000000000625e-02 -4.150447784923017025e-05
2.750000000000000361e-02 -4.436346353031694889e-05
2.765000000000000097e-02 -4.741529119201004505e-05
2.780000000000001220e-02 -5.067282472737133503e-05
2.795000000000000956e-02 -5.414996121544390917e-05
2.810000000000000692e-02 -5.786013207398355007e-05
2.825000000000000427e-02 -6.181471690069884062e-05
2.840000000000000163e-02 -6.602905341424047947e-05
2.854999999999999899e-02 -7.051899592624977231e-05
2.870000000000001023e-02 -7.529618596890941262e-05
2.885000000000000758e-02 -8.037251245696097612e-05
2.900000000000000494e-02 -8.575864194426685572e-05
2.915000000000000230e-02 -9.146654338110238314e-05
2.929999999999999966e-02 -9.751194738782942295e-05
2.945000000000001089e-02 -1.039112830767408013e-04
2.960000000000000825e-02 -1.106795461964793503e-04
2.975000000000000561e-02 -1.178304592031054199e-04
2.990000000000000296e-02 -1.253828813787549734e-04
3.005000000000000032e-02 -1.333590771537274122e-04
3.020000000000001156e-02 -1.417801249772310257e-04
3.035000000000000892e-02 -1.506648695794865489e-04
3.050000000000000627e-02 -1.600318064447492361e-04
3.065000000000000363e-02 -1.698996638879179955e-04
3.080000000000000099e-02 -1.802886108634993434e-04
3.095000000000001222e-02 -1.912163425004109740e-04
3.110000000000000958e-02 -2.027024165727198124e-04
3.125000000000000694e-02 -2.147630730178207159e-04
3.140000000000000430e-02 -2.274139988003298640e-04
3.155000000000000165e-02 -2.406755957053974271e-04
3.169999999999999901e-02 -2.545688766986131668e-04
3.185000000000001025e-02 -2.691137779038399458e-04
3.200000000000000761e-02 -2.843328402377665043e-04
3.215000000000000496e-02 -3.002466983161866665e-04
3.230000000000000232e-02 -3.168776747770607471e-04
3.244999999999999968e-02 -3.342471027281135321e-04
3.260000000000001091e-02 -3.523777122609317303e-04
3.275000000000000827e-02 -3.712909820023924112e-04
3.290000000000000563e-02 -3.910028026439249516e-04
3.305000000000000299e-02 -4.115286865271627903e-04
3.320000000000000034e-02 -4.328836803324520588e-04
3.335000000000001158e-02 -4.550859739538282156e-04
3.350000000000000894e-02 -4.781513998750597239e-04
3.365000000000000629e-02 -5.020939861424267292e-04
3.380000000000000365e-02 -5.269254907034337521e-04
3.395000000000000101e-02 -5.526602617464959621e-04
3.410000000000001225e-02 -5.793144227936863899e-04
3.425000000000000960e-02 -6.069036899134516716e-04
3.440000000000000696e-02 -6.354393553920090199e-04
3.455000000000000432e-02 -6.649300339631736279e-04
3.470000000000000168e-02 -6.953842239454388618e-04
3.485000000000001291e-02 -7.268077461048960686e-04
3.500000000000001027e-02 -7.592040929012000561e-04
3.515000000000000763e-02 -7.925731479190289974e-04
3.530000000000000498e-02 -8.269108366221189499e-04
3.545000000000000234e-02 -8.622130844742059708e-04
3.559999999999999970e-02 -8.984724991023540497e-04
3.575000000000001094e-02 -9.356820955872535706e-04
3.590000000000000829e-02 -9.738351218402385712e-04
3.605000000000000565e-02 -1.012920634821057320e-03
3.620000000000000301e-02 -1.052924082614481449e-03
3.635000000000000037e-02 -1.093828119337558746e-03
3.650000000000001160e-02 -1.135611790232360363e-03
3.665000000000000896e-02 -1.178253442049026489e-03
3.680000000000000632e-02 -1.221725717186927795e-03
3.695000000000000367e-02 -1.265996485017240047e-03
3.710000000000000103e-02 -1.311026746407151222e-03
3.725000000000001227e-02 -1.356776454485952854e-03
3.740000000000000963e-02 -1.403201720677316189e-03
3.755000000000000698e-02 -1.450256677344441414e-03
3.770000000000000434e-02 -1.497889403253793716e-03
3.785000000000000170e-02 -1.546042156405746937e-03
3.800000000000001293e-02 -1.594655448570847511e-03
3.815000000000001029e-02 -1.643671188503503799e-03
3.830000000000000765e-02 -1.693024882115423679e-03
3.845000000000000501e-02 -1.742646447382867336e-03
3.860000000000000236e-02 -1.792461262084543705e-03
3.874999999999999972e-02 -1.842386787757277489e-03
3.890000000000001096e-02 -1.892335712909698486e-03
3.905000000000000832e-02 -1.942214206792414188e-03
3.920000000000000567e-02 -1.991926692426204681e-03
3.935000000000000303e-02 -2.041372703388333321e-03
3.950000000000000039e-02 -2.090445719659328461e-03
3.965000000000001162e-02 -2.139038173481822014e-03
3.980000000000000898e-02 -2.187039004638791084e-03
3.995000000000000634e-02 -2.234332961961627007e-03
4.010000000000000370e-02 -2.280801068991422653e-03
4.025000000000000105e-02 -2.326318295672535896e-03
4.040000000000001229e-02 -2.370753791183233261e-03
4.055000000000000965e-02 -2.413969486951828003e-03
4.070000000000000701e-02 -2.455836627632379532e-03
4.085000000000000436e-02 -2.496212488040328026e-03
4.100000000000000172e-02 -2.534952247515320778e-03
4.115000000000001296e-02 -2.571907592937350273e-03
4.130000000000001031e-02 -2.606920897960662842e-03
4.145000000000000767e-02 -2.639839658513665199e-03
4.160000000000000503e-02 -2.670508110895752907e-03
4.175000000000000239e-02 -2.698773285374045372e-03
4.190000000000001362e-02 -2.724470337852835655e-03
4.205000000000001098e-02 -2.747447695583105087e-03
4.220000000000000834e-02 -2.767541678622364998e-03
4.235000000000000570e-02 -2.784597221761941910e-03
4.250000000000000305e-02 -2.798452973365783691e-03
4.265000000000000041e-02 -2.808944322168827057e-03
4.280000000000001165e-02 -2.815912012010812759e-03
4.295000000000000900e-02 -2.819180721417069435e-03
4.310000000000000636e-02 -2.818594686686992645e-03
4.325000000000000372e-02 -2.813995350152254105e-03
4.340000000000000108e-02 -2.805224619805812836e-03
4.355000000000001231e-02 -2.792146522551774979e-03
4.370000000000000967e-02 -2.774608321487903595e-03
4.385000000000000703e-02 -2.752468688413500786e-03
4.400000000000000439e-02 -2.725582802668213844e-03
4.415000000000000174e-02 -2.693826099857687950e-03
4.430000000000001298e-02 -2.657068893313407898e-03
4.445000000000001034e-02 -2.615182194858789444e-03
4.460000000000000769e-02 -2.568051684647798538e-03
4.475000000000000505e-02 -2.515570027753710747e-03
4.490000000000000241e-02 -2.457650378346443176e-03
4.505000000000001364e-02 -2.394187031313776970e-03
4.520000000000001100e-02 -2.325092907994985580e-03
4.535000000000000836e-02 -2.250310033559799194e-03
4.550000000000000572e-02 -2.169765299186110497e-03
4.565000000000000308e-02 -2.083393046632409096e-03
4.580000000000000043e-02 -1.991172553971409798e-03
4.595000000000001167e-02 -1.893079606816172600e-03
4.610000000000000903e-02 -1.789099071174860001e-03
4.625000000000000638e-02 -1.679214881733059883e-03
4.640000000000000374e-02 -1.563450437970459461e-03
4.655000000000000110e-02 -1.441809115931391716e-03
4.670000000000001233e-02 -1.314336434006690979e-03
4.685000000000000969e-02 -1.181071740575134754e-03
4.700000000000000705e-02 -1.042083487845957279e-03
4.715000000000000441e-02 -8.974494994617998600e-04
4.730000000000000177e-02 -7.472675060853362083e-04
4.745000000000001300e-02 -5.916452500969171524e-04
4.760000000000001036e-02 -4.307115450501441956e-04