 -0.12000000000000000          0.0000000000000000
 -0.11889999999999999          0.0000000000000000
 -0.11780000000000000          0.0000000000000000
 -0.11670000000000000         -6.2938619875916996E-040
 -0.11559999999999999         -1.6396099769230323E-014
 -0.11449999999999999          2.1678957863894774E-014
 -0.11340000000000000          1.2450511541889364E-013
 -0.11230000000000000         -1.4876010037516429E-013
 -0.11119999999999999         -7.5565866498178424E-013
 -0.11009999999999999          1.9396132920276865E-013
 -0.10900000000000000          3.1764744914258847E-012
 -0.10790000000000000          2.0208446461361662E-012
 -0.10679999999999999         -8.5105178113109581E-012
 -0.10569999999999999         -1.4544765565560613E-011
 -0.10460000000000000          8.3655582461261702E-012
 -0.10349999999999999          4.6377131301955643E-011
 -0.10239999999999999          3.1755837542890575E-011
 -0.10130000000000000         -6.6460295600201391E-011
 -0.10020000000000000         -1.4168191619923221E-010
  -9.9099999999999994E-002    -3.8163659732415312E-011
  -9.7999999999999990E-002     2.0275009449122194E-010
  -9.6899999999999986E-002     2.9167251947015416E-010
  -9.5799999999999996E-002     3.1752697693399057E-011
  -9.4699999999999993E-002    -3.4510524993258684E-010
  -9.3599999999999989E-002    -3.9535849594152239E-010
  -9.2499999999999999E-002    -5.2329428984476678E-011
  -9.1399999999999995E-002     2.5030388872693266E-010
  -9.0299999999999991E-002     1.9362134118239283E-010
  -8.9200000000000002E-002     5.4074765498679511E-011
  -8.8099999999999984E-002     2.4755406058396545E-010
  -8.6999999999999994E-002     5.6479948495891108E-010
  -8.5899999999999990E-002     3.5877012471985381E-010
  -8.4799999999999986E-002    -4.5047154895172525E-010
  -8.3699999999999997E-002    -1.0953522533441173E-009
  -8.2599999999999993E-002    -9.6011154582242852E-010
  -8.1499999999999989E-002    -3.4733219078653121E-010
  -8.0399999999999999E-002     2.2505865227007149E-010
  -7.9299999999999995E-002     9.2579061083952752E-010
  -7.8199999999999992E-002     1.8414285651857654E-009
  -7.7100000000000002E-002     1.5221436333590077E-009
  -7.5999999999999984E-002    -2.3158168716008731E-009
  -7.4899999999999994E-002    -1.0041562248375158E-008
  -7.3799999999999991E-002    -1.9254565941650981E-008
  -7.2699999999999987E-002    -2.7822297354873626E-008
  -7.1599999999999997E-002    -3.6855041685157630E-008
  -7.0499999999999993E-002    -4.8887773829164871E-008
  -6.9399999999999989E-002    -6.3468498012753116E-008
  -6.8300000000000000E-002    -7.7073003978966881E-008
  -6.7199999999999996E-002    -8.8545021981190075E-008
  -6.6099999999999992E-002    -1.0255892846089409E-007
  -6.5000000000000002E-002    -1.2546377092803596E-007
  -6.3899999999999985E-002    -1.5878863734997140E-007
  -6.2799999999999995E-002    -1.9951409058194258E-007
  -6.1699999999999991E-002    -2.4643497908982681E-007
  -6.0599999999999994E-002    -3.0301103493002302E-007
  -5.9499999999999990E-002    -3.7302115174497885E-007
  -5.8399999999999994E-002    -4.5698180883846362E-007
  -5.7299999999999990E-002    -5.5577277180418605E-007
  -5.6199999999999986E-002    -6.7517669322114671E-007
  -5.5099999999999996E-002    -8.2239989751542453E-007
  -5.3999999999999992E-002    -9.9918952400912531E-007
  -5.2899999999999989E-002    -1.2042103207932087E-006
  -5.1799999999999985E-002    -1.4437691788771190E-006
  -5.0699999999999995E-002    -1.7342935052511166E-006
  -4.9599999999999991E-002    -2.0892623524559895E-006
  -4.8499999999999988E-002    -2.5079013994400157E-006
  -4.7399999999999998E-002    -2.9845668905181810E-006
  -4.6299999999999994E-002    -3.5290668165544048E-006
  -4.5199999999999990E-002    -4.1695620893733576E-006
  -4.4099999999999986E-002    -4.9321265578328166E-006
  -4.2999999999999997E-002    -5.8245677792001516E-006
  -4.1899999999999993E-002    -6.8469475991150830E-006
  -4.0799999999999989E-002    -8.0130630522035062E-006
  -3.9699999999999985E-002    -9.3524031399283558E-006
  -3.8599999999999995E-002    -1.0892653335758951E-005
  -3.7499999999999992E-002    -1.2651183169509750E-005
  -3.6399999999999988E-002    -1.4646851923316717E-005
  -3.5299999999999984E-002    -1.6909105397644453E-005
  -3.4199999999999994E-002    -1.9466664525680244E-005
  -3.3099999999999991E-002    -2.2335389076033607E-005
  -3.1999999999999987E-002    -2.5531486244290136E-005
  -3.0899999999999997E-002    -2.9094009732943960E-005
  -2.9799999999999993E-002    -3.3077027183026075E-005
  -2.8699999999999989E-002    -3.7513607821892947E-005
  -2.7599999999999986E-002    -4.2401065002195537E-005
  -2.6499999999999996E-002    -4.7735218686284497E-005
  -2.5399999999999992E-002    -5.3549072617897764E-005
  -2.4299999999999988E-002    -5.9899677580688149E-005
  -2.3199999999999985E-002    -6.6816835897043347E-005
  -2.2099999999999995E-002    -7.4284471338614821E-005
  -2.0999999999999991E-002    -8.2278209447395056E-005
  -1.9899999999999987E-002    -9.0801295300479978E-005
  -1.8799999999999983E-002    -9.9867953395005316E-005
  -1.7699999999999994E-002    -1.0946334805339575E-004
  -1.6599999999999990E-002    -1.1954087676713243E-004
  -1.5499999999999986E-002    -1.3005678192712367E-004
  -1.4399999999999996E-002    -1.4097704843152314E-004
  -1.3299999999999992E-002    -1.5224044909700751E-004
  -1.2199999999999989E-002    -1.6373753896914423E-004
  -1.1099999999999985E-002    -1.7535005463287234E-004
  -9.9999999999999950E-003    -1.8699340580496937E-004
  -8.8999999999999913E-003    -1.9859024905599654E-004
  -7.7999999999999875E-003    -2.1000497508794069E-004
  -6.6999999999999837E-003    -2.2102931689005345E-004
  -5.5999999999999939E-003    -2.3145796149037778E-004
  -4.4999999999999901E-003    -2.4113853578455746E-004
  -3.3999999999999864E-003    -2.4993214174173772E-004
  -2.2999999999999826E-003    -2.5763659505173564E-004
  -1.1999999999999927E-003    -2.6399089256301522E-004
  -9.9999999999988987E-005    -2.6875711046159267E-004
   1.0000000000000148E-003    -2.7174988645128906E-004
   2.1000000000000185E-003    -2.7278164634481072E-004
   3.2000000000000084E-003    -2.7161225443705916E-004
   4.3000000000000121E-003    -2.6799351326189935E-004
   5.4000000000000159E-003    -2.6174745289608836E-004
   6.5000000000000058E-003    -2.5275361258536577E-004
   7.6000000000000234E-003    -2.4086931080091745E-004
   8.7000000000000133E-003    -2.2590222943108529E-004
   9.8000000000000032E-003    -2.0770329865626991E-004
   1.0900000000000021E-002    -1.8624561198521405E-004
   1.2000000000000011E-002    -1.6157136997207999E-004
   1.3100000000000001E-002    -1.3369612861424685E-004
   1.4200000000000018E-002    -1.0261101851938292E-004
   1.5300000000000008E-002    -6.8390480009838939E-005
   1.6400000000000026E-002    -3.1235824280884117E-005
   1.7500000000000016E-002     8.5995779954828322E-006
   1.8600000000000005E-002     5.0887105317087844E-005
   1.9700000000000023E-002     9.5386654720641673E-005
   2.0800000000000013E-002     1.4173031377140433E-004
   2.1900000000000003E-002     1.8944643670693040E-004
   2.3000000000000020E-002     2.3807416437193751E-004
   2.4100000000000010E-002     2.8721636044792831E-004
   2.5200000000000000E-002     3.3643146161921322E-004
   2.6300000000000018E-002     3.8513651816174388E-004
   2.7400000000000008E-002     4.3267596629448235E-004
   2.8500000000000025E-002     4.7848391113802791E-004
   2.9600000000000015E-002     5.2210048306733370E-004
   3.0700000000000005E-002     5.6303042219951749E-004
   3.1800000000000023E-002     6.0066749574616551E-004
   3.2900000000000013E-002     6.3440785743296146E-004
   3.4000000000000002E-002     6.6379568306729198E-004
   3.5100000000000020E-002     6.8848638329654932E-004
   3.6200000000000010E-002     7.0810352917760611E-004
   3.7300000000000028E-002     7.2223035385832191E-004
   3.8400000000000017E-002     7.3055928805842996E-004
   3.9500000000000007E-002     7.3297560447826982E-004
   4.0600000000000025E-002     7.2944170096889138E-004
   4.1700000000000015E-002     7.1986491093412042E-004
   4.2800000000000005E-002     7.0416927337646484E-004
   4.3900000000000022E-002     6.8246619775891304E-004
   4.5000000000000012E-002     6.5506622195243835E-004
   4.6100000000000002E-002     6.2231143238022923E-004
   4.7200000000000020E-002     5.8445893228054047E-004
   4.8300000000000010E-002     5.4180878214538097E-004
   4.9400000000000027E-002     4.9486756324768066E-004
   5.0500000000000017E-002     4.4427826651372015E-004
   5.1600000000000007E-002     3.9062928408384323E-004
   5.2700000000000025E-002     3.3441354753449559E-004
   5.3800000000000014E-002     2.7619439060799778E-004
   5.4900000000000004E-002     2.1671013382729143E-004
   5.6000000000000022E-002     1.5672788140363991E-004
   5.7100000000000012E-002     9.6846088126767427E-005
   5.8200000000000002E-002     3.7557165342150256E-005
   5.9300000000000019E-002    -2.0554229195113294E-005
   6.0400000000000009E-002    -7.6769552833866328E-005
   6.1500000000000027E-002    -1.3045193918514997E-004
   6.2600000000000017E-002    -1.8119874584954232E-004
   6.3700000000000007E-002    -2.2871613327879459E-004
   6.4800000000000024E-002    -2.7260094066150486E-004
   6.5900000000000014E-002    -3.1239463714882731E-004
   6.7000000000000004E-002    -3.4780602436512709E-004
   6.8100000000000022E-002    -3.7876691203564405E-004
   6.9200000000000012E-002    -4.0524196811020374E-004
   7.0300000000000029E-002    -4.2707924148999155E-004
   7.1400000000000019E-002    -4.4415879528969526E-004
   7.2500000000000009E-002    -4.5659526949748397E-004
   7.3600000000000027E-002    -4.6466753701679409E-004
   7.4700000000000016E-002    -4.6857129200361669E-004
   7.5800000000000006E-002    -4.6836285036988556E-004
   7.6900000000000024E-002    -4.6418441343121231E-004
   7.8000000000000014E-002    -4.5642702025361359E-004
   7.9100000000000004E-002    -4.4557405635714531E-004
   8.0200000000000021E-002    -4.3194342288188636E-004
   8.1300000000000011E-002    -4.1571323527023196E-004
   8.2400000000000029E-002    -3.9717412437312305E-004
   8.3500000000000019E-002    -3.7681337562389672E-004
   8.4600000000000009E-002    -3.5509848385117948E-004
   8.5700000000000026E-002    -3.3229449763894081E-004
   8.6800000000000016E-002    -3.0859050457365811E-004
   8.7900000000000006E-002    -2.8432733961381018E-004
   8.9000000000000024E-002    -2.5995756732299924E-004
   9.0100000000000013E-002    -2.3579022672493011E-004
   9.1200000000000003E-002    -2.1191639825701714E-004
   9.2300000000000021E-002    -1.8843803263735026E-004
   9.3400000000000011E-002    -1.6565136320423335E-004
   9.4500000000000028E-002    -1.4389686111826450E-004
   9.5600000000000018E-002    -1.2329591845627874E-004
   9.6700000000000008E-002    -1.0377553553553298E-004
   9.7800000000000026E-002    -8.5345207480713725E-005
   9.8900000000000016E-002    -6.8202643888071179E-005
  0.10000000000000001         -5.2519466407829896E-005
  0.10110000000000002         -3.8238857086980715E-005
  0.10220000000000001         -2.5199171432177536E-005
  0.10330000000000003         -1.3390375897870399E-005
  0.10440000000000002         -2.9422442366922041E-006
  0.10550000000000001          6.1324276430241298E-006
  0.10660000000000003          1.4034259038453456E-005
  0.10770000000000002          2.0954321371391416E-005
  0.10880000000000001          2.6871432055486366E-005
  0.10990000000000003          3.1682535336585715E-005
  0.11100000000000002          3.5469220165396109E-005
  0.11210000000000001          3.8491172745125368E-005
  0.11320000000000002          4.0914277633419260E-005
  0.11430000000000001          4.2682535422500223E-005
  0.11540000000000003          4.3724321585614234E-005
  0.11650000000000002          4.4172466004965827E-005
  0.11760000000000001          4.4259853893890977E-005
  0.11870000000000003          4.4061791413696483E-005
  0.11980000000000002          4.3482621549628675E-005
  0.12090000000000001          4.2505438614170998E-005
  0.12200000000000003          4.1306935600005090E-005
  0.12310000000000001          4.0061702748062089E-005
  0.12420000000000003          3.8737482100259513E-005
  0.12530000000000002          3.7203630199655890E-005
  0.12640000000000001          3.5488072171574458E-005
  0.12750000000000003          3.3786913263611495E-005
  0.12860000000000002          3.2210420613409951E-005
  0.12970000000000001          3.0653194698970765E-005
  0.13080000000000003          2.8986460165469907E-005
  0.13190000000000002          2.7275867978460155E-005
  0.13300000000000001          2.5696934244479053E-005
  0.13410000000000000          2.4282084268634208E-005
  0.13520000000000004          2.2890215404913761E-005
  0.13630000000000003          2.1440175260067917E-005
  0.13740000000000002          2.0042658434249461E-005
  0.13850000000000001          1.8830758563126437E-005
  0.13960000000000000          1.7755046428646892E-005
  0.14070000000000005          1.6660607798257843E-005
  0.14180000000000004          1.5524616173934191E-005
  0.14290000000000003          1.4489051864075009E-005
  0.14400000000000002          1.3640106772072613E-005
  0.14510000000000001          1.2875812899437733E-005
  0.14620000000000000          1.2061822417308576E-005
  0.14730000000000004          1.1231676580791827E-005
  0.14840000000000003          1.0525172001507599E-005
  0.14950000000000002          9.9658300314331427E-006
  0.15060000000000001          9.4233073468785733E-006
  0.15170000000000000          8.8142705862992443E-006
  0.15280000000000005          8.2269443737459369E-006
  0.15390000000000004          7.7786962719983421E-006
  0.15500000000000003          7.4285158007114660E-006
  0.15610000000000002          7.0350442911149003E-006
  0.15720000000000001          6.5687695496308152E-006
  0.15830000000000000          6.1536416069429833E-006
  0.15940000000000004          5.8753357734531164E-006
  0.16050000000000003          5.6518242672609631E-006
  0.16160000000000002          5.3580674830300268E-006
  0.16270000000000001          5.0098369683837518E-006
  0.16380000000000000          4.7291155169659760E-006
  0.16490000000000005          4.5534438868344296E-006
  0.16600000000000004          4.3838813326146919E-006
  0.16710000000000003          4.1426283132750541E-006
  0.16820000000000002          3.8897196645848453E-006
  0.16930000000000001          3.7218899251456605E-006
  0.17040000000000000          3.6179619655740680E-006
  0.17150000000000004          3.4718671031441772E-006
  0.17260000000000003          3.2582061066932511E-006
  0.17370000000000002          3.0715675620740512E-006
  0.17480000000000001          2.9797540719300741E-006
  0.17590000000000000          2.9190123314037919E-006
  0.17700000000000005          2.7907487947231857E-006
  0.17810000000000004          2.6095069642906310E-006
  0.17920000000000003          2.4772261895122938E-006
  0.18030000000000002          2.4280475372506771E-006
  0.18140000000000001          2.3807156139810104E-006
  0.18250000000000000          2.2648077901976649E-006
  0.18360000000000004          2.1235521217022324E-006
  0.18470000000000003          2.0409809167176718E-006
  0.18580000000000002          2.0129991753492504E-006
  0.18690000000000001          1.9595488538470818E-006
  0.18800000000000000          1.8507594177208375E-006
  0.18910000000000005          1.7496100781499990E-006
  0.19020000000000004          1.7107129224314122E-006
  0.19130000000000003          1.6963812186077121E-006
  0.19240000000000002          1.6374150391129660E-006
  0.19350000000000001          1.5393948160635773E-006
  0.19460000000000005          1.4711146150148124E-006
  0.19570000000000004          1.4576439753000159E-006
  0.19680000000000003          1.4446252407651627E-006
  0.19790000000000002          1.3844419299857691E-006
  0.19900000000000001          1.3079049949737964E-006
  0.20010000000000000          1.2738537407130934E-006
  0.20120000000000005          1.2794130270776805E-006
  0.20230000000000004          1.2681916814472061E-006
  0.20340000000000003          1.2185083733129431E-006
  0.20450000000000002          1.1742497463274049E-006
  0.20560000000000000          1.1748118140531005E-006
  0.20670000000000005          1.1961393511228380E-006
  0.20780000000000004          1.1911811270692851E-006
  0.20890000000000003          1.1634617749223253E-006
