 -0.12000000000000000          0.0000000000000000
 -0.11889999999999999          0.0000000000000000
 -0.11780000000000000          0.0000000000000000
 -0.11670000000000000          0.0000000000000000
 -0.11559999999999999          0.0000000000000000
 -0.11449999999999999          0.0000000000000000
 -0.11340000000000000          0.0000000000000000
 -0.11230000000000000          0.0000000000000000
 -0.11119999999999999         -4.1322780891334668E-023
 -0.11009999999999999          2.1174032651558295E-022
 -0.10900000000000000          3.3840620745398279E-022
 -0.10790000000000000         -3.1919966836851515E-021
 -0.10679999999999999         -2.4595783344705962E-021
 -0.10569999999999999          2.7823357276563346E-020
 -0.10460000000000000          2.6122022855539363E-020
 -0.10349999999999999         -1.7167829883156918E-019
 -0.10239999999999999         -2.5715551149292207E-019
 -0.10130000000000000          7.4125453808709113E-019
 -0.10020000000000000          1.8589513215263990E-018
  -9.9099999999999994E-002    -1.7697977951054337E-018
  -9.7999999999999990E-002    -9.5481218224618344E-018
  -9.6899999999999986E-002    -2.3307643895786828E-018
  -9.5799999999999996E-002     3.3285129118035644E-017
  -9.4699999999999993E-002     4.3579143687074307E-017
  -9.3599999999999989E-002    -6.3014202165260922E-017
  -9.2499999999999999E-002    -2.0800592056190794E-016
  -9.1399999999999995E-002    -5.0404012397902326E-017
  -9.0299999999999991E-002     5.3073009244233686E-016
  -8.9200000000000002E-002     7.6570534352147471E-016
  -8.8099999999999984E-002    -4.3524123603194220E-016
  -8.6999999999999994E-002    -2.3900184454005982E-015
  -8.5899999999999990E-002    -1.9493910592059639E-015
  -8.4799999999999986E-002     2.7732824310665663E-015
  -8.3699999999999997E-002     7.5284796571730567E-015
  -8.2599999999999993E-002     4.3198362672614097E-015
  -8.1499999999999989E-002    -7.9972615715014767E-015
  -8.0399999999999999E-002    -1.8157054161517701E-014
  -7.9299999999999995E-002    -1.3027942711175272E-014
  -7.8199999999999992E-002     7.5585840551514218E-015
  -7.7100000000000002E-002     3.2724196345323281E-014
  -7.5999999999999984E-002     5.1969760688896222E-014
  -7.4899999999999994E-002     4.7131721946482366E-014
  -7.3799999999999991E-002    -2.2096063992177103E-014
  -7.2699999999999987E-002    -1.7327805856837131E-013
  -7.1599999999999997E-002    -2.9815117930966084E-013
  -7.0499999999999993E-002    -1.6148351102487912E-013
  -6.9399999999999989E-002     3.5283855373026418E-013
  -6.8300000000000000E-002     9.3191014800819705E-013
  -6.7199999999999996E-002     9.1752029151431769E-013
  -6.6099999999999992E-002    -7.2035944104296284E-014
  -6.5000000000000002E-002    -1.5639343119155935E-012
  -6.3899999999999985E-002    -2.4554785288399827E-012
  -6.2799999999999995E-002    -1.9365468430232458E-012
  -6.1699999999999991E-002    -9.0352692775491628E-014
  -6.0599999999999994E-002     2.4414105719711143E-012
  -5.9499999999999990E-002     4.9988025871416930E-012
  -5.8399999999999994E-002     6.6478606473852064E-012
  -5.7299999999999990E-002     5.6404915460550598E-012
  -5.6199999999999986E-002     1.9967811041785022E-013
  -5.5099999999999996E-002    -9.2706623627814011E-012
  -5.3999999999999992E-002    -1.8935289100574515E-011
  -5.2899999999999989E-002    -2.3220635483878205E-011
  -5.1799999999999985E-002    -1.7981508643183375E-011
  -5.0699999999999995E-002    -1.9798390357705919E-012
  -4.9599999999999991E-002     2.3476725771742757E-011
  -4.8499999999999988E-002     5.3602199068247813E-011
  -4.7399999999999998E-002     7.7266068543302424E-011
  -4.6299999999999994E-002     7.7324147085278128E-011
  -4.5199999999999990E-002     3.8913559874398373E-011
  -4.4099999999999986E-002    -3.8352668263463841E-011
  -4.2999999999999997E-002    -1.3492901240752531E-010
  -4.1899999999999993E-002    -2.1769233637947139E-010
  -4.0799999999999989E-002    -2.5185564744845124E-010
  -3.9699999999999985E-002    -2.1002599659425414E-010
  -3.8599999999999995E-002    -7.8455006380373504E-011
  -3.7499999999999992E-002     1.3511906871155333E-010
  -3.6399999999999988E-002     3.9504621796027095E-010
  -3.5299999999999984E-002     6.4197458460313328E-010
  -3.4199999999999994E-002     8.0890211195949746E-010
  -3.3099999999999991E-002     8.3885021151530736E-010
  -3.1999999999999987E-002     6.9849437345226306E-010
  -3.0899999999999997E-002     3.9552386366104031E-010
  -2.9799999999999993E-002     1.6697146052943590E-012
  -2.8699999999999989E-002    -3.4262925829864344E-010
  -2.7599999999999986E-002    -4.7086179399968842E-010
  -2.6499999999999996E-002    -2.6797658536636959E-010
  -2.5399999999999992E-002     2.7370447575059131E-010
  -2.4299999999999988E-002     1.0588517840304235E-009
  -2.3199999999999985E-002     1.9248049820674851E-009
  -2.2099999999999995E-002     2.6511066675283246E-009
  -2.0999999999999991E-002     2.9409528146118191E-009
  -1.9899999999999987E-002     2.4368265183483118E-009
  -1.8799999999999983E-002     8.0756923370728373E-010
  -1.7699999999999994E-002    -2.1462263077864918E-009
  -1.6599999999999990E-002    -6.4552070355716751E-009
  -1.5499999999999986E-002    -1.2028877449665742E-008
  -1.4399999999999996E-002    -1.8728679052060215E-008
  -1.3299999999999992E-002    -2.6424300969551950E-008
  -1.2199999999999989E-002    -3.5052774904897888E-008
  -1.1099999999999985E-002    -4.4698023060618652E-008
  -9.9999999999999950E-003    -5.5652979114029222E-008
  -8.8999999999999913E-003    -6.8428249733187840E-008
  -7.7999999999999875E-003    -8.3746627410619112E-008
  -6.6999999999999837E-003    -1.0258062133061685E-007
  -5.5999999999999939E-003    -1.2618826872312638E-007
  -4.4999999999999901E-003    -1.5604405234626029E-007
  -3.3999999999999864E-003    -1.9367850256912789E-007
  -2.2999999999999826E-003    -2.4060511805146234E-007
  -1.1999999999999927E-003    -2.9845267590644653E-007
  -9.9999999999988987E-005    -3.6916549106535967E-007
   1.0000000000000148E-003    -4.5503426804316405E-007
   2.1000000000000185E-003    -5.5858492942206794E-007
   3.2000000000000084E-003    -6.8262301056165597E-007
   4.3000000000000121E-003    -8.3059291000608937E-007
   5.4000000000000159E-003    -1.0069533118439722E-006
   6.5000000000000058E-003    -1.2172112064945395E-006
   7.6000000000000234E-003    -1.4676033970317803E-006
   8.7000000000000133E-003    -1.7648856101004640E-006
   9.8000000000000032E-003    -2.1164833015063778E-006
   1.0900000000000021E-002    -2.5307858777523506E-006
   1.2000000000000011E-002    -3.0172407150530489E-006
   1.3100000000000001E-002    -3.5862269669451052E-006
   1.4200000000000018E-002    -4.2490069063205738E-006
   1.5300000000000008E-002    -5.0178614401374944E-006
   1.6400000000000026E-002    -5.9063968365080655E-006
   1.7500000000000016E-002    -6.9297047957661562E-006
   1.8600000000000005E-002    -8.1046882769442163E-006
   1.9700000000000023E-002    -9.4501147032133304E-006
   2.0800000000000013E-002    -1.0986287634295877E-005
   2.1900000000000003E-002    -1.2734200026898179E-005
   2.3000000000000020E-002    -1.4714906683366280E-005
   2.4100000000000010E-002    -1.6949950804701075E-005
   2.5200000000000000E-002    -1.9462208001641557E-005
   2.6300000000000018E-002    -2.2275935407378711E-005
   2.7400000000000008E-002    -2.5415476557100192E-005
   2.8500000000000025E-002    -2.8903932616231032E-005
   2.9600000000000015E-002    -3.2762993214419112E-005
   3.0700000000000005E-002    -3.7013767723692581E-005
   3.1800000000000023E-002    -4.1677296394482255E-005
   3.2900000000000013E-002    -4.6773442591074854E-005
   3.4000000000000002E-002    -5.2318671805551276E-005
   3.5100000000000020E-002    -5.8324065321357921E-005
   3.6200000000000010E-002    -6.4795021899044514E-005
   3.7300000000000028E-002    -7.1731832576915622E-005
   3.8400000000000017E-002    -7.9129706136882305E-005
   3.9500000000000007E-002    -8.6977372120600194E-005
   4.0600000000000025E-002    -9.5255003543570638E-005
   4.1700000000000015E-002    -1.0393310367362574E-004
   4.2800000000000005E-002    -1.1297056335024536E-004
   4.3900000000000022E-002    -1.2231600703671575E-004
   4.5000000000000012E-002    -1.3190739264246076E-004
   4.6100000000000002E-002    -1.4167161134537309E-004
   4.7200000000000020E-002    -1.5152564446907490E-004
   4.8300000000000010E-002    -1.6137055354192853E-004
   4.9400000000000027E-002    -1.7109142208937556E-004
   5.0500000000000017E-002    -1.8055908731184900E-004
   5.1600000000000007E-002    -1.8963524780701846E-004
   5.2700000000000025E-002    -1.9817429711110890E-004
   5.3800000000000014E-002    -2.0601866708602756E-004
   5.4900000000000004E-002    -2.1299647050909698E-004
   5.6000000000000022E-002    -2.1892432414460927E-004
   5.7100000000000012E-002    -2.2361574519891292E-004
   5.8200000000000002E-002    -2.2688308672513813E-004
   5.9300000000000019E-002    -2.2854263079352677E-004
   6.0400000000000009E-002    -2.2840833116788417E-004
   6.1500000000000027E-002    -2.2629664454143494E-004
   6.2600000000000017E-002    -2.2203031403478235E-004
   6.3700000000000007E-002    -2.1544667833950371E-004
   6.4800000000000024E-002    -2.0640085858758539E-004
   6.5900000000000014E-002    -1.9476895977277309E-004
   6.7000000000000004E-002    -1.8045086471829563E-004
   6.8100000000000022E-002    -1.6337553097400814E-004
   6.9200000000000012E-002    -1.4349620323628187E-004
   7.0300000000000029E-002    -1.2079712905688211E-004
   7.1400000000000019E-002    -9.5302850240841508E-005
   7.2500000000000009E-002    -6.7088083596900105E-005
   7.3600000000000027E-002    -3.6272536817705259E-005
   7.4700000000000016E-002    -3.0094511203060392E-006
   7.5800000000000006E-002     3.2513107726117596E-005
   7.6900000000000024E-002     7.0062633312772959E-005
   7.8000000000000014E-002     1.0935423051705584E-004
   7.9100000000000004E-002     1.5005654131527990E-004
   8.0200000000000021E-002     1.9180077651981264E-004
   8.1300000000000011E-002     2.3419162607751787E-004
   8.2400000000000029E-002     2.7680702623911202E-004
   8.3500000000000019E-002     3.1920036417432129E-004
   8.4600000000000009E-002     3.6089707282371819E-004
   8.5700000000000026E-002     4.0140605415217578E-004
   8.6800000000000016E-002     4.4022721704095602E-004
   8.7900000000000006E-002     4.7686768812127411E-004
   8.9000000000000024E-002     5.1085039740428329E-004
   9.0100000000000013E-002     5.4171984083950520E-004
   9.1200000000000003E-002     5.6904088705778122E-004
   9.2300000000000021E-002     5.9240136761218309E-004
   9.3400000000000011E-002     6.1142322374507785E-004
   9.4500000000000028E-002     6.2578247161582112E-004
   9.5600000000000018E-002     6.3522043637931347E-004
   9.6700000000000008E-002     6.3954159850254655E-004
   9.7800000000000026E-002     6.3860393129289150E-004
   9.8900000000000016E-002     6.3232117099687457E-004
  0.10000000000000001          6.2067259568721056E-004
  0.10110000000000002          6.0371874133124948E-004
  0.10220000000000001          5.8160186745226383E-004
  0.10330000000000003          5.5453431559726596E-004
  0.10440000000000002          5.2278145449236035E-004
  0.10550000000000001          4.8666395014151931E-004
  0.10660000000000003          4.4656256795860827E-004
  0.10770000000000002          4.0291497134603560E-004
  0.10880000000000001          3.5620952257886529E-004
  0.10990000000000003          3.0697174952365458E-004
  0.11100000000000002          2.5575482868589461E-004
  0.11210000000000001          2.0312539709266275E-004
  0.11320000000000002          1.4965808077249676E-004
  0.11430000000000001          9.5925046480260789E-005
  0.11540000000000003          4.2504165321588516E-005
  0.11650000000000002         -1.0037193533207756E-005
  0.11760000000000001         -6.1152371927164495E-005
  0.11870000000000003         -1.1033936607418582E-004
  0.11980000000000002         -1.5714718028903008E-004
  0.12090000000000001         -2.0116023370064795E-004
  0.12200000000000003         -2.4200200277846307E-004
  0.12310000000000001         -2.7934095123782754E-004
  0.12420000000000003         -3.1291210325434804E-004
  0.12530000000000002         -3.4251905162818730E-004
  0.12640000000000001         -3.6802698741666973E-004
  0.12750000000000003         -3.8935156771913171E-004
  0.12860000000000002         -4.0645830449648201E-004
  0.12970000000000001         -4.1936975321732461E-004
  0.13080000000000003         -4.2816452332772315E-004
  0.13190000000000002         -4.3297393131069839E-004
  0.13300000000000001         -4.3397408444434404E-004
  0.13410000000000000         -4.3137758621014655E-004
  0.13520000000000004         -4.2542733717709780E-004
  0.13630000000000003         -4.1639414848759770E-004
  0.13740000000000002         -4.0456757415086031E-004
  0.13850000000000001         -3.9025573641993105E-004
  0.13960000000000000         -3.7378410343080759E-004
  0.14070000000000005         -3.5548550658859313E-004
  0.14180000000000004         -3.3568541402928531E-004
  0.14290000000000003         -3.1469477107748389E-004
  0.14400000000000002         -2.9281747993081808E-004
  0.14510000000000001         -2.7035525999963284E-004
  0.14620000000000000         -2.4759801453910768E-004
  0.14730000000000004         -2.2480761981569231E-004
  0.14840000000000003         -2.0221502927597612E-004
  0.14950000000000002         -1.8003034347202629E-004
  0.15060000000000001         -1.5844947483856231E-004
  0.15170000000000000         -1.3764598406851292E-004
  0.15280000000000005         -1.1775879102060571E-004
  0.15390000000000004         -9.8894408438354731E-005
  0.15500000000000003         -8.1141355622094125E-005
  0.15610000000000002         -6.4573381678201258E-005
  0.15720000000000001         -4.9243139073951170E-005
  0.15830000000000000         -3.5173357900930569E-005
  0.15940000000000004         -2.2364436517818831E-005
  0.16050000000000003         -1.0806791578943375E-005
  0.16160000000000002         -4.8194743840213050E-007
  0.16270000000000001          8.6435547927976586E-006
  0.16380000000000000          1.6621046597720124E-005
  0.16490000000000005          2.3508213416789658E-005
  0.16600000000000004          2.9363758585532196E-005
  0.16710000000000003          3.4254037018399686E-005
  0.16820000000000002          3.8259160646703094E-005
  0.16930000000000001          4.1460432839812711E-005
  0.17040000000000000          4.3926182115683332E-005
  0.17150000000000004          4.5715787564404309E-005
  0.17260000000000003          4.6897934225853533E-005
  0.17370000000000002          4.7556950448779389E-005
  0.17480000000000001          4.7774996346561238E-005
  0.17590000000000000          4.7611225454602391E-005
  0.17700000000000005          4.7107409045565873E-005
  0.17810000000000004          4.6311477490235120E-005
  0.17920000000000003          4.5285320084076375E-005
  0.18030000000000002          4.4087759306421503E-005
  0.18140000000000001          4.2759329517139122E-005
  0.18250000000000000          4.1328628867631778E-005
  0.18360000000000004          3.9826416468713433E-005
  0.18470000000000003          3.8286136259557679E-005
  0.18580000000000002          3.6732144508277997E-005
  0.18690000000000001          3.5178629332222044E-005
  0.18800000000000000          3.3641794288996607E-005
  0.18910000000000005          3.2145588193088770E-005
  0.19020000000000004          3.0708575650351122E-005
  0.19130000000000003          2.9331153200473636E-005
  0.19240000000000002          2.8005342755932361E-005
  0.19350000000000001          2.6734858693089336E-005
  0.19460000000000005          2.5536142857163213E-005
  0.19570000000000004          2.4418970497208647E-005
  0.19680000000000003          2.3374121155939065E-005
  0.19790000000000002          2.2387232093024068E-005
  0.19900000000000001          2.1457166440086439E-005
  0.20010000000000000          2.0591749489540234E-005
  0.20120000000000005          1.9788443751167506E-005
  0.20230000000000004          1.9030521798413247E-005
  0.20340000000000003          1.8305850971955806E-005
  0.20450000000000002          1.7618893252802081E-005
  0.20560000000000000          1.6976886399788782E-005
  0.20670000000000005          1.6371157471439801E-005
  0.20780000000000004          1.5780862668179907E-005
  0.20890000000000003          1.5194486877589952E-005
