 -0.12000000000000000          0.0000000000000000
 -0.11889999999999999          0.0000000000000000
 -0.11780000000000000          0.0000000000000000
 -0.11670000000000000          1.2546758770826116E-011
 -0.11559999999999999          1.8168352239333885E-011
 -0.11449999999999999         -2.8160897225237846E-011
 -0.11340000000000000         -7.4961509222148948E-011
 -0.11230000000000000         -7.1864272345456559E-012
 -0.11119999999999999          9.8632796374786835E-011
 -0.11009999999999999          3.4899860779091796E-011
 -0.10900000000000000         -4.0868652212422418E-011
 -0.10790000000000000          3.0829422348332969E-010
 -0.10679999999999999          7.4258371673963097E-010
 -0.10569999999999999         -4.0188973676746897E-011
 -0.10460000000000000         -2.2186259496237426E-009
 -0.10349999999999999         -3.2006586270227899E-009
 -0.10239999999999999         -2.7629024068609453E-010
 -0.10130000000000000          4.7190189533807825E-009
 -0.10020000000000000          6.1720100141826606E-009
  -9.9099999999999994E-002     1.9703489950728681E-009
  -9.7999999999999990E-002    -2.6980153666755768E-009
  -9.6899999999999986E-002    -2.4106316942607009E-009
  -9.5799999999999996E-002    -3.5083386196177457E-010
  -9.4699999999999993E-002    -4.1651690985133882E-009
  -9.3599999999999989E-002    -1.2471413235459750E-008
  -9.2499999999999999E-002    -1.2972209972872406E-008
  -9.1399999999999995E-002     9.2078111801896512E-010
  -9.0299999999999991E-002     1.7741399460646790E-008
  -8.9200000000000002E-002     2.1626503254879026E-008
  -8.8099999999999984E-002     1.6275830461154328E-008
  -8.6999999999999994E-002     2.3412754401874736E-008
  -8.5899999999999990E-002     5.3338791161650079E-008
  -8.4799999999999986E-002     8.8167332989996794E-008
  -8.3699999999999997E-002     1.0448663800843860E-007
  -8.2599999999999993E-002     1.0566871821993118E-007
  -8.1499999999999989E-002     1.1758078954926532E-007
  -8.0399999999999999E-002     1.5362535066287819E-007
  -7.9299999999999995E-002     2.0025746039209480E-007
  -7.8199999999999992E-002     2.4293822775689478E-007
  -7.7100000000000002E-002     2.9085052233313036E-007
  -7.5999999999999984E-002     3.6206091635904158E-007
  -7.4899999999999994E-002     4.5507741219807940E-007
  -7.3799999999999991E-002     5.5578067303940770E-007
  -7.2699999999999987E-002     6.7041389684163732E-007
  -7.1599999999999997E-002     8.2784413280023728E-007
  -7.0499999999999993E-002     1.0399925258752774E-006
  -6.9399999999999989E-002     1.2819236872019246E-006
  -6.8300000000000000E-002     1.5320091506509925E-006
  -6.7199999999999996E-002     1.8184365444540163E-006
  -6.6099999999999992E-002     2.1972259673930239E-006
  -6.5000000000000002E-002     2.6851082566281548E-006
  -6.3899999999999985E-002     3.2458538044011220E-006
  -6.2799999999999995E-002     3.8575385588046629E-006
  -6.1699999999999991E-002     4.5664833123737480E-006
  -6.0599999999999994E-002     5.4460497267427854E-006
  -5.9499999999999990E-002     6.5167464526894037E-006
  -5.8399999999999994E-002     7.7443983172997832E-006
  -5.7299999999999990E-002     9.1200581664452329E-006
  -5.6199999999999986E-002     1.0704534361138940E-005
  -5.5099999999999996E-002     1.2574159882206004E-005
  -5.3999999999999992E-002     1.4752478818991221E-005
  -5.2899999999999989E-002     1.7229835066245869E-005
  -5.1799999999999985E-002     2.0034742192365229E-005
  -5.0699999999999995E-002     2.3242801034939475E-005
  -4.9599999999999991E-002     2.6911917302641086E-005
  -4.8499999999999988E-002     3.1053099519340321E-005
  -4.7399999999999998E-002     3.5688764910446480E-005
  -4.6299999999999994E-002     4.0903079934651032E-005
  -4.5199999999999990E-002     4.6792018110863864E-005
  -4.4099999999999986E-002     5.3380168537842110E-005
  -4.2999999999999997E-002     6.0640606534434482E-005
  -4.1899999999999993E-002     6.8603279942180961E-005
  -4.0799999999999989E-002     7.7392513048835099E-005
  -3.9699999999999985E-002     8.7123873527161777E-005
  -3.8599999999999995E-002     9.7799005743581802E-005
  -3.7499999999999992E-002     1.0935114551102743E-004
  -3.6399999999999988E-002     1.2177727330708876E-004
  -3.5299999999999984E-002     1.3516804028768092E-004
  -3.4199999999999994E-002     1.4959437248762697E-004
  -3.3099999999999991E-002     1.6501886420883238E-004
  -3.1999999999999987E-002     1.8135091522708535E-004
  -3.0899999999999997E-002     1.9854705897159874E-004
  -2.9799999999999993E-002     2.1659927733708173E-004
  -2.8699999999999989E-002     2.3543844872619957E-004
  -2.7599999999999986E-002     2.5491396081633866E-004
  -2.6499999999999996E-002     2.7488192426972091E-004
  -2.5399999999999992E-002     2.9525204445235431E-004
  -2.4299999999999988E-002     3.1590310391038656E-004
  -2.3199999999999985E-002     3.3658952452242374E-004
  -2.2099999999999995E-002     3.5699235741049051E-004
  -2.0999999999999991E-002     3.7685164716094732E-004
  -1.9899999999999987E-002     3.9598520379513502E-004
  -1.8799999999999983E-002     4.1415388113819063E-004
  -1.7699999999999994E-002     4.3097327579744160E-004
  -1.6599999999999990E-002     4.4600537512451410E-004
  -1.5499999999999986E-002     4.5889458851888776E-004
  -1.4399999999999996E-002     4.6935339923948050E-004
  -1.3299999999999992E-002     4.7703360905870795E-004
  -1.2199999999999989E-002     4.8148725181818008E-004
  -1.1099999999999985E-002     4.8228292143903673E-004
  -9.9999999999999950E-003     4.7909631393849850E-004
  -8.8999999999999913E-003     4.7165073920041323E-004
  -7.7999999999999875E-003     4.5959922135807574E-004
  -6.6999999999999837E-003     4.4255843386054039E-004
  -5.5999999999999939E-003     4.2025267612189054E-004
  -4.4999999999999901E-003     3.9255092269740999E-004
  -3.3999999999999864E-003     3.5936920903623104E-004
  -2.2999999999999826E-003     3.2057132921181619E-004
  -1.1999999999999927E-003     2.7605248033069074E-004
  -9.9999999999988987E-005     2.2586750856135041E-004
   1.0000000000000148E-003     1.7022587417159230E-004
   2.1000000000000185E-003     1.0937373008346185E-004
   3.2000000000000084E-003     4.3549240217544138E-005
   4.3000000000000121E-003    -2.6913059627986513E-005
   5.4000000000000159E-003    -1.0149462468689308E-004
   6.5000000000000058E-003    -1.7956360534299165E-004
   7.6000000000000234E-003    -2.6049779262393713E-004
   8.7000000000000133E-003    -3.4367124317213893E-004
   9.8000000000000032E-003    -4.2833015322685242E-004
   1.0900000000000021E-002    -5.1355425966903567E-004
   1.2000000000000011E-002    -5.9838773449882865E-004
   1.3100000000000001E-002    -6.8193528568372130E-004
   1.4200000000000018E-002    -7.6332798926159739E-004
   1.5300000000000008E-002    -8.4160832921043038E-004
   1.6400000000000026E-002    -9.1574544785544276E-004
   1.7500000000000016E-002    -9.8476163111627102E-004
   1.8600000000000005E-002    -1.0477980831637979E-003
   1.9700000000000023E-002    -1.1040491517633200E-003
   2.0800000000000013E-002    -1.1526902671903372E-003
   2.1900000000000003E-002    -1.1929433094337583E-003
   2.3000000000000020E-002    -1.2241889489814639E-003
   2.4100000000000010E-002    -1.2459798017516732E-003
   2.5200000000000000E-002    -1.2579436879605055E-003
   2.6300000000000018E-002    -1.2597441673278809E-003
   2.7400000000000008E-002    -1.2511663371697068E-003
   2.8500000000000025E-002    -1.2322082184255123E-003
   2.9600000000000015E-002    -1.2030464131385088E-003
   3.0700000000000005E-002    -1.1639457661658525E-003
   3.1800000000000023E-002    -1.1152451625093818E-003
   3.2900000000000013E-002    -1.0574237676337361E-003
   3.4000000000000002E-002    -9.9113327451050282E-004
   3.5100000000000020E-002    -9.1713300207629800E-004
   3.6200000000000010E-002    -8.3623250247910619E-004
   3.7300000000000028E-002    -7.4930937262251973E-004
   3.8400000000000017E-002    -6.5736519172787666E-004
   3.9500000000000007E-002    -5.6148628937080503E-004
   4.0600000000000025E-002    -4.6276059583760798E-004
   4.1700000000000015E-002    -3.6223061033524573E-004
   4.2800000000000005E-002    -2.6095431530848145E-004
   4.3900000000000022E-002    -1.6003214113879949E-004
   4.5000000000000012E-002    -6.0561716964002699E-005
   4.6100000000000002E-002     3.6432076740311459E-005
   4.7200000000000020E-002     1.3002798368688673E-004
   4.8300000000000010E-002     2.1937623387202621E-004
   4.9400000000000027E-002     3.0368004809133708E-004
   5.0500000000000017E-002     3.8222764851525426E-004
   5.1600000000000007E-002     4.5442357077263296E-004
   5.2700000000000025E-002     5.1977788098156452E-004
   5.3800000000000014E-002     5.7789759011939168E-004
   5.4900000000000004E-002     6.2848918605595827E-004
   5.6000000000000022E-002     6.7138927988708019E-004
   5.7100000000000012E-002     7.0656160824000835E-004
   5.8200000000000002E-002     7.3405500734224916E-004
   5.9300000000000019E-002     7.5399241177365184E-004
   6.0400000000000009E-002     7.6658191392198205E-004
   6.1500000000000027E-002     7.7213614713400602E-004
   6.2600000000000017E-002     7.7103450894355774E-004
   6.3700000000000007E-002     7.6370901660993695E-004
   6.4800000000000024E-002     7.5064768316224217E-004
   6.5900000000000014E-002     7.3240033816546202E-004
   6.7000000000000004E-002     7.0953444810584188E-004
   6.8100000000000022E-002     6.8260577972978354E-004
   6.9200000000000012E-002     6.5217423252761364E-004
   7.0300000000000029E-002     6.1883032321929932E-004
   7.1400000000000019E-002     5.8318080846220255E-004
   7.2500000000000009E-002     5.4579664720222354E-004
   7.3600000000000027E-002     5.0719332648441195E-004
   7.4700000000000016E-002     4.6786197344772518E-004
   7.5800000000000006E-002     4.2829179437831044E-004
   7.6900000000000024E-002     3.8893186138011515E-004
   7.8000000000000014E-002     3.5015228786505759E-004
   7.9100000000000004E-002     3.1226975261233747E-004
   8.0200000000000021E-002     2.7560221496969461E-004
   8.1300000000000011E-002     2.4045744794420898E-004
   8.2400000000000029E-002     2.0705942006316036E-004
   8.3500000000000019E-002     1.7552560893818736E-004
   8.4600000000000009E-002     1.4594067761208862E-004
   8.5700000000000026E-002     1.1842673120554537E-004
   8.6800000000000016E-002     9.3098293291404843E-005
   8.7900000000000006E-002     6.9977453676983714E-005
   8.9000000000000024E-002     4.8998215788742527E-005
   9.0100000000000013E-002     3.0103397875791416E-005
   9.1200000000000003E-002     1.3284660781209823E-005
   9.2300000000000021E-002    -1.4915061683495878E-006
   9.3400000000000011E-002    -1.4357706277223770E-005
   9.4500000000000028E-002    -2.5481867851340212E-005
   9.5600000000000018E-002    -3.4960277844220400E-005
   9.6700000000000008E-002    -4.2829607991734520E-005
   9.7800000000000026E-002    -4.9188744014827535E-005
   9.8900000000000016E-002    -5.4241700127022341E-005
  0.10000000000000001         -5.8184421504847705E-005
  0.10110000000000002         -6.1098595324438065E-005
  0.10220000000000001         -6.3013685576152056E-005
  0.10330000000000003         -6.4039028075058013E-005
  0.10440000000000002         -6.4366671722382307E-005
  0.10550000000000001         -6.4135325374081731E-005
  0.10660000000000003         -6.3375249737873673E-005
  0.10770000000000002         -6.2116327171679586E-005
  0.10880000000000001         -6.0487480368465185E-005
  0.10990000000000003         -5.8643498050514609E-005
  0.11100000000000002         -5.6626846344443038E-005
  0.11210000000000001         -5.4389111028285697E-005
  0.11320000000000002         -5.1952109060948715E-005
  0.11430000000000001         -4.9461690650787205E-005
  0.11540000000000003         -4.7043009544722736E-005
  0.11650000000000002         -4.4667627662420273E-005
  0.11760000000000001         -4.2240069888066500E-005
  0.11870000000000003         -3.9776721678208560E-005
  0.11980000000000002         -3.7411133234854788E-005
  0.12090000000000001         -3.5217486583860591E-005
  0.12200000000000003         -3.3123546018032357E-005
  0.12310000000000001         -3.1043928174767643E-005
  0.12420000000000003         -2.9024078685324639E-005
  0.12530000000000002         -2.7173995476914570E-005
  0.12640000000000001         -2.5495295631117187E-005
  0.12750000000000003         -2.3877277271822095E-005
  0.12860000000000002         -2.2270143745117821E-005
  0.12970000000000001         -2.0765992303495295E-005
  0.13080000000000003         -1.9455883375485428E-005
  0.13190000000000002         -1.8282196833752096E-005
  0.13300000000000001         -1.7117457900894806E-005
  0.13410000000000000         -1.5951982277329080E-005
  0.13520000000000004         -1.4902372640790418E-005
  0.13630000000000003         -1.4024646588950418E-005
  0.13740000000000002         -1.3220861546869855E-005
  0.13850000000000001         -1.2384405636112206E-005
  0.13960000000000000         -1.1559564882190898E-005
  0.14070000000000005         -1.0867313903872855E-005
  0.14180000000000004         -1.0309848221368156E-005
  0.14290000000000003         -9.7571210062596947E-006
  0.14400000000000002         -9.1389747467474081E-006
  0.14510000000000001         -8.5496794781647623E-006
  0.14620000000000000         -8.1014177339966409E-006
  0.14730000000000004         -7.7504964792751707E-006
  0.14840000000000003         -7.3604182944109198E-006
  0.14950000000000002         -6.9037482717249077E-006
  0.15060000000000001         -6.4950436353683472E-006
  0.15170000000000000         -6.2086928664939478E-006
  0.15280000000000005         -5.9645508372341283E-006
  0.15390000000000004         -5.6548660722910427E-006
  0.15500000000000003         -5.3110056796867866E-006
  0.15610000000000002         -5.0492162699811161E-006
  0.15720000000000001         -4.8832284846866969E-006
  0.15830000000000000         -4.6975933400972281E-006
  0.15940000000000004         -4.4254024942347314E-006
  0.16050000000000003         -4.1540670281392522E-006
  0.16160000000000002         -3.9931196624820586E-006
  0.16270000000000001         -3.9048991311574355E-006
  0.16380000000000000         -3.7591182717733318E-006
  0.16490000000000005         -3.5278092127555283E-006
  0.16600000000000004         -3.3236194667551899E-006
  0.16710000000000003         -3.2256489248538855E-006
  0.16820000000000002         -3.1616289106750628E-006
  0.16930000000000001         -3.0230837637645891E-006
  0.17040000000000000         -2.8316726456978358E-006
  0.17150000000000004         -2.7007861262973165E-006
  0.17260000000000003         -2.6567074655758915E-006
  0.17370000000000002         -2.5979245492635528E-006
  0.17480000000000001         -2.4534763269912219E-006
  0.17590000000000000         -2.2935878405405674E-006
  0.17700000000000005         -2.2212893782125320E-006
  0.17810000000000004         -2.2136341613077093E-006
  0.17920000000000003         -2.1561334051511949E-006
  0.18030000000000002         -2.0160935036983574E-006
  0.18140000000000001         -1.8892500293077319E-006
  0.18250000000000000         -1.8525204268371454E-006
  0.18360000000000004         -1.8505357957110391E-006
  0.18470000000000003         -1.7854073348644306E-006
  0.18580000000000002         -1.6655576473567635E-006
  0.18690000000000001         -1.5861319297982845E-006
  0.18800000000000000         -1.5781967022121535E-006
  0.18910000000000005         -1.5634398096153745E-006
  0.19020000000000004         -1.4797991525483667E-006
  0.19130000000000003         -1.3787013131150161E-006
  0.19240000000000002         -1.3431996421786607E-006
  0.19350000000000001         -1.3572353054769337E-006
  0.19460000000000005         -1.3295049257067149E-006
  0.19570000000000004         -1.2341902220214251E-006
  0.19680000000000003         -1.1509266641951399E-006
  0.19790000000000002         -1.1438125966378720E-006
  0.19900000000000001         -1.1653303317871178E-006
  0.20010000000000000         -1.1299053994662245E-006
  0.20120000000000005         -1.0415261613161420E-006
  0.20230000000000004         -9.8302223250357201E-007
  0.20340000000000003         -9.8934265224670526E-007
  0.20450000000000002         -9.9949500054208329E-007
  0.20560000000000000         -9.5413702183577698E-007
  0.20670000000000005         -8.8389117536280537E-007
  0.20780000000000004         -8.5641124769608723E-007
  0.20890000000000003         -8.7118434066724149E-007
