 -0.12000000000000000          0.0000000000000000
 -0.11889999999999999          0.0000000000000000
 -0.11780000000000000          0.0000000000000000
 -0.11670000000000000          1.2546758770826116E-011
 -0.11559999999999999          1.8168352239333885E-011
 -0.11449999999999999         -2.8160902429408274E-011
 -0.11340000000000000         -7.4961516161042852E-011
 -0.11230000000000000         -7.1864246324604419E-012
 -0.11119999999999999          9.8632817191468547E-011
 -0.11009999999999999          3.4899850370750940E-011
 -0.10900000000000000         -4.0868662620763274E-011
 -0.10790000000000000          3.0829419572775407E-010
 -0.10679999999999999          7.4258371673963097E-010
 -0.10569999999999999         -4.0189192251904871E-011
 -0.10460000000000000         -2.2186263937129524E-009
 -0.10349999999999999         -3.2006577388443702E-009
 -0.10239999999999999         -2.7628990761918715E-010
 -0.10130000000000000          4.7190171770239431E-009
 -0.10020000000000000          6.1720095700934507E-009
  -9.9099999999999994E-002     1.9703512155189173E-009
  -9.7999999999999990E-002    -2.6980129241849227E-009
  -9.6899999999999986E-002    -2.4106319163053058E-009
  -9.5799999999999996E-002    -3.5083835836502431E-010
  -9.4699999999999993E-002    -4.1651726512270670E-009
  -9.3599999999999989E-002    -1.2471407018210812E-008
  -9.2499999999999999E-002    -1.2972202867445048E-008
  -9.1399999999999995E-002     9.2078145108587250E-010
  -9.0299999999999991E-002     1.7741395907933111E-008
  -8.9200000000000002E-002     2.1626492596737990E-008
  -8.8099999999999984E-002     1.6275818026656452E-008
  -8.6999999999999994E-002     2.3412757954588415E-008
  -8.5899999999999990E-002     5.3338819583359509E-008
  -8.4799999999999986E-002     8.8167382727988297E-008
  -8.3699999999999997E-002     1.0448669485185746E-007
  -8.2599999999999993E-002     1.0566875374706797E-007
  -8.1499999999999989E-002     1.1758072560041910E-007
  -8.0399999999999999E-002     1.5362512328920275E-007
  -7.9299999999999995E-002     2.0025743197038537E-007
  -7.8199999999999992E-002     2.4293842670886079E-007
  -7.7100000000000002E-002     2.9085069286338694E-007
  -7.5999999999999984E-002     3.6206083109391329E-007
  -7.4899999999999994E-002     4.5507701429414738E-007
  -7.3799999999999991E-002     5.5578061619598884E-007
  -7.2699999999999987E-002     6.7041412421531277E-007
  -7.1599999999999997E-002     8.2784401911339955E-007
  -7.0499999999999993E-002     1.0399915026937379E-006
  -6.9399999999999989E-002     1.2819231187677360E-006
  -6.8300000000000000E-002     1.5320104012062075E-006
  -6.7199999999999996E-002     1.8184385908170952E-006
  -6.6099999999999992E-002     2.1972241484036203E-006
  -6.5000000000000002E-002     2.6851041639019968E-006
  -6.3899999999999985E-002     3.2458526675327448E-006
  -6.2799999999999995E-002     3.8575440157728735E-006
  -6.1699999999999991E-002     4.5664887693419587E-006
  -6.0599999999999994E-002     5.4460479077533819E-006
  -5.9499999999999990E-002     6.5167378124897368E-006
  -5.8399999999999994E-002     7.7443910413421690E-006
  -5.7299999999999990E-002     9.1200663518975489E-006
  -5.6199999999999986E-002     1.0704541637096554E-005
  -5.5099999999999996E-002     1.2574148058774881E-005
  -5.3999999999999992E-002     1.4752447896171361E-005
  -5.2899999999999989E-002     1.7229802324436605E-005
  -5.1799999999999985E-002     2.0034745830344036E-005
  -5.0699999999999995E-002     2.3242826500791125E-005
  -4.9599999999999991E-002     2.6911930035566911E-005
  -4.8499999999999988E-002     3.1053095881361514E-005
  -4.7399999999999998E-002     3.5688735806616023E-005
  -4.6299999999999994E-002     4.0903087210608646E-005
  -4.5199999999999990E-002     4.6792079956503585E-005
  -4.4099999999999986E-002     5.3380252211354673E-005
  -4.2999999999999997E-002     6.0640541050815955E-005
  -4.1899999999999993E-002     6.8603112595155835E-005
  -4.0799999999999989E-002     7.7392433013301343E-005
  -3.9699999999999985E-002     8.7124011770356447E-005
  -3.8599999999999995E-002     9.7799260402098298E-005
  -3.7499999999999992E-002     1.0935127647826448E-004
  -3.6399999999999988E-002     1.2177712778793648E-004
  -3.5299999999999984E-002     1.3516783656086773E-004
  -3.4199999999999994E-002     1.4959443069528788E-004
  -3.3099999999999991E-002     1.6501911159139127E-004
  -3.1999999999999987E-002     1.8135082791559398E-004
  -3.0899999999999997E-002     1.9854666606988758E-004
  -2.9799999999999993E-002     2.1659904450643808E-004
  -2.8699999999999989E-002     2.3543875431641936E-004
  -2.7599999999999986E-002     2.5491468841210008E-004
  -2.6499999999999996E-002     2.7488172054290771E-004
  -2.5399999999999992E-002     2.9525088029913604E-004
  -2.4299999999999988E-002     3.1590266735292971E-004
  -2.3199999999999985E-002     3.3659045584499836E-004
  -2.2099999999999995E-002     3.5699323052540421E-004
  -2.0999999999999991E-002     3.7685208371840417E-004
  -1.9899999999999987E-002     3.9598511648364365E-004
  -1.8799999999999983E-002     4.1415326995775104E-004
  -1.7699999999999994E-002     4.3097283923998475E-004
  -1.6599999999999990E-002     4.4600528781302273E-004
  -1.5499999999999986E-002     4.5889423927292228E-004
  -1.4399999999999996E-002     4.6935264253988862E-004
  -1.3299999999999992E-002     4.7703299787826836E-004
  -1.2199999999999989E-002     4.8148742644116282E-004
  -1.1099999999999985E-002     4.8228309606201947E-004
  -9.9999999999999950E-003     4.7909677959978580E-004
  -8.8999999999999913E-003     4.7165059368126094E-004
  -7.7999999999999875E-003     4.5959829003550112E-004
  -6.6999999999999837E-003     4.4255921966396272E-004
  -5.5999999999999939E-003     4.2025346192531288E-004
  -4.4999999999999901E-003     3.9255234878510237E-004
  -3.3999999999999864E-003     3.5936973290517926E-004
  -2.2999999999999826E-003     3.2057089265435934E-004
  -1.1999999999999927E-003     2.7605172363109887E-004
  -9.9999999999988987E-005     2.2586660634260625E-004
   1.0000000000000148E-003     1.7022616520989686E-004
   2.1000000000000185E-003     1.0937383194686845E-004
   3.2000000000000084E-003     4.3548854591790587E-005
   4.3000000000000121E-003    -2.6914181944448501E-005
   5.4000000000000159E-003    -1.0149696026928723E-004
   6.5000000000000058E-003    -1.7956625379156321E-004
   7.6000000000000234E-003    -2.6049799635075033E-004
   8.7000000000000133E-003    -3.4366585896350443E-004
   9.8000000000000032E-003    -4.2832436156459153E-004
   1.0900000000000021E-002    -5.1355577306821942E-004
   1.2000000000000011E-002    -5.9839355526492000E-004
   1.3100000000000001E-002    -6.8194075720384717E-004
   1.4200000000000018E-002    -7.6332484604790807E-004
   1.5300000000000008E-002    -8.4160163532942533E-004
   1.6400000000000026E-002    -9.1574335237964988E-004
   1.7500000000000016E-002    -9.8476523999124765E-004
   1.8600000000000005E-002    -1.0478020412847400E-003
   1.9700000000000023E-002    -1.1040492681786418E-003
   2.0800000000000013E-002    -1.1526879388839006E-003
   2.1900000000000003E-002    -1.1929406318813562E-003
   2.3000000000000020E-002    -1.2241873191669583E-003
   2.4100000000000010E-002    -1.2459798017516732E-003
   2.5200000000000000E-002    -1.2579453177750111E-003
   2.6300000000000018E-002    -1.2597471941262484E-003
   2.7400000000000008E-002    -1.2511686654761434E-003
   2.8500000000000025E-002    -1.2322048423811793E-003
   2.9600000000000015E-002    -1.2030411744490266E-003
   3.0700000000000005E-002    -1.1639461154118180E-003
   3.1800000000000023E-002    -1.1152509832754731E-003
   3.2900000000000013E-002    -1.0574278421700001E-003
   3.4000000000000002E-002    -9.9112757015973330E-004
   3.5100000000000020E-002    -9.1712473658844829E-004
   3.6200000000000010E-002    -8.3623355021700263E-004
   3.7300000000000028E-002    -7.4932270217686892E-004
   3.8400000000000017E-002    -6.5737252589315176E-004
   3.9500000000000007E-002    -5.6147616123780608E-004
   4.0600000000000025E-002    -4.6274412306956947E-004
   4.1700000000000015E-002    -3.6223299684934318E-004
   4.2800000000000005E-002    -2.6097058434970677E-004
   4.3900000000000022E-002    -1.6004257486201823E-004
   4.5000000000000012E-002    -6.0556754760909826E-005
   4.6100000000000002E-002     3.6441535485209897E-005
   4.7200000000000020E-002     1.3003341155126691E-004
   4.8300000000000010E-002     2.1937626297585666E-004
   4.9400000000000027E-002     3.0367696308530867E-004
   5.0500000000000017E-002     3.8222197326831520E-004
   5.1600000000000007E-002     4.5441795373335481E-004
   5.2700000000000025E-002     5.1977962721139193E-004
   5.3800000000000014E-002     5.7790696155279875E-004
   5.4900000000000004E-002     6.2849675305187702E-004
   5.6000000000000022E-002     6.7138578742742538E-004
   5.7100000000000012E-002     7.0654967566952109E-004
   5.8200000000000002E-002     7.3404738213866949E-004
   5.9300000000000019E-002     7.5399834895506501E-004
   6.0400000000000009E-002     7.6659815385937691E-004
   6.1500000000000027E-002     7.7214243356138468E-004
   6.2600000000000017E-002     7.7102083014324307E-004
   6.3700000000000007E-002     7.6369132148101926E-004
   6.4800000000000024E-002     7.5064873090013862E-004
   6.5900000000000014E-002     7.3241878999397159E-004
   6.7000000000000004E-002     7.0954969851300120E-004
   6.8100000000000022E-002     6.8260246189311147E-004
   6.9200000000000012E-002     6.5215874928981066E-004
   7.0300000000000029E-002     6.1881903093308210E-004
   7.1400000000000019E-002     5.8318115770816803E-004
   7.2500000000000009E-002     5.4580305004492402E-004
   7.3600000000000027E-002     5.0719757564365864E-004
   7.4700000000000016E-002     4.6786249731667340E-004
   7.5800000000000006E-002     4.2828949517570436E-004
   7.6900000000000024E-002     3.8892775774002075E-004
   7.8000000000000014E-002     3.5015057073906064E-004
   7.9100000000000004E-002     3.1227676663547754E-004
   8.0200000000000021E-002     2.7561545721255243E-004
   8.1300000000000011E-002     2.4046312319114804E-004
   8.2400000000000029E-002     2.0704724011011422E-004
   8.3500000000000019E-002     1.7550468328408897E-004
   8.4600000000000009E-002     1.4593347441405058E-004
   8.5700000000000026E-002     1.1844082473544404E-004
   8.6800000000000016E-002     9.3116796051617712E-005
   8.7900000000000006E-002     6.9979352701921016E-005
   8.9000000000000024E-002     4.8983041779138148E-005
   9.0100000000000013E-002     3.0090974178165197E-005
   9.1200000000000003E-002     1.3289623893797398E-005
   9.2300000000000021E-002    -1.4772152781006298E-006
   9.3400000000000011E-002    -1.4350393939821515E-005
   9.4500000000000028E-002    -2.5486093363724649E-005
   9.5600000000000018E-002    -3.4967906685778871E-005
   9.6700000000000008E-002    -4.2834148189285770E-005
   9.7800000000000026E-002    -4.9191923608304933E-005
   9.8900000000000016E-002    -5.4243773774942383E-005
  0.10000000000000001         -5.8180845371680334E-005
  0.10110000000000002         -6.1089835071470588E-005
  0.10220000000000001         -6.3008272263687104E-005
  0.10330000000000003         -6.4043713791761547E-005
  0.10440000000000002         -6.4374609792139381E-005
  0.10550000000000001         -6.4134816057048738E-005
  0.10660000000000003         -6.3367158873006701E-005
  0.10770000000000002         -6.2112667364999652E-005
  0.10880000000000001         -6.0495232901303098E-005
  0.10990000000000003         -5.8652443840401247E-005
  0.11100000000000002         -5.6624543503858149E-005
  0.11210000000000001         -5.4378779168473557E-005
  0.11320000000000002         -5.1947736210422590E-005
  0.11430000000000001         -4.9468300858279690E-005
  0.11540000000000003         -4.7049514250829816E-005
  0.11650000000000002         -4.4664240704150870E-005
  0.11760000000000001         -4.2232692067045718E-005
  0.11870000000000003         -3.9777754864189774E-005
  0.11980000000000002         -3.7420559237943962E-005
  0.12090000000000001         -3.5223274608142674E-005
  0.12200000000000003         -3.3118656574515626E-005
  0.12310000000000001         -3.1034836865728721E-005
  0.12420000000000003         -2.9020455258432776E-005
  0.12530000000000002         -2.7175525247002952E-005
  0.12640000000000001         -2.5495950467302464E-005
  0.12750000000000003         -2.3876997147453949E-005
  0.12860000000000002         -2.2273643480730243E-005
  0.12970000000000001         -2.0772238713107072E-005
  0.13080000000000003         -1.9457116650301032E-005
  0.13190000000000002         -1.8276006812811829E-005
  0.13300000000000001         -1.7112568457378075E-005
  0.13410000000000000         -1.5956688002916053E-005
  0.13520000000000004         -1.4911399375705514E-005
  0.13630000000000003         -1.4025693417352159E-005
  0.13740000000000002         -1.3212209523771890E-005
  0.13850000000000001         -1.2377183338685427E-005
  0.13960000000000000         -1.1561955943761859E-005
  0.14070000000000005         -1.0873302926484030E-005
  0.14180000000000004         -1.0309332537872251E-005
  0.14290000000000003         -9.7511911008041352E-006
  0.14400000000000002         -9.1381498350529000E-006
  0.14510000000000001         -8.5570090959663503E-006
  0.14620000000000000         -8.1076041169581003E-006
  0.14730000000000004         -7.7473232522606850E-006
  0.14840000000000003         -7.3524033723515458E-006
  0.14950000000000002         -6.9012239691801369E-006
  0.15060000000000001         -6.4997198023775127E-006
  0.15170000000000000         -6.2129456637194380E-006
  0.15280000000000005         -5.9639637584041338E-006
  0.15390000000000004         -5.6533081078669056E-006
  0.15500000000000003         -5.3119415497349110E-006
  0.15610000000000002         -5.0491144065745175E-006
  0.15720000000000001         -4.8785736908030231E-006
  0.15830000000000000         -4.6934196689107921E-006
  0.15940000000000004         -4.4292542042967398E-006
  0.16050000000000003         -4.1634862100181635E-006
  0.16160000000000002         -3.9963420022104401E-006
  0.16270000000000001         -3.8968514672887977E-006
  0.16380000000000000         -3.7494921798497671E-006
  0.16490000000000005         -3.5286650472698966E-006
  0.16600000000000004         -3.3333428746118443E-006
  0.16710000000000003         -3.2319508136424702E-006
  0.16820000000000002         -3.1581994335283525E-006
  0.16930000000000001         -3.0162104849296156E-006
  0.17040000000000000         -2.8291794933466008E-006
  0.17150000000000004         -2.7017435968446080E-006
  0.17260000000000003         -2.6563152459857520E-006
  0.17370000000000002         -2.5973361061915057E-006
  0.17480000000000001         -2.4575915631430689E-006
  0.17590000000000000         -2.3002453417575452E-006
  0.17700000000000005         -2.2215358512767125E-006
  0.17810000000000004         -2.2046799585950794E-006
  0.17920000000000003         -2.1477542304637609E-006
  0.18030000000000002         -2.0191500880173407E-006
  0.18140000000000001         -1.9011057474926929E-006
  0.18250000000000000         -1.8602780755827553E-006
  0.18360000000000004         -1.8472313740858226E-006
  0.18470000000000003         -1.7770568092601025E-006
  0.18580000000000002         -1.6610885040790890E-006
  0.18690000000000001         -1.5864075066929217E-006
  0.18800000000000000         -1.5791908936080290E-006
  0.18910000000000005         -1.5648830640202505E-006
  0.19020000000000004         -1.4840844642094453E-006
  0.19130000000000003         -1.3829208000970539E-006
  0.19240000000000002         -1.3403063121586456E-006
  0.19350000000000001         -1.3471483271132456E-006
  0.19460000000000005         -1.3229515616330900E-006
  0.19570000000000004         -1.2402251741150394E-006
  0.19680000000000003         -1.1638655905699125E-006
  0.19790000000000002         -1.1488125437608687E-006
  0.19900000000000001         -1.1564090982574271E-006
  0.20010000000000000         -1.1163920135004446E-006
  0.20120000000000005         -1.0352341632824391E-006
  0.20230000000000004         -9.8463135600468377E-007
  0.20340000000000003         -9.9139413123339182E-007
  0.20450000000000002         -9.9844476153521100E-007
  0.20560000000000000         -9.5261378874056390E-007
  0.20670000000000005         -8.8236038209288381E-007
  0.20780000000000004         -8.5002693595015444E-007
  0.20890000000000003         -8.5785381997993682E-007
