 -0.12000000000000000          0.0000000000000000
 -0.11889999999999999          0.0000000000000000
 -0.11780000000000000          0.0000000000000000
 -0.11670000000000000          0.0000000000000000
 -0.11559999999999999          0.0000000000000000
 -0.11449999999999999          0.0000000000000000
 -0.11340000000000000          0.0000000000000000
 -0.11230000000000000          0.0000000000000000
 -0.11119999999999999          0.0000000000000000
 -0.11009999999999999          2.4000246988028435E-024
 -0.10900000000000000         -1.3332579179907392E-023
 -0.10790000000000000         -2.2150778767386329E-023
 -0.10679999999999999          2.2310081969675385E-022
 -0.10569999999999999          1.7721227596906825E-022
 -0.10460000000000000         -2.1391625732767217E-021
 -0.10349999999999999         -2.0389612339036081E-021
 -0.10239999999999999          1.4471804313189383E-020
 -0.10130000000000000          2.1805786341301995E-020
 -0.10020000000000000         -6.8965349928647594E-020
  -9.9099999999999994E-002    -1.7179172597306551E-019
  -9.7999999999999990E-002     1.9025077833006917E-019
  -9.6899999999999986E-002     9.6671553873548996E-019
  -9.5799999999999996E-002     1.4037737086225633E-019
  -9.4699999999999993E-002    -3.7453373288390381E-018
  -9.3599999999999989E-002    -4.5490801923256820E-018
  -9.2499999999999999E-002     8.3685606145999918E-018
  -9.1399999999999995E-002     2.4897789021988861E-017
  -9.0299999999999991E-002     2.0418105560743621E-018
  -8.9200000000000002E-002    -7.3402267169946864E-017
  -8.8099999999999984E-002    -9.4268844416217748E-017
  -8.6999999999999994E-002     8.6430745629461275E-017
  -8.5899999999999990E-002     3.5334537907062734E-016
  -8.4799999999999986E-002     2.3068881437977786E-016
  -8.3699999999999997E-002    -5.3541736101420535E-016
  -8.2599999999999993E-002    -1.2087286153469770E-015
  -8.1499999999999989E-002    -4.7744796135133793E-016
  -8.0399999999999999E-002     1.7436681438998125E-015
  -7.9299999999999995E-002     3.3463709471351962E-015
  -7.8199999999999992E-002     1.8757021574101551E-015
  -7.7100000000000002E-002    -2.7436621124175570E-015
  -7.5999999999999984E-002    -8.1821163478443606E-015
  -7.4899999999999994E-002    -1.1101887197907927E-014
  -7.3799999999999991E-002    -5.6434844895403378E-015
  -7.2699999999999987E-002     1.6435264878645467E-014
  -7.1599999999999997E-002     5.1355915912021030E-014
  -7.0499999999999993E-002     6.1798846205315949E-014
  -6.9399999999999989E-002    -9.1977639087438383E-015
  -6.8300000000000000E-002    -1.6187119461670563E-013
  -6.7199999999999996E-002    -2.6758928189582476E-013
  -6.6099999999999992E-002    -1.3148083153908391E-013
  -6.5000000000000002E-002     2.9113175628939225E-013
  -6.3899999999999985E-002     7.3013491953821674E-013
  -6.2799999999999995E-002     7.3568272784471644E-013
  -6.1699999999999991E-002     6.6426254958801972E-014
  -6.0599999999999994E-002    -1.0373296189039594E-012
  -5.9499999999999990E-002    -1.9627708746500216E-012
  -5.8399999999999994E-002    -2.0493368287077818E-012
  -5.7299999999999990E-002    -8.2077926269810697E-013
  -5.6199999999999986E-002     1.8077353849954569E-012
  -5.5099999999999996E-002     5.0855955731343716E-012
  -5.3999999999999992E-002     7.0806819608970617E-012
  -5.2899999999999989E-002     5.3764445152870710E-012
  -5.1799999999999985E-002    -1.0103139028508346E-012
  -5.0699999999999995E-002    -1.0081615230139729E-011
  -4.9599999999999991E-002    -1.7582170094843086E-011
  -4.8499999999999988E-002    -1.9545559615252728E-011
  -4.7399999999999998E-002    -1.3909933101186045E-011
  -4.6299999999999994E-002     1.6937280300065999E-013
  -4.5199999999999990E-002     2.2812196576182941E-011
  -4.4099999999999986E-002     5.0620698605063907E-011
  -4.2999999999999997E-002     7.2553039964784460E-011
  -4.1899999999999993E-002     7.0975537946882383E-011
  -4.0799999999999989E-002     3.0996732958143980E-011
  -3.9699999999999985E-002    -4.7768327487984763E-011
  -3.8599999999999995E-002    -1.4639942036431819E-010
  -3.7499999999999992E-002    -2.3152858796837705E-010
  -3.6399999999999988E-002    -2.6450705514768913E-010
  -3.5299999999999984E-002    -2.1055447663176352E-010
  -3.4199999999999994E-002    -4.9907810523164287E-011
  -3.3099999999999991E-002     2.0773736897350403E-010
  -3.1999999999999987E-002     5.1289394953357714E-010
  -3.0899999999999997E-002     7.8018141946856190E-010
  -2.9799999999999993E-002     9.0634577620818391E-010
  -2.8699999999999989E-002     7.9278295039841851E-010
  -2.7599999999999986E-002     3.6855862806106643E-010
  -2.6499999999999996E-002    -3.7981359723993080E-010
  -2.5399999999999992E-002    -1.3729916092941608E-009
  -2.4299999999999988E-002    -2.4199222625753691E-009
  -2.3199999999999985E-002    -3.2392812876480548E-009
  -2.2099999999999995E-002    -3.5146903165639287E-009
  -2.0999999999999991E-002    -2.9500322185072037E-009
  -1.9899999999999987E-002    -1.3049293867695155E-009
  -1.8799999999999983E-002     1.5754886284469194E-009
  -1.7699999999999994E-002     5.7239590844915256E-009
  -1.6599999999999990E-002     1.1035695024474990E-008
  -1.5499999999999986E-002     1.7315796796424365E-008
  -1.4399999999999996E-002     2.4378261187507633E-008
  -1.3299999999999992E-002     3.2129630511690266E-008
  -1.2199999999999989E-002     4.0597811334919243E-008
  -1.1099999999999985E-002     4.9950212854810161E-008
  -9.9999999999999950E-003     6.0562541648323531E-008
  -8.8999999999999913E-003     7.3109802656290412E-008
  -7.7999999999999875E-003     8.8576392442973884E-008
  -6.6999999999999837E-003     1.0814465412067875E-007
  -5.5999999999999939E-003     1.3305694324117212E-007
  -4.4999999999999901E-003     1.6457204310427187E-007
  -3.3999999999999864E-003     2.0401968470196152E-007
  -2.2999999999999826E-003     2.5285584115408710E-007
  -1.1999999999999927E-003     3.1267254030353797E-007
  -9.9999999999988987E-005     3.8522276213370787E-007
   1.0000000000000148E-003     4.7251756996047334E-007
   2.1000000000000185E-003     5.7696416888575186E-007
   3.2000000000000084E-003     7.0149826569831930E-007
   4.3000000000000121E-003     8.4973692082712660E-007
   5.4000000000000159E-003     1.0261701390845701E-006
   6.5000000000000058E-003     1.2362642110019806E-006
   7.6000000000000234E-003     1.4863175010759733E-006
   8.7000000000000133E-003     1.7831731611295254E-006
   9.8000000000000032E-003     2.1341147657949477E-006
   1.0900000000000021E-002     2.5471488243056228E-006
   1.2000000000000011E-002     3.0314013201859780E-006
   1.3100000000000001E-002     3.5971975194115657E-006
   1.4200000000000018E-002     4.2558162931527477E-006
   1.5300000000000008E-002     5.0194125833513681E-006
   1.6400000000000026E-002     5.9014168982685078E-006
   1.7500000000000016E-002     6.9171314862614963E-006
   1.8600000000000005E-002     8.0838135545491241E-006
   1.9700000000000023E-002     9.4202232503448613E-006
   2.0800000000000013E-002     1.0946049769700039E-005
   2.1900000000000003E-002     1.2681752195931040E-005
   2.3000000000000020E-002     1.4648725482402369E-005
   2.4100000000000010E-002     1.6869280443643220E-005
   2.5200000000000000E-002     1.9366476408322342E-005
   2.6300000000000018E-002     2.2163918401929550E-005
   2.7400000000000008E-002     2.5285566152888350E-005
   2.8500000000000025E-002     2.8755221137544140E-005
   2.9600000000000015E-002     3.2595955417491496E-005
   3.0700000000000005E-002     3.6829987948294729E-005
   3.1800000000000023E-002     4.1478626371826977E-005
   3.2900000000000013E-002     4.6561672206735238E-005
   3.4000000000000002E-002     5.2095729188295081E-005
   3.5100000000000020E-002     5.8092271501664072E-005
   3.6200000000000010E-002     6.4557410951238126E-005
   3.7300000000000028E-002     7.1492329880129546E-005
   3.8400000000000017E-002     7.8893193858675659E-005
   3.9500000000000007E-002     8.6749823822174221E-005
   4.0600000000000025E-002     9.5042407338041812E-005
   4.1700000000000015E-002     1.0374059638706967E-004
   4.2800000000000005E-002     1.1280381295364350E-004
   4.3900000000000022E-002     1.2218201300129294E-004
   4.5000000000000012E-002     1.3181523536331952E-004
   4.6100000000000002E-002     1.4163176820147783E-004
   4.7200000000000020E-002     1.5154521679505706E-004
   4.8300000000000010E-002     1.6145425615832210E-004
   4.9400000000000027E-002     1.7124353325925767E-004
   5.0500000000000017E-002     1.8078573339153081E-004
   5.1600000000000007E-002     1.8994358833879232E-004
   5.2700000000000025E-002     1.9856847939081490E-004
   5.3800000000000014E-002     2.0649906946346164E-004
   5.4900000000000004E-002     2.1356117213144898E-004
   5.6000000000000022E-002     2.1957031276542693E-004
   5.7100000000000012E-002     2.2433807316701859E-004
   5.8200000000000002E-002     2.2767677728552371E-004
   5.9300000000000019E-002     2.2939952032174915E-004
   6.0400000000000009E-002     2.2931830608285964E-004
   6.1500000000000027E-002     2.2724541486240923E-004
   6.2600000000000017E-002     2.2300034470390528E-004
   6.3700000000000007E-002     2.1641877538058907E-004
   6.4800000000000024E-002     2.0735664293169975E-004
   6.5900000000000014E-002     1.9569214782677591E-004
   6.7000000000000004E-002     1.8132213153876364E-004
   6.8100000000000022E-002     1.6416821745224297E-004
   6.9200000000000012E-002     1.4418270438909531E-004
   7.0300000000000029E-002     1.2135673750890419E-004
   7.1400000000000019E-002     9.5721334218978882E-005
   7.2500000000000009E-002     6.7349967139307410E-005
   7.3600000000000027E-002     3.6359000660013407E-005
   7.4700000000000016E-002     2.9021937280049315E-006
   7.5800000000000006E-002    -3.2826326787471771E-005
   7.6900000000000024E-002    -7.0585585490334779E-005
   7.8000000000000014E-002    -1.1008707224391401E-004
   7.9100000000000004E-002    -1.5099524171091616E-004
   8.0200000000000021E-002    -1.9293729565106332E-004
   8.1300000000000011E-002    -2.3551467165816575E-004
   8.2400000000000029E-002    -2.7830342878587544E-004
   8.3500000000000019E-002    -3.2084848498925567E-004
   8.4600000000000009E-002    -3.6266856477595866E-004
   8.5700000000000026E-002    -4.0326535236090422E-004
   8.6800000000000016E-002    -4.4213852379471064E-004
   8.7900000000000006E-002    -4.7879831981845200E-004
   8.9000000000000024E-002    -5.1277113379910588E-004
   9.0100000000000013E-002    -5.4359622299671173E-004
   9.1200000000000003E-002    -5.7082902640104294E-004
   9.2300000000000021E-002    -5.9405429055914283E-004
   9.3400000000000011E-002    -6.1290297890082002E-004
   9.4500000000000028E-002    -6.2706216704100370E-004
   9.5600000000000018E-002    -6.3627766212448478E-004
   9.6700000000000008E-002    -6.4035085961222649E-004
   9.7800000000000026E-002    -6.3914066413417459E-004
   9.8900000000000016E-002    -6.3256727298721671E-004
  0.10000000000000001         -6.2062049983069301E-004
  0.10110000000000002         -6.0336868045851588E-004
  0.10220000000000001         -5.8096076827496290E-004
  0.10330000000000003         -5.5361370323225856E-004
  0.10440000000000002         -5.2160007180646062E-004
  0.10550000000000001         -4.8524606972932816E-004
  0.10660000000000003         -4.4493057066574693E-004
  0.10770000000000002         -4.0109604015015066E-004
  0.10880000000000001         -3.5424306406639516E-004
  0.10990000000000003         -3.0491023790091276E-004
  0.11100000000000002         -2.5364384055137634E-004
  0.11210000000000001         -2.0100121037103236E-004
  0.11320000000000002         -1.4754742733202875E-004
  0.11430000000000001         -9.3864502559881657E-005
  0.11540000000000003         -4.0542636270401999E-005
  0.11650000000000002          1.1852243005705532E-005
  0.11760000000000001          6.2790990341454744E-005
  0.11870000000000003          1.1178290151292458E-004
  0.11980000000000002          1.5837782120797783E-004
  0.12090000000000001          2.0216061966493726E-004
  0.12200000000000003          2.4275656323879957E-004
  0.12310000000000001          2.7984258485957980E-004
  0.12420000000000003          3.1316152308136225E-004
  0.12530000000000002          3.4251972101628780E-004
  0.12640000000000001          3.6779066431336105E-004
  0.12750000000000003          3.8889650022611022E-004
  0.12860000000000002          4.0580757195129991E-004
  0.12970000000000001          4.1854300070554018E-004
  0.13080000000000003          4.2718279291875660E-004
  0.13190000000000002          4.3186001130379736E-004
  0.13300000000000001          4.3275923235341907E-004
  0.13410000000000000          4.3009535875171423E-004
  0.13520000000000004          4.2410922469571233E-004
  0.13630000000000003          4.1506311390548944E-004
  0.13740000000000002          4.0324681322090328E-004
  0.13850000000000001          3.8897336344234645E-004
  0.13960000000000000          3.7256535142660141E-004
  0.14070000000000005          3.5434521851129830E-004
  0.14180000000000004          3.3463290310464799E-004
  0.14290000000000003          3.1374432728625834E-004
  0.14400000000000002          2.9198679840192199E-004
  0.14510000000000001          2.6965388678945601E-004
  0.14620000000000000          2.4702231166884303E-004
  0.14730000000000004          2.2435199934989214E-004
  0.14840000000000003          2.0188119378872216E-004
  0.14950000000000002          1.7982136341743171E-004
  0.15060000000000001          1.5835804515518248E-004
  0.15170000000000000          1.3765542826149613E-004
  0.15280000000000005          1.1785617243731394E-004
  0.15390000000000004          9.9075921752955765E-005
  0.15500000000000003          8.1400081398896873E-005
  0.15610000000000002          6.4891893998719752E-005
  0.15720000000000001          4.9601047066971660E-005
  0.15830000000000000          3.5562341508921236E-005
  0.15940000000000004          2.2785532564739697E-005
  0.16050000000000003          1.1253549928369466E-005
  0.16160000000000002          9.3498471187558607E-007
  0.16270000000000001         -8.2036003732355312E-006
  0.16380000000000000         -1.6198786397580989E-005
  0.16490000000000005         -2.3101987608242780E-005
  0.16600000000000004         -2.8979467970202677E-005
  0.16710000000000003         -3.3903572330018505E-005
  0.16820000000000002         -3.7944973882986233E-005
  0.16930000000000001         -4.1173094359692186E-005
  0.17040000000000000         -4.3661617382895201E-005
  0.17150000000000004         -4.5486594899557531E-005
  0.17260000000000003         -4.6718098019482568E-005
  0.17370000000000002         -4.7420213377336040E-005
  0.17480000000000001         -4.7659890697104856E-005
  0.17590000000000000         -4.7508088755421340E-005
  0.17700000000000005         -4.7029392590047792E-005
  0.17810000000000004         -4.6273125917650759E-005
  0.17920000000000003         -4.5280838094186038E-005
  0.18030000000000002         -4.4099135266151279E-005
  0.18140000000000001         -4.2778869101312011E-005
  0.18250000000000000         -4.1362160118296742E-005
  0.18360000000000004         -3.9876013033790514E-005
  0.18470000000000003         -3.8341077015502378E-005
  0.18580000000000002         -3.6784793337574229E-005
  0.18690000000000001         -3.5236414987593889E-005
  0.18800000000000000         -3.3714713936205953E-005
  0.18910000000000005         -3.2224921596935019E-005
  0.19020000000000004         -3.0773509934078902E-005
  0.19130000000000003         -2.9376493330346420E-005
  0.19240000000000002         -2.8049640604876913E-005
  0.19350000000000001         -2.6794916266226210E-005
  0.19460000000000005         -2.5603856556699611E-005
  0.19570000000000004         -2.4473263692925684E-005
  0.19680000000000003         -2.3410191715811379E-005
  0.19790000000000002         -2.2418655134970322E-005
  0.19900000000000001         -2.1491610823431984E-005
  0.20010000000000000         -2.0618810594896786E-005
  0.20120000000000005         -1.9799173969659023E-005
  0.20230000000000004         -1.9036071535083465E-005
  0.20340000000000003         -1.8323426047572866E-005
  0.20450000000000002         -1.7644362742430530E-005
  0.20560000000000000         -1.6987938579404727E-005
  0.20670000000000005         -1.6358180801034905E-005
  0.20780000000000004         -1.5762039765832014E-005
  0.20890000000000003         -1.5191644706646912E-005
