 -0.12000000000000000          0.0000000000000000
 -0.11889999999999999          0.0000000000000000
 -0.11780000000000000          0.0000000000000000
 -0.11670000000000000          0.0000000000000000
 -0.11559999999999999          0.0000000000000000
 -0.11449999999999999          0.0000000000000000
 -0.11340000000000000          0.0000000000000000
 -0.11230000000000000          0.0000000000000000
 -0.11119999999999999          0.0000000000000000
 -0.11009999999999999          2.4000252904485224E-024
 -0.10900000000000000         -1.4065604510256861E-023
 -0.10790000000000000         -2.0158546838852304E-023
 -0.10679999999999999          2.3609311899202873E-022
 -0.10569999999999999          1.4395318076380483E-022
 -0.10460000000000000         -2.2927544226119769E-021
 -0.10349999999999999         -1.7718410669277589E-021
 -0.10239999999999999          1.5905062745499428E-020
 -0.10130000000000000          2.0831346577081788E-020
 -0.10020000000000000         -7.9272472725455809E-020
  -9.9099999999999994E-002    -1.7510798352167010E-019
  -9.7999999999999990E-002     2.4450905730032853E-019
  -9.6899999999999986E-002     1.0396053501451674E-018
  -9.5799999999999996E-002    -4.3665930727310941E-020
  -9.4699999999999993E-002    -4.2844882754271199E-018
  -9.3599999999999989E-002    -4.3870255841591932E-018
  -9.2499999999999999E-002     1.0761617287773052E-017
  -9.1399999999999995E-002     2.7231442546652038E-017
  -9.0299999999999991E-002    -3.8410049025838585E-018
  -8.9200000000000002E-002    -8.9253741006537347E-017
  -8.8099999999999984E-002    -9.5308842056768419E-017
  -8.6999999999999994E-002     1.3636466797652727E-016
  -8.5899999999999990E-002     4.2458889674771292E-016
  -8.4799999999999986E-002     1.7978720321258813E-016
  -8.3699999999999997E-002    -8.1178102417635246E-016
  -8.2599999999999993E-002    -1.4590214514255840E-015
  -8.1499999999999989E-002    -9.5571230364515139E-017
  -8.0399999999999999E-002     2.9471611427206923E-015
  -7.9299999999999995E-002     4.1579691180740602E-015
  -7.8199999999999992E-002     1.5542916939262482E-016
  -7.7100000000000002E-002    -7.2640402062050004E-015
  -7.5999999999999984E-002    -1.1160700930600530E-014
  -7.4899999999999994E-002    -5.5982478479592746E-015
  -7.3799999999999991E-002     9.6390655331644870E-015
  -7.2699999999999987E-002     2.9311117741943546E-014
  -7.1599999999999997E-002     4.0210737707211883E-014
  -7.0499999999999993E-002     1.6085596125491736E-014
  -6.9399999999999989E-002    -6.4578333999754101E-014
  -6.8300000000000000E-002    -1.6458464094631226E-013
  -6.7199999999999996E-002    -1.5898698644493253E-013
  -6.6099999999999992E-002     6.9541994504509347E-014
  -6.5000000000000002E-002     4.3670779882945543E-013
  -6.3899999999999985E-002     5.9355797187021775E-013
  -6.2799999999999995E-002     1.9792697483148741E-013
  -6.1699999999999991E-002    -6.5364705835457837E-013
  -6.0599999999999994E-002    -1.3335568543534904E-012
  -5.9499999999999990E-002    -1.1716846026396666E-012
  -5.8399999999999994E-002    -7.9708653143596014E-014
  -5.7299999999999990E-002     1.3725820610308026E-012
  -5.6199999999999986E-002     2.4587792739338976E-012
  -5.5099999999999996E-002     2.6846086118026413E-012
  -5.3999999999999992E-002     1.6823698467324788E-012
  -5.2899999999999989E-002    -8.1627559529381943E-013
  -5.1799999999999985E-002    -4.3534737446948579E-012
  -5.0699999999999995E-002    -7.1745387408839179E-012
  -4.9599999999999991E-002    -7.0335512587782478E-012
  -4.8499999999999988E-002    -3.1001104461303441E-012
  -4.7399999999999998E-002     3.2307162587535965E-012
  -4.6299999999999994E-002     9.8256515770889230E-012
  -4.5199999999999990E-002     1.5510946693719774E-011
  -4.4099999999999986E-002     1.9168104603561886E-011
  -4.2999999999999997E-002     1.7401254048809989E-011
  -4.1899999999999993E-002     5.4186043672854733E-012
  -4.0799999999999989E-002    -1.7505819710494919E-011
  -3.9699999999999985E-002    -4.3707100438883373E-011
  -3.8599999999999995E-002    -6.0405867807755698E-011
  -3.7499999999999992E-002    -5.8461339935700352E-011
  -3.6399999999999988E-002    -3.7237466582462631E-011
  -3.5299999999999984E-002    -1.0055260660571386E-012
  -3.4199999999999994E-002     4.6557029065308342E-011
  -3.3099999999999991E-002     1.0134670186401351E-010
  -3.1999999999999987E-002     1.5312340284623360E-010
  -3.0899999999999997E-002     1.8410384328149121E-010
  -2.9799999999999993E-002     1.7434101384772305E-010
  -2.8699999999999989E-002     1.0730490801469372E-010
  -2.7599999999999986E-002    -2.7166843427628429E-011
  -2.6499999999999996E-002    -2.2586343906283446E-010
  -2.5399999999999992E-002    -4.5923675973114086E-010
  -2.4299999999999988E-002    -6.6683703003889150E-010
  -2.3199999999999985E-002    -7.7470563297765693E-010
  -2.2099999999999995E-002    -7.2147460228322302E-010
  -2.0999999999999991E-002    -4.6298334610561653E-010
  -1.9899999999999987E-002     4.8682058384486027E-011
  -1.8799999999999983E-002     8.7559309802642815E-010
  -1.7699999999999994E-002     2.0657007215874046E-009
  -1.6599999999999990E-002     3.6150422655367720E-009
  -1.5499999999999986E-002     5.4777999913824260E-009
  -1.4399999999999996E-002     7.6281558847313136E-009
  -1.3299999999999992E-002     1.0106914416496693E-008
  -1.2199999999999989E-002     1.3000418519482082E-008
  -1.1099999999999985E-002     1.6389787305115533E-008
  -9.9999999999999950E-003     2.0351585305888875E-008
  -8.8999999999999913E-003     2.5020845839662798E-008
  -7.7999999999999875E-003     3.0640308068541344E-008
  -6.6999999999999837E-003     3.7540615949183120E-008
  -5.5999999999999939E-003     4.6092335281855412E-008
  -4.4999999999999901E-003     5.6698144845768184E-008
  -3.3999999999999864E-003     6.9819918735447573E-008
  -2.2999999999999826E-003     8.5982499342662777E-008
  -1.1999999999999927E-003     1.0575493547548831E-007
  -9.9999999999988987E-005     1.2977118046819669E-007
   1.0000000000000148E-003     1.5880043235938501E-007
   2.1000000000000185E-003     1.9377623061700433E-007
   3.2000000000000084E-003     2.3574789054237044E-007
   4.3000000000000121E-003     2.8586319444912078E-007
   5.4000000000000159E-003     3.4549333349787048E-007
   6.5000000000000058E-003     4.1639955838945752E-007
   7.6000000000000234E-003     5.0070974566551740E-007
   8.7000000000000133E-003     6.0067560525567387E-007
   9.8000000000000032E-003     7.1852986138765118E-007
   1.0900000000000021E-002     8.5670700400442001E-007
   1.2000000000000011E-002     1.0182291134697152E-006
   1.3100000000000001E-002     1.2068140904375468E-006
   1.4200000000000018E-002     1.4265588106354699E-006
   1.5300000000000008E-002     1.6816629795357585E-006
   1.6400000000000026E-002     1.9764959233725676E-006
   1.7500000000000016E-002     2.3160023374657612E-006
   1.8600000000000005E-002     2.7058681553171482E-006
   1.9700000000000023E-002     3.1523036341241095E-006
   2.0800000000000013E-002     3.6617680052586365E-006
   2.1900000000000003E-002     4.2409214984218124E-006
   2.3000000000000020E-002     4.8967012844514102E-006
   2.4100000000000010E-002     5.6363774092460517E-006
   2.5200000000000000E-002     6.4675491557864007E-006
   2.6300000000000018E-002     7.3983078436867800E-006
   2.7400000000000008E-002     8.4371768025448546E-006
   2.8500000000000025E-002     9.5924051493057050E-006
   2.9600000000000015E-002     1.0871371159737464E-005
   3.0700000000000005E-002     1.2280665032449178E-005
   3.1800000000000023E-002     1.3826780559611507E-005
   3.2900000000000013E-002     1.5516623534495011E-005
   3.4000000000000002E-002     1.7356444004690275E-005
   3.5100000000000020E-002     1.9350594811839983E-005
   3.6200000000000010E-002     2.1500605726032518E-005
   3.7300000000000028E-002     2.3805829187040217E-005
   3.8400000000000017E-002     2.6264695407007821E-005
   3.9500000000000007E-002     2.8874526833533309E-005
   4.0600000000000025E-002     3.1629977456759661E-005
   4.1700000000000015E-002     3.4521166526246816E-005
   4.2800000000000005E-002     3.7533751310547814E-005
   4.3900000000000022E-002     4.0650531445862725E-005
   4.5000000000000012E-002     4.3851738155353814E-005
   4.6100000000000002E-002     4.7113499022088945E-005
   4.7200000000000020E-002     5.0408300012350082E-005
   4.8300000000000010E-002     5.3703668527305126E-005
   4.9400000000000027E-002     5.6961082009365782E-005
   5.0500000000000017E-002     6.0136851971037686E-005
   5.1600000000000007E-002     6.3184175814967602E-005
   5.2700000000000025E-002     6.6053238697350025E-005
   5.3800000000000014E-002     6.8693436332978308E-005
   5.4900000000000004E-002     7.1048591053113341E-005
   5.6000000000000022E-002     7.3058043199125677E-005
   5.7100000000000012E-002     7.4656592914834619E-005
   5.8200000000000002E-002     7.5778458267450333E-005
   5.9300000000000019E-002     7.6362317486200482E-005
   6.0400000000000009E-002     7.6349053415469825E-005
   6.1500000000000027E-002     7.5679876317735761E-005
   6.2600000000000017E-002     7.4292729550506920E-005
   6.3700000000000007E-002     7.2127055318560451E-005
   6.4800000000000024E-002     6.9134148361627012E-005
   6.5900000000000014E-002     6.5274194639641792E-005
   6.7000000000000004E-002     6.0515834775287658E-005
   6.8100000000000022E-002     5.4835498303873464E-005
   6.9200000000000012E-002     4.8215330025414005E-005
   7.0300000000000029E-002     4.0648592403158545E-005
   7.1400000000000019E-002     3.2142048439709470E-005
   7.2500000000000009E-002     2.2719254047842696E-005
   7.3600000000000027E-002     1.2419696759025101E-005
   7.4700000000000016E-002     1.2993933751204167E-006
   7.5800000000000006E-002    -1.0574680345598608E-005
   7.6900000000000024E-002    -2.3127771783038042E-005
   7.8000000000000014E-002    -3.6270896089263260E-005
   7.9100000000000004E-002    -4.9897873395821080E-005
   8.0200000000000021E-002    -6.3878818764351308E-005
   8.1300000000000011E-002    -7.8071723692119122E-005
   8.2400000000000029E-002    -9.2332309577614069E-005
   8.3500000000000019E-002    -1.0651879711076617E-004
   8.4600000000000009E-002    -1.2048016651533544E-004
   8.5700000000000026E-002    -1.3405145728029311E-004
   8.6800000000000016E-002    -1.4705720241181552E-004
   8.7900000000000006E-002    -1.5932475798763335E-004
   8.9000000000000024E-002    -1.7069504247047007E-004
   9.0100000000000013E-002    -1.8102157628163695E-004
   9.1200000000000003E-002    -1.9016224541701376E-004
   9.2300000000000021E-002    -1.9797842833213508E-004
   9.3400000000000011E-002    -2.0434182079043239E-004
   9.4500000000000028E-002    -2.0914102788083255E-004
   9.5600000000000018E-002    -2.1228494006209075E-004
   9.6700000000000008E-002    -2.1370722970459610E-004
   9.7800000000000026E-002    -2.1336718054953963E-004
   9.8900000000000016E-002    -2.1124482736922801E-004
  0.10000000000000001         -2.0733576093334705E-004
  0.10110000000000002         -2.0165147725492716E-004
  0.10220000000000001         -1.9422691548243165E-004
  0.10330000000000003         -1.8513423856347799E-004
  0.10440000000000002         -1.7448088328819722E-004
  0.10550000000000001         -1.6238423995673656E-004
  0.10660000000000003         -1.4896606444381177E-004
  0.10770000000000002         -1.3436055451165885E-004
  0.10880000000000001         -1.1872333561768755E-004
  0.10990000000000003         -1.0223905701423064E-004
  0.11100000000000002         -8.5103958554100245E-005
  0.11210000000000001         -6.7508670326787978E-005
  0.11320000000000002         -4.9643309466773644E-005
  0.11430000000000001         -3.1697640224592760E-005
  0.11540000000000003         -1.3859588761988562E-005
  0.11650000000000002          3.6851145068794722E-006
  0.11760000000000001          2.0754592696903273E-005
  0.11870000000000003          3.7171637814026326E-005
  0.11980000000000002          5.2774503274122253E-005
  0.12090000000000001          6.7430089984554797E-005
  0.12200000000000003          8.1029837019741535E-005
  0.12310000000000001          9.3470516731031239E-005
  0.12420000000000003          1.0465597006259486E-004
  0.12530000000000002          1.1450628517195582E-004
  0.12640000000000001          1.2297177454456687E-004
  0.12750000000000003          1.3003575440961868E-004
  0.12860000000000002          1.3570141163654625E-004
  0.12970000000000001          1.3997621135786176E-004
  0.13080000000000003          1.4287994417827576E-004
  0.13190000000000002          1.4445121632888913E-004
  0.13300000000000001          1.4475079660769552E-004
  0.13410000000000000          1.4384750102180988E-004
  0.13520000000000004          1.4182430459186435E-004
  0.13630000000000003          1.3877684250473976E-004
  0.13740000000000002          1.3481051428243518E-004
  0.13850000000000001          1.3002991909161210E-004
  0.13960000000000000          1.2452967348508537E-004
  0.14070000000000005          1.1840780643979087E-004
  0.14180000000000004          1.1177869600942358E-004
  0.14290000000000003          1.0476509487489238E-004
  0.14400000000000002          9.7476899100001901E-005
  0.14510000000000001          9.0001019998453557E-005
  0.14620000000000000          8.2416372606530786E-005
  0.14730000000000004          7.4810777732636780E-005
  0.14840000000000003          6.7276239860802889E-005
  0.14950000000000002          5.9890564443776384E-005
  0.15060000000000001          5.2711759053636342E-005
  0.15170000000000000          4.5789707655785605E-005
  0.15280000000000005          3.9173657569335774E-005
  0.15390000000000004          3.2903866667766124E-005
  0.15500000000000003          2.7004161893273704E-005
  0.15610000000000002          2.1491643565241247E-005
  0.15720000000000001          1.6388905351050198E-005
  0.15830000000000000          1.1718316272890661E-005
  0.15940000000000004          7.4820777626882773E-006
  0.16050000000000003          3.6615458611777285E-006
  0.16160000000000002          2.3772012980316504E-007
  0.16270000000000001         -2.7929872885579243E-006
  0.16380000000000000         -5.4285633268591482E-006
  0.16490000000000005         -7.6861588240717538E-006
  0.16600000000000004         -9.6018056865432300E-006
  0.16710000000000003         -1.1206321687495802E-005
  0.16820000000000002         -1.2514749869296793E-005
  0.16930000000000001         -1.3540729014493991E-005
  0.17040000000000000         -1.4312649000203237E-005
  0.17150000000000004         -1.4864906916045584E-005
  0.17260000000000003         -1.5218935004668310E-005
  0.17370000000000002         -1.5386131053674035E-005
  0.17480000000000001         -1.5387204257422127E-005
  0.17590000000000000         -1.5258356143021956E-005
  0.17700000000000005         -1.5029077985673212E-005
  0.17810000000000004         -1.4705374269396998E-005
  0.17920000000000003         -1.4285840734373778E-005
  0.18030000000000002         -1.3788125215796754E-005
  0.18140000000000001         -1.3244580259197392E-005
  0.18250000000000000         -1.2675458492594771E-005
  0.18360000000000004         -1.2078411600668915E-005
  0.18470000000000003         -1.1450100828369614E-005
  0.18580000000000002         -1.0805315469042398E-005
  0.18690000000000001         -1.0165626918023918E-005
  0.18800000000000000         -9.5368332040379755E-006
  0.18910000000000005         -8.9107834355672821E-006
  0.19020000000000004         -8.2880624177050777E-006
  0.19130000000000003         -7.6855394581798464E-006
  0.19240000000000002         -7.1153071985463612E-006
  0.19350000000000001         -6.5675735640979838E-006
  0.19460000000000005         -6.0276292970229406E-006
  0.19570000000000004         -5.5022642300173175E-006
  0.19680000000000003         -5.0146186367783230E-006
  0.19790000000000002         -4.5730375859420747E-006
  0.19900000000000001         -4.1596267692511901E-006
  0.20010000000000000         -3.7568345305771800E-006
  0.20120000000000005         -3.3724013519531582E-006
  0.20230000000000004         -3.0274923119577579E-006
  0.20340000000000003         -2.7260600745648844E-006
  0.20450000000000002         -2.4515743461961392E-006
  0.20560000000000000         -2.1932708023086889E-006
  0.20670000000000005         -1.9606834484875435E-006
  0.20780000000000004         -1.7659485820331611E-006
  0.20890000000000003         -1.6034491636673920E-006
