 -0.12000000000000000          0.0000000000000000
 -0.11889999999999999          0.0000000000000000
 -0.11780000000000000          0.0000000000000000
 -0.11670000000000000          0.0000000000000000
 -0.11559999999999999          0.0000000000000000
 -0.11449999999999999          0.0000000000000000
 -0.11340000000000000          0.0000000000000000
 -0.11230000000000000          4.5173359149350863E-021
 -0.11119999999999999         -2.1335502255219704E-021
 -0.11009999999999999         -5.0255073772323631E-020
 -0.10900000000000000          6.3249485043879290E-021
 -0.10790000000000000          3.2296861181644932E-019
 -0.10679999999999999          1.0674436871456362E-019
 -0.10569999999999999         -1.4623058100980340E-018
 -0.10460000000000000         -1.2596273280733003E-018
 -0.10349999999999999          4.7662481903453539E-018
 -0.10239999999999999          7.2483669864816926E-018
 -0.10130000000000000         -1.0592422456559006E-017
 -0.10020000000000000         -2.7792547280287584E-017
  -9.9099999999999994E-002     1.2570409824520308E-017
  -9.7999999999999990E-002     7.9820440952084611E-017
  -9.6899999999999986E-002     1.2145941266008109E-017
  -9.5799999999999996E-002    -1.8955655035397421E-016
  -9.4699999999999993E-002    -1.2843980125223643E-016
  -9.3599999999999989E-002     3.9215222001886272E-016
  -9.2499999999999999E-002     5.3948920721033438E-016
  -9.1399999999999995E-002    -6.0574269497646726E-016
  -9.0299999999999991E-002    -1.6980236559546464E-015
  -8.9200000000000002E-002     1.2997066772061077E-016
  -8.8099999999999984E-002     3.8443712629791533E-015
  -8.6999999999999994E-002     2.7951568451711718E-015
  -8.5899999999999990E-002    -5.4412799373388440E-015
  -8.4799999999999986E-002    -9.5917307909730749E-015
  -8.3699999999999997E-002     2.5227944597727356E-015
  -8.2599999999999993E-002     1.8417181367751286E-014
  -8.1499999999999989E-002     8.2132642904137430E-015
  -8.0399999999999999E-002    -2.5318118031226154E-014
  -7.9299999999999995E-002    -2.8646820294598099E-014
  -7.8199999999999992E-002     2.6885354294410579E-014
  -7.7100000000000002E-002     6.7104430193955233E-014
  -7.5999999999999984E-002    -4.8576119797590078E-015
  -7.4899999999999994E-002    -1.2584707310536042E-013
  -7.3799999999999991E-002    -8.8558927714959407E-014
  -7.2699999999999987E-002     1.4607454514644486E-013
  -7.1599999999999997E-002     2.6607237463630029E-013
  -7.0499999999999993E-002    -1.4646107677346309E-014
  -6.9399999999999989E-002    -4.1285166474738788E-013
  -6.8300000000000000E-002    -2.8991471224572296E-013
  -6.7199999999999996E-002     3.7689407259185181E-013
  -6.6099999999999992E-002     6.6022892448308612E-013
  -6.5000000000000002E-002    -1.0487533015418257E-013
  -6.3899999999999985E-002    -1.0222466319612100E-012
  -6.2799999999999995E-002    -5.2547040069877982E-013
  -6.1699999999999991E-002     1.1612584808681770E-012
  -6.0599999999999994E-002     1.6429040202922685E-012
  -5.9499999999999990E-002    -4.3079835488832319E-013
  -5.8399999999999994E-002    -2.6582638000538505E-012
  -5.7299999999999990E-002    -1.4798709133123644E-012
  -5.6199999999999986E-002     2.3741735574039913E-012
  -5.5099999999999996E-002     3.6569996163249296E-012
  -5.3999999999999992E-002    -3.4669267240036716E-013
  -5.2899999999999989E-002    -4.7691859142440229E-012
  -5.1799999999999985E-002    -2.8354079067288707E-012
  -5.0699999999999995E-002     3.9462586844118963E-012
  -4.9599999999999991E-002     6.1618475079294743E-012
  -4.8499999999999988E-002    -6.3204378796671845E-013
  -4.7399999999999998E-002    -7.9608342487547112E-012
  -4.6299999999999994E-002    -4.8449720797816287E-012
  -4.5199999999999990E-002     5.9952949722774651E-012
  -4.4099999999999986E-002     1.0003444253503524E-011
  -4.2999999999999997E-002     7.0881907114628273E-013
  -4.1899999999999993E-002    -9.9522647067917802E-012
  -4.0799999999999989E-002    -7.5308153810182965E-012
  -3.9699999999999985E-002     4.1721647837944520E-012
  -3.8599999999999995E-002     8.2177936330807277E-012
  -3.7499999999999992E-002    -6.3622284524056383E-013
  -3.6399999999999988E-002    -8.0508074165597243E-012
  -3.5299999999999984E-002    -1.8639614591392517E-012
  -3.4199999999999994E-002     9.1500270901767600E-012
  -3.3099999999999991E-002     8.9035463030073814E-012
  -3.1999999999999987E-002    -8.5812916017849461E-013
  -3.0899999999999997E-002    -4.3731294627202821E-012
  -2.9799999999999993E-002     6.2917656111147191E-013
  -2.8699999999999989E-002    -1.9723994573034309E-012
  -2.7599999999999986E-002    -1.6761344048821236E-011
  -2.6499999999999996E-002    -2.0917120466257266E-011
  -2.5399999999999992E-002     2.9883788586065885E-012
  -2.4299999999999988E-002     3.0761709152171690E-011
  -2.3199999999999985E-002     2.1641377925818439E-011
  -2.2099999999999995E-002    -1.9655128219442375E-011
  -2.0999999999999991E-002    -3.8393781209844491E-011
  -1.9899999999999987E-002    -5.0777507198951355E-012
  -1.8799999999999983E-002     3.2633729052378158E-011
  -1.7699999999999994E-002     9.1450423622685406E-012
  -1.6599999999999990E-002    -5.9807027386060696E-011
  -1.5499999999999986E-002    -8.4295945224077684E-011
  -1.4399999999999996E-002    -1.9571635978543611E-011
  -1.3299999999999992E-002     6.4479761807678670E-011
  -1.2199999999999989E-002     6.8610707393279569E-011
  -1.1099999999999985E-002    -7.5117065345686740E-012
  -9.9999999999999950E-003    -7.1575620430586184E-011
  -8.8999999999999913E-003    -6.8162253619163948E-011
  -7.7999999999999875E-003    -4.3156912071795617E-011
  -6.6999999999999837E-003    -6.1401578266284673E-011
  -5.5999999999999939E-003    -1.0966878793983170E-010
  -4.4999999999999901E-003    -1.3007266097542214E-010
  -3.3999999999999864E-003    -1.1138675398703057E-010
  -2.2999999999999826E-003    -9.1857244033377583E-011
  -1.1999999999999927E-003    -7.9670041397417179E-011
  -9.9999999999988987E-005    -4.8662997242931993E-011
   1.0000000000000148E-003    -2.3136598539807984E-011
   2.1000000000000185E-003    -9.6825804318800834E-011
   3.2000000000000084E-003    -3.0153507468710927E-010
   4.3000000000000121E-003    -4.9894138820505418E-010
   5.4000000000000159E-003    -5.2039339504261761E-010
   6.5000000000000058E-003    -3.9323497236232186E-010
   7.6000000000000234E-003    -3.2893374135589681E-010
   8.7000000000000133E-003    -4.5132553250226692E-010
   9.8000000000000032E-003    -6.1628363523524854E-010
   1.0900000000000021E-002    -6.1370875048538664E-010
   1.2000000000000011E-002    -4.6799647490658458E-010
   1.3100000000000001E-002    -4.5061748776831223E-010
   1.4200000000000018E-002    -7.3536254863171280E-010
   1.5300000000000008E-002    -1.1707133040772533E-009
   1.6400000000000026E-002    -1.4761625255488298E-009
   1.7500000000000016E-002    -1.5577037437708441E-009
   1.8600000000000005E-002    -1.5519604490421557E-009
   1.9700000000000023E-002    -1.5674674891386076E-009
   2.0800000000000013E-002    -1.5846488565784966E-009
   2.1900000000000003E-002    -1.6206925801398597E-009
   2.3000000000000020E-002    -1.7261397866619177E-009
   2.4100000000000010E-002    -1.9136376927519905E-009
   2.5200000000000000E-002    -2.1021553386901815E-009
   2.6300000000000018E-002    -2.3134651971901121E-009
   2.7400000000000008E-002    -2.5585427110286219E-009
   2.8500000000000025E-002    -2.9156972392030411E-009
   2.9600000000000015E-002    -3.2644993375186004E-009
   3.0700000000000005E-002    -3.4462999121132043E-009
   3.1800000000000023E-002    -3.2636298108457140E-009
   3.2900000000000013E-002    -3.0783471327566758E-009
   3.4000000000000002E-002    -3.0082958346611122E-009
   3.5100000000000020E-002    -2.9692774905498709E-009
   3.6200000000000010E-002    -2.9770765852532577E-009
   3.7300000000000028E-002    -2.8252029604658446E-009
   3.8400000000000017E-002    -2.5931568004011751E-009
   3.9500000000000007E-002    -2.5799460345865555E-009
   4.0600000000000025E-002    -2.6674753517141880E-009
   4.1700000000000015E-002    -2.7395170576482997E-009
   4.2800000000000005E-002    -2.3703152773890679E-009
   4.3900000000000022E-002    -1.6913179745614570E-009
   4.5000000000000012E-002    -1.2180104702608219E-009
   4.6100000000000002E-002    -5.4032334162457119E-010
   4.7200000000000020E-002     7.8308026729700941E-011
   4.8300000000000010E-002     1.3521588293485820E-009
   4.9400000000000027E-002     2.4019930489060926E-009
   5.0500000000000017E-002     2.6816178166910731E-009
   5.1600000000000007E-002     3.5769096573545767E-009
   5.2700000000000025E-002     4.4545078736746291E-009
   5.3800000000000014E-002     4.5318202523958462E-009
   5.4900000000000004E-002     5.0071555790509592E-009
   5.6000000000000022E-002     6.7929479818928939E-009
   5.7100000000000012E-002     9.3763903308285990E-009
   5.8200000000000002E-002     1.1296530821880424E-008
   5.9300000000000019E-002     1.0325003074740380E-008
   6.0400000000000009E-002     8.8383993457341603E-009
   6.1500000000000027E-002     1.0170908559814507E-008
   6.2600000000000017E-002     1.3985910207736652E-008
   6.3700000000000007E-002     1.6769368116342775E-008
   6.4800000000000024E-002     1.5463362146306281E-008
   6.5900000000000014E-002     1.2826971484969363E-008
   6.7000000000000004E-002     1.1369567509689205E-008
   6.8100000000000022E-002     1.2780586367000524E-008
   6.9200000000000012E-002     1.5272645370600912E-008
   7.0300000000000029E-002     1.6282648118703946E-008
   7.1400000000000019E-002     1.5847405165914097E-008
   7.2500000000000009E-002     1.3439579227281229E-008
   7.3600000000000027E-002     9.8260928282911664E-009
   7.4700000000000016E-002     6.3545009254539764E-009
   7.5800000000000006E-002     7.0281021002926991E-009
   7.6900000000000024E-002     1.1784446307672169E-008
   7.8000000000000014E-002     1.3545049526442199E-008
   7.9100000000000004E-002     6.3020406670943885E-009
   8.0200000000000021E-002    -3.3239109242799714E-009
   8.1300000000000011E-002    -5.9148024256217013E-009
   8.2400000000000029E-002    -9.6812913241706156E-010
   8.3500000000000019E-002     3.0673110718026919E-009
   8.4600000000000009E-002    -5.5374832497179227E-010
   8.5700000000000026E-002    -9.7248173958064399E-009
   8.6800000000000016E-002    -1.6225362386990128E-008
   8.7900000000000006E-002    -1.6216811005165255E-008
   8.9000000000000024E-002    -1.2877212185458120E-008
   9.0100000000000013E-002    -1.1702524282952709E-008
   9.1200000000000003E-002    -1.3124224373939342E-008
   9.2300000000000021E-002    -1.6286467285908657E-008
   9.3400000000000011E-002    -2.1181859821695070E-008
   9.4500000000000028E-002    -2.5642242107437596E-008
   9.5600000000000018E-002    -2.4924963426542490E-008
   9.6700000000000008E-002    -1.8048783800850288E-008
   9.7800000000000026E-002    -1.1445507652751985E-008
   9.8900000000000016E-002    -1.3960026912229750E-008
  0.10000000000000001         -2.5245739720958227E-008
  0.10110000000000002         -3.3414202960102557E-008
  0.10220000000000001         -2.8051539757711907E-008
  0.10330000000000003         -1.2164665719183176E-008
  0.10440000000000002         -1.7996611978432497E-009
  0.10550000000000001         -5.7292481869808398E-009
  0.10660000000000003         -1.8465495799091514E-008
  0.10770000000000002         -2.2077081496263418E-008
  0.10880000000000001         -1.4384062829719824E-008
  0.10990000000000003         -2.6009017162209602E-009
  0.11100000000000002          3.5682510279855251E-009
  0.11210000000000001          3.1701115066340435E-009
  0.11320000000000002         -4.5820960914433329E-010
  0.11430000000000001         -5.5710773771977529E-009
  0.11540000000000003         -7.4584738385397031E-009
  0.11650000000000002         -1.1457136350756514E-009
  0.11760000000000001          1.3229035644712894E-008
  0.11870000000000003          2.3716971497833583E-008
  0.11980000000000002          2.0039458092924178E-008
  0.12090000000000001          5.4204298827187358E-009
  0.12200000000000003         -3.5548253229933380E-009
  0.12310000000000001          3.4028697637467076E-009
  0.12420000000000003          1.9338754597697516E-008
  0.12530000000000002          2.6314898704526968E-008
  0.12640000000000001          1.7345659131251523E-008
  0.12750000000000003          4.1307557374636872E-009
  0.12860000000000002          6.9319732245998189E-012
  0.12970000000000001          5.1105555343156084E-009
  0.13080000000000003          1.4077685683844265E-008
  0.13190000000000002          2.0750336560126925E-008
  0.13300000000000001          2.1625373491929167E-008
  0.13410000000000000          1.5046710544197595E-008
  0.13520000000000004          2.4557911260103538E-009
  0.13630000000000003         -6.9892274190408443E-009
  0.13740000000000002         -3.7242389172575940E-009
  0.13850000000000001          1.0175299713921504E-008
  0.13960000000000000          1.9707453446926593E-008
  0.14070000000000005          1.3103729656904761E-008
  0.14180000000000004         -3.0935765060746689E-009
  0.14290000000000003         -1.1254096321522411E-008
  0.14400000000000002         -3.9686414154971317E-009
  0.14510000000000001          8.0805797608718422E-009
  0.14620000000000000          1.1029094082459778E-008
  0.14730000000000004          3.9369147941670235E-009
  0.14840000000000003         -3.9522602968133924E-009
  0.14950000000000002         -7.9276949449536005E-009
  0.15060000000000001         -1.0008629480751097E-008
  0.15170000000000000         -9.5488390527975753E-009
  0.15280000000000005         -2.7570354887984649E-009
  0.15390000000000004          7.9165110022927365E-009
  0.15500000000000003          1.0954104290306077E-008
  0.15610000000000002         -4.6022860522576536E-010
  0.15720000000000001         -1.5952204890368193E-008
  0.15830000000000000         -1.6904307287290976E-008
  0.15940000000000004         -1.2289338435778063E-009
  0.16050000000000003          1.2559280726520683E-008
  0.16160000000000002          8.8859009039765624E-009
  0.16270000000000001         -6.1731197931180759E-009
  0.16380000000000000         -1.5196532032746290E-008
  0.16490000000000005         -1.1027047719380789E-008
  0.16600000000000004         -2.1217645418403208E-009
  0.16710000000000003          3.1299227654102424E-009
  0.16820000000000002          5.1540403056549167E-009
  0.16930000000000001          6.0895897213697481E-009
  0.17040000000000000          1.7110121097729802E-009
  0.17150000000000004         -9.4670529193763286E-009
  0.17260000000000003         -1.6474064779004038E-008
  0.17370000000000002         -7.1194050654810326E-009
  0.17480000000000001          1.2078393396564024E-008
  0.17590000000000000          1.8787089217653374E-008
  0.17700000000000005          2.7535451696536484E-009
  0.17810000000000004         -1.8033185611443514E-008
  0.17920000000000003         -1.9082381896851075E-008
  0.18030000000000002          1.1311641207045753E-010
  0.18140000000000001          1.6059908958254709E-008
  0.18250000000000000          1.2924155967652950E-008
  0.18360000000000004         -4.0825889890960809E-010
  0.18470000000000003         -6.9807022384793527E-009
  0.18580000000000002         -4.5743027143885229E-009
  0.18690000000000001         -2.3292745510161694E-009
  0.18800000000000000         -2.4723172398211091E-009
  0.18910000000000005          1.2837152452149780E-009
  0.19020000000000004          8.0976443328495407E-009
  0.19130000000000003          6.6266911957768571E-009
  0.19240000000000002         -6.3974705533098586E-009
  0.19350000000000001         -1.5524380003739680E-008
  0.19460000000000005         -5.6270477166719957E-009
  0.19570000000000004          1.4294687211702239E-008
  0.19680000000000003          1.9498742176438100E-008
  0.19790000000000002          2.7561051219038291E-009
  0.19900000000000001         -1.5222767046907393E-008
  0.20010000000000000         -1.3534888765320829E-008
  0.20120000000000005          1.7442377542309373E-009
  0.20230000000000004          8.7153289030084125E-009
  0.20340000000000003          1.3310244018072126E-009
  0.20450000000000002         -5.4476800848135554E-009
  0.20560000000000000         -8.2022849623442085E-010
  0.20670000000000005          5.8608340403054626E-009
  0.20780000000000004          2.4111213026145606E-009
  0.20890000000000003         -5.3535642585700316E-009
