 -0.12000000000000000          0.0000000000000000
 -0.11889999999999999          0.0000000000000000
 -0.11780000000000000          0.0000000000000000
 -0.11670000000000000          0.0000000000000000
 -0.11559999999999999          0.0000000000000000
 -0.11449999999999999          0.0000000000000000
 -0.11340000000000000          0.0000000000000000
 -0.11230000000000000          4.5173342993479524E-021
 -0.11119999999999999         -2.1335478021412696E-021
 -0.11009999999999999         -5.0255099621717774E-020
 -0.10900000000000000          6.3248685328248013E-021
 -0.10790000000000000          3.2296850841887275E-019
 -0.10679999999999999          1.0674454966032261E-019
 -0.10569999999999999         -1.4623034319537729E-018
 -0.10460000000000000         -1.2596255703144987E-018
 -0.10349999999999999          4.7662457088035162E-018
 -0.10239999999999999          7.2483529244112792E-018
 -0.10130000000000000         -1.0592434037087582E-017
 -0.10020000000000000         -2.7792524119230432E-017
  -9.9099999999999994E-002     1.2570486752317275E-017
  -9.7999999999999990E-002     7.9820460804419312E-017
  -9.6899999999999986E-002     1.2145693111824343E-017
  -9.5799999999999996E-002    -1.8955661652842322E-016
  -9.4699999999999993E-002    -1.2843960272888942E-016
  -9.3599999999999989E-002     3.9215208766996471E-016
  -9.2499999999999999E-002     5.3948910133121597E-016
  -9.1399999999999995E-002    -6.0574227145999363E-016
  -9.0299999999999991E-002    -1.6980230206799360E-015
  -8.9200000000000002E-002     1.2997036331814535E-016
  -8.8099999999999984E-002     3.8443716864956269E-015
  -8.6999999999999994E-002     2.7951598097864872E-015
  -8.5899999999999990E-002    -5.4412812078882648E-015
  -8.4799999999999986E-002    -9.5917426494343365E-015
  -8.3699999999999997E-002     2.5227781543885009E-015
  -8.2599999999999993E-002     1.8417184755883075E-014
  -8.1499999999999989E-002     8.2132668315125848E-015
  -8.0399999999999999E-002    -2.5318129889687416E-014
  -7.9299999999999995E-002    -2.8646837235257044E-014
  -7.8199999999999992E-002     2.6885467796825512E-014
  -7.7100000000000002E-002     6.7104586048017528E-014
  -7.5999999999999984E-002    -4.8576742366806310E-015
  -7.4899999999999994E-002    -1.2584737126095785E-013
  -7.3799999999999991E-002    -8.8559076792758123E-014
  -7.2699999999999987E-002     1.4607466711918926E-013
  -7.1599999999999997E-002     2.6607278121211497E-013
  -7.0499999999999993E-002    -1.4645845097132661E-014
  -6.9399999999999989E-002    -4.1285180027265944E-013
  -6.8300000000000000E-002    -2.8991520013670058E-013
  -6.7199999999999996E-002     3.7689409969690613E-013
  -6.6099999999999992E-002     6.6022914132352062E-013
  -6.5000000000000002E-002    -1.0487518785264743E-013
  -6.3899999999999985E-002    -1.0222477161633825E-012
  -6.2799999999999995E-002    -5.2547002122801945E-013
  -6.1699999999999991E-002     1.1612594566501322E-012
  -6.0599999999999994E-002     1.6429026108294442E-012
  -5.9499999999999990E-002    -4.3079911382984393E-013
  -5.8399999999999994E-002    -2.6582590295642916E-012
  -5.7299999999999990E-002    -1.4798677691260642E-012
  -5.6199999999999986E-002     2.3741716058400808E-012
  -5.5099999999999996E-002     3.6569926774310257E-012
  -5.3999999999999992E-002    -3.4669267240036716E-013
  -5.2899999999999989E-002    -4.7691837458396780E-012
  -5.1799999999999985E-002    -2.8353983657497528E-012
  -5.0699999999999995E-002     3.9462751642849181E-012
  -4.9599999999999991E-002     6.1618123797790858E-012
  -4.8499999999999988E-002    -6.3209908227751521E-013
  -4.7399999999999998E-002    -7.9608845557355146E-012
  -4.6299999999999994E-002    -4.8449946311868164E-012
  -4.5199999999999990E-002     5.9952906354687752E-012
  -4.4099999999999986E-002     1.0003529254953847E-011
  -4.2999999999999997E-002     7.0908415857745544E-013
  -4.1899999999999993E-002    -9.9521172552963222E-012
  -4.0799999999999989E-002    -7.5310131394945579E-012
  -3.9699999999999985E-002     4.1716404636238380E-012
  -3.8599999999999995E-002     8.2173972487664670E-012
  -3.7499999999999992E-002    -6.3618538605550445E-013
  -3.6399999999999988E-002    -8.0503667967968262E-012
  -3.5299999999999984E-002    -1.8630151674831064E-012
  -3.4199999999999994E-002     9.1505605176456228E-012
  -3.3099999999999991E-002     8.9030336922202302E-012
  -3.1999999999999987E-002    -8.5984192856047859E-013
  -3.0899999999999997E-002    -4.3747861236398400E-012
  -2.9799999999999993E-002     6.2750754028714772E-013
  -2.8699999999999989E-002    -1.9736779485052258E-012
  -2.7599999999999986E-002    -1.6758965742935672E-011
  -2.6499999999999996E-002    -2.0909721870632225E-011
  -2.5399999999999992E-002     2.9931135694938327E-012
  -2.4299999999999988E-002     3.0755738233967378E-011
  -2.3199999999999985E-002     2.1636423555571049E-011
  -2.2099999999999995E-002    -1.9664238987138205E-011
  -2.0999999999999991E-002    -3.8398593332766850E-011
  -1.9899999999999987E-002    -5.0803484683004108E-012
  -1.8799999999999983E-002     3.2649612180524201E-011
  -1.7699999999999994E-002     9.2001120263751623E-012
  -1.6599999999999990E-002    -5.9754909353948449E-011
  -1.5499999999999986E-002    -8.4297027691526694E-011
  -1.4399999999999996E-002    -1.9622779096062359E-011
  -1.3299999999999992E-002     6.4417096656832484E-011
  -1.2199999999999989E-002     6.8625966020974261E-011
  -1.1099999999999985E-002    -7.4099962277252018E-012
  -9.9999999999999950E-003    -7.1476921603697008E-011
  -8.8999999999999913E-003    -6.8207897663263850E-011
  -7.7999999999999875E-003    -4.3181146158755013E-011
  -6.6999999999999837E-003    -6.1255105154867096E-011
  -5.5999999999999939E-003    -1.0980144571348660E-010
  -4.4999999999999901E-003    -1.3008168153749722E-010
  -3.3999999999999864E-003    -1.1110656839008470E-010
  -2.2999999999999826E-003    -9.2018573316643426E-011
  -1.1999999999999927E-003    -8.0690690240636798E-011
  -9.9999999999988987E-005    -4.8519348261333306E-011
   1.0000000000000148E-003    -2.1631607963201738E-011
   2.1000000000000185E-003    -9.7227725870396853E-011
   3.2000000000000084E-003    -3.0181387944416826E-010
   4.3000000000000121E-003    -4.9846599070590969E-010
   5.4000000000000159E-003    -5.2138821038383298E-010
   6.5000000000000058E-003    -3.9316139233136482E-010
   7.6000000000000234E-003    -3.2709410180409293E-010
   8.7000000000000133E-003    -4.5169060158833929E-010
   9.8000000000000032E-003    -6.1953842056539088E-010
   1.0900000000000021E-002    -6.1083893498903308E-010
   1.2000000000000011E-002    -4.6233036843368325E-010
   1.3100000000000001E-002    -4.4947404131967517E-010
   1.4200000000000018E-002    -7.3375461262514818E-010
   1.5300000000000008E-002    -1.1717147252454652E-009
   1.6400000000000026E-002    -1.4796037728359579E-009
   1.7500000000000016E-002    -1.5552018561848513E-009
   1.8600000000000005E-002    -1.5371868222757712E-009
   1.9700000000000023E-002    -1.5604262326718299E-009
   2.0800000000000013E-002    -1.6063176344616181E-009
   2.1900000000000003E-002    -1.6460520724237426E-009
   2.3000000000000020E-002    -1.7123286122355807E-009
   2.4100000000000010E-002    -1.8530028622620875E-009
   2.5200000000000000E-002    -2.1466701749517370E-009
   2.6300000000000018E-002    -2.4342841076219202E-009
   2.7400000000000008E-002    -2.5729884889358345E-009
   2.8500000000000025E-002    -2.7692474979801318E-009
   2.9600000000000015E-002    -3.0973994480376632E-009
   3.0700000000000005E-002    -3.4396405723668977E-009
   3.1800000000000023E-002    -3.3948612809808765E-009
   3.2900000000000013E-002    -3.1319637994187133E-009
   3.4000000000000002E-002    -2.9824855918292315E-009
   3.5100000000000020E-002    -2.9857607497518757E-009
   3.6200000000000010E-002    -3.0040645526696608E-009
   3.7300000000000028E-002    -2.7109055000806848E-009
   3.8400000000000017E-002    -2.8288156261879749E-009
   3.9500000000000007E-002    -2.7509410305270876E-009
   4.0600000000000025E-002    -2.6183930579293246E-009
   4.1700000000000015E-002    -2.3922830383327209E-009
   4.2800000000000005E-002    -2.0699926217560005E-009
   4.3900000000000022E-002    -1.9420069996556322E-009
   4.5000000000000012E-002    -1.1662059096195776E-009
   4.6100000000000002E-002    -6.3959038065775076E-010
   4.7200000000000020E-002    -1.8788004138570180E-011
   4.8300000000000010E-002     8.1490802994466094E-010
   4.9400000000000027E-002     2.1527568616619419E-009
   5.0500000000000017E-002     3.4550786676135203E-009
   5.1600000000000007E-002     4.3195749199753664E-009
   5.2700000000000025E-002     3.9342915592044392E-009
   5.3800000000000014E-002     4.3343888478375447E-009
   5.4900000000000004E-002     6.1801892492496791E-009
   5.6000000000000022E-002     7.8522184310259036E-009
   5.7100000000000012E-002     8.9713729778395646E-009
   5.8200000000000002E-002     8.8338278914079638E-009
   5.9300000000000019E-002     9.5113614761999088E-009
   6.0400000000000009E-002     1.0435288189114544E-008
   6.1500000000000027E-002     1.2128592352667056E-008
   6.2600000000000017E-002     1.2819355355020434E-008
   6.3700000000000007E-002     1.3534973142270701E-008
   6.4800000000000024E-002     1.4130204561979554E-008
   6.5900000000000014E-002     1.4934691705548175E-008
   6.7000000000000004E-002     1.4616252208554670E-008
   6.8100000000000022E-002     1.3867379244913991E-008
   6.9200000000000012E-002     1.4186519514680640E-008
   7.0300000000000029E-002     1.5154505206282920E-008
   7.1400000000000019E-002     1.5569177946872514E-008
   7.2500000000000009E-002     1.3477989391219580E-008
   7.3600000000000027E-002     9.2522682848539262E-009
   7.4700000000000016E-002     7.1464323347925074E-009
   7.5800000000000006E-002     8.7670111170723430E-009
   7.6900000000000024E-002     1.1564202040403870E-008
   7.8000000000000014E-002     1.0564301433646506E-008
   7.9100000000000004E-002     4.3102885705081917E-009
   8.0200000000000021E-002    -2.1664419147526814E-009
   8.1300000000000011E-002    -3.1712994452703924E-009
   8.2400000000000029E-002    -7.1705552606715628E-010
   8.3500000000000019E-002     1.2208186683793087E-009
   8.4600000000000009E-002    -1.2681566907701836E-009
   8.5700000000000026E-002    -7.7541573162420718E-009
   8.6800000000000016E-002    -1.4237709677900057E-008
   8.7900000000000006E-002    -1.7212185454695828E-008
   8.9000000000000024E-002    -1.5760980076606756E-008
   9.0100000000000013E-002    -1.1631164476000322E-008
   9.1200000000000003E-002    -9.7232284446135964E-009
   9.2300000000000021E-002    -1.3759634320820169E-008
   9.3400000000000011E-002    -2.2936367471970698E-008
   9.4500000000000028E-002    -2.9075168939129981E-008
   9.5600000000000018E-002    -2.6190049240426561E-008
   9.6700000000000008E-002    -1.6668531443997381E-008
   9.7800000000000026E-002    -1.0045682508064147E-008
   9.8900000000000016E-002    -1.4982356688619802E-008
  0.10000000000000001         -2.6242016559763215E-008
  0.10110000000000002         -3.0759515823319816E-008
  0.10220000000000001         -2.6260458696469868E-008
  0.10330000000000003         -1.5016420107372142E-008
  0.10440000000000002         -5.2643853720724110E-009
  0.10550000000000001         -5.0699178189006489E-009
  0.10660000000000003         -1.1995372695139395E-008
  0.10770000000000002         -1.9374562398866146E-008
  0.10880000000000001         -1.8038637250583633E-008
  0.10990000000000003         -7.3104042819238657E-009
  0.11100000000000002          4.8898516347151144E-009
  0.11210000000000001          7.8622459653843180E-009
  0.11320000000000002          1.7428978260625172E-009
  0.11430000000000001         -8.9127549784961957E-009
  0.11540000000000003         -1.2795510428986745E-008
  0.11650000000000002         -1.0587377641257945E-009
  0.11760000000000001          1.8182097605290437E-008
  0.11870000000000003          2.5832708416828609E-008
  0.11980000000000002          1.6910879807596757E-008
  0.12090000000000001          1.7686602182820366E-009
  0.12200000000000003         -3.5447391688592234E-009
  0.12310000000000001          4.9113806355194356E-009
  0.12420000000000003          1.8397656731394818E-008
  0.12530000000000002          2.5415818782903443E-008
  0.12640000000000001          2.0445247272959932E-008
  0.12750000000000003          9.0713241363005181E-009
  0.12860000000000002          5.7995352964468339E-010
  0.12970000000000001          1.5225815053199199E-009
  0.13080000000000003          1.1017244005984139E-008
  0.13190000000000002          2.1484719781028616E-008
  0.13300000000000001          2.3084986366939120E-008
  0.13410000000000000          1.3511344931771418E-008
  0.13520000000000004          5.7967176197992742E-011
  0.13630000000000003         -5.7227738103904358E-009
  0.13740000000000002          1.4381850155231746E-009
  0.13850000000000001          1.3543967725127004E-008
  0.13960000000000000          1.7228179771677787E-008
  0.14070000000000005          8.2808764290120962E-009
  0.14180000000000004         -4.6933266162341170E-009
  0.14290000000000003         -9.7621004613301920E-009
  0.14400000000000002         -3.9110310545709126E-009
  0.14510000000000001          5.1045692117668295E-009
  0.14620000000000000          8.8650873308893097E-009
  0.14730000000000004          6.4642224906208412E-009
  0.14840000000000003          9.4978669373801949E-010
  0.14950000000000002         -5.3809028344176113E-009
  0.15060000000000001         -9.8485886113053311E-009
  0.15170000000000000         -9.1469125607090973E-009
  0.15280000000000005         -2.0708723624807135E-009
  0.15390000000000004          5.8712914530190119E-009
  0.15500000000000003          6.2245293364071586E-009
  0.15610000000000002         -3.7327030355527313E-009
  0.15720000000000001         -1.4283950022786485E-008
  0.15830000000000000         -1.2681937278102851E-008
  0.15940000000000004          3.0654084826053918E-010
  0.16050000000000003          1.0297383390422965E-008
  0.16160000000000002          7.5722725867422014E-009
  0.16270000000000001         -3.7269400898765070E-009
  0.16380000000000000         -1.1580806535960164E-008
  0.16490000000000005         -1.0476053802221941E-008
  0.16600000000000004         -5.2530846339493564E-009
  0.16710000000000003         -2.2104328090133407E-010
  0.16820000000000002          4.2340917438821180E-009
  0.16930000000000001          6.6376797391853870E-009
  0.17040000000000000          2.4138393506234479E-009
  0.17150000000000004         -8.1824627073956435E-009
  0.17260000000000003         -1.4134326598025382E-008
  0.17370000000000002         -5.6442956974933622E-009
  0.17480000000000001          1.0190546184674076E-008
  0.17590000000000000          1.4619901733681218E-008
  0.17700000000000005          1.1685743483980104E-009
  0.17810000000000004         -1.4872194142867556E-008
  0.17920000000000003         -1.4369477163711508E-008
  0.18030000000000002          1.0823463236775410E-009
  0.18140000000000001          1.2427611828513818E-008
  0.18250000000000000          8.6519822417585601E-009
  0.18360000000000004         -1.8341208551930777E-009
  0.18470000000000003         -5.7187001800684811E-009
  0.18580000000000002         -2.7144568814918557E-009
  0.18690000000000001         -1.0278472517555315E-009
  0.18800000000000000         -1.9571964049447388E-009
  0.18910000000000005          8.5733947718935610E-010
  0.19020000000000004          6.9538970137728029E-009
  0.19130000000000003          6.3096199376388995E-009
  0.19240000000000002         -4.4461501147452509E-009
  0.19350000000000001         -1.2534375315453872E-008
  0.19460000000000005         -5.0914810145741285E-009
  0.19570000000000004          1.0582397180769476E-008
  0.19680000000000003          1.4518643176586465E-008
  0.19790000000000002          1.2036224239508897E-009
  0.19900000000000001         -1.2085409117901236E-008
  0.20010000000000000         -8.7764702172421494E-009
  0.20120000000000005          4.0880485663308264E-009
  0.20230000000000004          7.5618018513523566E-009
  0.20340000000000003         -1.6269864344664597E-009
  0.20450000000000002         -7.6512209901125061E-009
  0.20560000000000000         -9.1356827658373163E-010
  0.20670000000000005          7.7592430258732747E-009
  0.20780000000000004          4.9743391627998790E-009
  0.20890000000000003         -3.9317393785154309E-009
