 -0.12000000000000000          0.0000000000000000
 -0.11889999999999999          0.0000000000000000
 -0.11780000000000000          0.0000000000000000
 -0.11670000000000000          0.0000000000000000
 -0.11559999999999999          0.0000000000000000
 -0.11449999999999999          0.0000000000000000
 -0.11340000000000000          0.0000000000000000
 -0.11230000000000000          0.0000000000000000
 -0.11119999999999999          0.0000000000000000
 -0.11009999999999999          0.0000000000000000
 -0.10900000000000000         -3.7337495265959402E-029
 -0.10790000000000000          1.5412522204591746E-029
 -0.10679999999999999          4.7066140796302623E-028
 -0.10569999999999999         -3.4946065044748233E-029
 -0.10460000000000000         -2.2726620456230697E-027
 -0.10349999999999999          2.3659386846896323E-027
 -0.10239999999999999          5.7739499140385883E-027
 -0.10130000000000000         -4.9473534930452196E-026
 -0.10020000000000000         -7.3761477518462471E-026
  -9.9099999999999994E-002     3.5826211687844746E-025
  -9.7999999999999990E-002     9.5600899394660535E-025
  -9.6899999999999986E-002    -7.2430255019379383E-025
  -9.5799999999999996E-002    -5.5817565177077020E-024
  -9.4699999999999993E-002    -4.8780886459460334E-024
  -9.3599999999999989E-002     1.3090432014162561E-023
  -9.2499999999999999E-002     3.3913095605571468E-023
  -9.1399999999999995E-002     1.4169997629288378E-023
  -9.0299999999999991E-002    -5.5986991989134957E-023
  -8.9200000000000002E-002    -1.2020262363506650E-022
  -8.8099999999999984E-002    -1.4259996245610147E-022
  -8.6999999999999994E-002    -8.8055039756146726E-023
  -8.5899999999999990E-002     3.6373990113441658E-022
  -8.4799999999999986E-002     1.5562625723877030E-021
  -8.3699999999999997E-002     2.2292364027526376E-021
  -8.2599999999999993E-002    -1.1398418584268051E-021
  -8.1499999999999989E-002    -9.5910428802787156E-021
  -8.0399999999999999E-002    -1.4230805564839485E-020
  -7.9299999999999995E-002     2.0211872258323434E-022
  -7.8199999999999992E-002     3.4533229916917565E-020
  -7.7100000000000002E-002     5.9679569006143623E-020
  -7.5999999999999984E-002     3.5590573534913473E-020
  -7.4899999999999994E-002    -5.0935733556529668E-020
  -7.3799999999999991E-002    -1.7517749254251869E-019
  -7.2699999999999987E-002    -2.7621109031854717E-019
  -7.1599999999999997E-002    -2.1148657260583677E-019
  -7.0499999999999993E-002     2.4874851303602765E-019
  -6.9399999999999989E-002     1.1344289928700306E-018
  -6.8300000000000000E-002     1.7642924945385870E-018
  -6.7199999999999996E-002     7.9612106622621546E-019
  -6.6099999999999992E-002    -2.4487952047741806E-018
  -6.5000000000000002E-002    -6.2714451763606406E-018
  -6.3899999999999985E-002    -6.7751018028640720E-018
  -6.2799999999999995E-002    -7.9459822671850534E-019
  -6.1699999999999991E-002     1.0857169883412728E-017
  -6.0599999999999994E-002     2.2700522691084652E-017
  -5.9499999999999990E-002     2.5839901417572456E-017
  -5.8399999999999994E-002     9.5859322482616333E-018
  -5.7299999999999990E-002    -3.2789297206536658E-017
  -5.6199999999999986E-002    -8.9371048452287167E-017
  -5.5099999999999996E-002    -1.1655935683871702E-016
  -5.3999999999999992E-002    -5.5178568376729856E-017
  -5.2899999999999989E-002     1.1382569035035177E-016
  -5.1799999999999985E-002     3.1578534415097070E-016
  -5.0699999999999995E-002     3.9751618850624858E-016
  -4.9599999999999991E-002     2.2280137592384382E-016
  -4.8499999999999988E-002    -2.2402885901331331E-016
  -4.7399999999999998E-002    -7.9938384996033852E-016
  -4.6299999999999994E-002    -1.2179052644184117E-015
  -4.5199999999999990E-002    -1.0986553074227414E-015
  -4.4099999999999986E-002    -1.1228345511163850E-016
  -4.2999999999999997E-002     1.6862910849648719E-015
  -4.1899999999999993E-002     3.5227636525767729E-015
  -4.0799999999999989E-002     4.0350832721523008E-015
  -3.9699999999999985E-002     2.1037183446133293E-015
  -3.8599999999999995E-002    -2.1420525147072171E-015
  -3.7499999999999992E-002    -7.0666561185063308E-015
  -3.6399999999999988E-002    -1.0296892495825858E-014
  -3.5299999999999984E-002    -9.7682126466323502E-015
  -3.4199999999999994E-002    -4.2955285392575794E-015
  -3.3099999999999991E-002     6.0231928426519692E-015
  -3.1999999999999987E-002     1.8899642864177862E-014
  -3.0899999999999997E-002     2.9128450004670473E-014
  -2.9799999999999993E-002     2.9913747802597090E-014
  -2.8699999999999989E-002     1.6592462335194604E-014
  -2.7599999999999986E-002    -1.0003577691685903E-014
  -2.6499999999999996E-002    -4.3556948141603574E-014
  -2.5399999999999992E-002    -7.4719208955926347E-014
  -2.4299999999999988E-002    -9.2170039233275408E-014
  -2.3199999999999985E-002    -8.1799950385312570E-014
  -2.2099999999999995E-002    -2.9474005565832337E-014
  -2.0999999999999991E-002     6.8364977849795505E-014
  -1.9899999999999987E-002     1.9201597234973222E-013
  -1.8799999999999983E-002     2.9645453843499259E-013
  -1.7699999999999994E-002     3.2548063636644864E-013
  -1.6599999999999990E-002     2.3350933816765340E-013
  -1.5499999999999986E-002     3.0125650035011699E-015
  -1.4399999999999996E-002    -3.4366346574055129E-013
  -1.3299999999999992E-002    -7.3275532776889696E-013
  -1.2199999999999989E-002    -1.0337139130789375E-012
  -1.1099999999999985E-002    -1.0800314635683872E-012
  -9.9999999999999950E-003    -7.2678397588371579E-013
  -8.8999999999999913E-003     7.5429049670779763E-014
  -7.7999999999999875E-003     1.2280001234626914E-012
  -6.6999999999999837E-003     2.4742853165643508E-012
  -5.5999999999999939E-003     3.4267857648706546E-012
  -4.4999999999999901E-003     3.6274618291781691E-012
  -3.3999999999999864E-003     2.6573688995806810E-012
  -2.2999999999999826E-003     3.0401861041660927E-013
  -1.1999999999999927E-003    -3.2564886117553149E-012
  -9.9999999999988987E-005    -7.3510468545645580E-012
   1.0000000000000148E-003    -1.0849134958468287E-011
   2.1000000000000185E-003    -1.2364864340752568E-011
   3.2000000000000084E-003    -1.0590553607692232E-011
   4.3000000000000121E-003    -4.7172092620950679E-012
   5.4000000000000159E-003     5.1288430967522114E-012
   6.5000000000000058E-003     1.7563398652109541E-011
   7.6000000000000234E-003     2.9900571602015091E-011
   8.7000000000000133E-003     3.8495134163651912E-011
   9.8000000000000032E-003     3.9456361788925420E-011
   1.0900000000000021E-002     2.9622818087382541E-011
   1.2000000000000011E-002     7.6443695123940003E-012
   1.3100000000000001E-002    -2.5038811302113828E-011
   1.4200000000000018E-002    -6.3623724344541444E-011
   1.5300000000000008E-002    -1.0011129425446796E-010
   1.6400000000000026E-002    -1.2439614616166494E-010
   1.7500000000000016E-002    -1.2618829592359049E-010
   1.8600000000000005E-002    -9.7445197744239209E-011
   1.9700000000000023E-002    -3.4873923193678991E-011
   2.0800000000000013E-002     5.8033067934504245E-011
   2.1900000000000003E-002     1.7009410546720005E-010
   2.3000000000000020E-002     2.8332314272461190E-010
   2.4100000000000010E-002     3.7591496582223272E-010
   2.5200000000000000E-002     4.2700781799354104E-010
   2.6300000000000018E-002     4.2232764507765808E-010
   2.7400000000000008E-002     3.5952268939709597E-010
   2.8500000000000025E-002     2.5193583330640479E-010
   2.9600000000000015E-002     1.2955994610486243E-010
   3.0700000000000005E-002     3.6095976901906468E-011
   3.1800000000000023E-002     2.1659273333196616E-011
   3.2900000000000013E-002     1.3177518798368482E-010
   3.4000000000000002E-002     3.9437914045592493E-010
   3.5100000000000020E-002     8.0728723705902894E-010
   3.6200000000000010E-002     1.3287204669865105E-009
   3.7300000000000028E-002     1.8733394835379613E-009
   3.8400000000000017E-002     2.3153829964428496E-009
   3.9500000000000007E-002     2.4991937408458398E-009
   4.0600000000000025E-002     2.2556290169006843E-009
   4.1700000000000015E-002     1.4214864840766950E-009
   4.2800000000000005E-002    -1.4194011244139659E-010
   4.3900000000000022E-002    -2.5351609700408062E-009
   4.5000000000000012E-002    -5.8151230497571760E-009
   4.6100000000000002E-002    -1.0000649197650091E-008
   4.7200000000000020E-002    -1.5090060756506318E-008
   4.8300000000000010E-002    -2.1089716639721701E-008
   4.9400000000000027E-002    -2.8049985445477432E-008
   5.0500000000000017E-002    -3.6104641054635067E-008
   5.1600000000000007E-002    -4.5506830304020696E-008
   5.2700000000000025E-002    -5.6659363423250397E-008
   5.3800000000000014E-002    -7.0135051544184535E-008
   5.4900000000000004E-002    -8.6684728728414484E-008
   5.6000000000000022E-002    -1.0723439913817856E-007
   5.7100000000000012E-002    -1.3287896649671893E-007
   5.8200000000000002E-002    -1.6487341270021716E-007
   5.9300000000000019E-002    -2.0462874772420037E-007
   6.0400000000000009E-002    -2.5372418122060481E-007
   6.1500000000000027E-002    -3.1393051358463708E-007
   6.2600000000000017E-002    -3.8726059869986784E-007
   6.3700000000000007E-002    -4.7603035113752412E-007
   6.4800000000000024E-002    -5.8293602478443063E-007
   6.5900000000000014E-002    -7.1113322519522626E-007
   6.7000000000000004E-002    -8.6432595480800956E-007
   6.8100000000000022E-002    -1.0468230584592675E-006
   6.9200000000000012E-002    -1.2636038491109503E-006
   7.0300000000000029E-002    -1.5203693237708649E-006
   7.1400000000000019E-002    -1.8235656398246647E-006
   7.2500000000000009E-002    -2.1804203242936637E-006
   7.3600000000000027E-002    -2.5989852474594954E-006
   7.4700000000000016E-002    -3.0881678867444862E-006
   7.5800000000000006E-002    -3.6578128401743015E-006
   7.6900000000000024E-002    -4.3187319533899426E-006
   7.8000000000000014E-002    -5.0827788982132915E-006
   7.9100000000000004E-002    -5.9628710005199537E-006
   8.0200000000000021E-002    -6.9730435825476889E-006
   8.1300000000000011E-002    -8.1284042607876472E-006
   8.2400000000000029E-002    -9.4450861070072278E-006
   8.3500000000000019E-002    -1.0940168067463674E-005
   8.4600000000000009E-002    -1.2631565368792508E-005
   8.5700000000000026E-002    -1.4537851711793337E-005
   8.6800000000000016E-002    -1.6678062820574269E-005
   8.7900000000000006E-002    -1.9071390852332115E-005
   8.9000000000000024E-002    -2.1737081624451093E-005
   9.0100000000000013E-002    -2.4693972591194324E-005
   9.1200000000000003E-002    -2.7960315492236987E-005
   9.2300000000000021E-002    -3.1553132430417463E-005
   9.3400000000000011E-002    -3.5487755667418242E-005
   9.4500000000000028E-002    -3.9777514757588506E-005
   9.5600000000000018E-002    -4.4433076254790649E-005
   9.6700000000000008E-002    -4.9461683374829590E-005
   9.7800000000000026E-002    -5.4866326536284760E-005
   9.8900000000000016E-002    -6.0645113990176469E-005
  0.10000000000000001         -6.6791042627301067E-005
  0.10110000000000002         -7.3290786531288177E-005
  0.10220000000000001         -8.0123369116336107E-005
  0.10330000000000003         -8.7260159489233047E-005
  0.10440000000000002         -9.4663861091248691E-005
  0.10550000000000001         -1.0228862083749846E-004
  0.10660000000000003         -1.1007822467945516E-004
  0.10770000000000002         -1.1796615581260994E-004
  0.10880000000000001         -1.2587576929945499E-004
  0.10990000000000003         -1.3371989189181477E-004
  0.11100000000000002         -1.4140052371658385E-004
  0.11210000000000001         -1.4880951493978500E-004
  0.11320000000000002         -1.5582892228849232E-004
  0.11430000000000001         -1.6233191126957536E-004
  0.11540000000000003         -1.6818179574329406E-004
  0.11650000000000002         -1.7323548672720790E-004
  0.11760000000000001         -1.7734436551108956E-004
  0.11870000000000003         -1.8035575340036303E-004
  0.11980000000000002         -1.8211387214250863E-004
  0.12090000000000001         -1.8246511172037572E-004
  0.12200000000000003         -1.8125811766367406E-004
  0.12310000000000001         -1.7834689060691744E-004
  0.12420000000000003         -1.7359344928991050E-004
  0.12530000000000002         -1.6687420429661870E-004
  0.12640000000000001         -1.5807941963430494E-004
  0.12750000000000003         -1.4711727271787822E-004
  0.12860000000000002         -1.3391717220656574E-004
  0.12970000000000001         -1.1843097308883443E-004
  0.13080000000000003         -1.0063952504424378E-004
  0.13190000000000002         -8.0553210864309222E-005
  0.13300000000000001         -5.8215107856085524E-005
  0.13410000000000000         -3.3699830964906141E-005
  0.13520000000000004         -7.1172489697346464E-006
  0.13630000000000003          2.1385363652370870E-005
  0.13740000000000002          5.1624363550217822E-005
  0.13850000000000001          8.3379636635072529E-005
  0.13960000000000000          1.1639734293567017E-004
  0.14070000000000005          1.5039346180856228E-004
  0.14180000000000004          1.8505140906199813E-004
  0.14290000000000003          2.2002778132446110E-004
  0.14400000000000002          2.5495569570921361E-004
  0.14510000000000001          2.8945063240826130E-004
  0.14620000000000000          3.2311360700987279E-004
  0.14730000000000004          3.5553853376768529E-004
  0.14840000000000003          3.8631839561276138E-004
  0.14950000000000002          4.1505010449327528E-004
  0.15060000000000001          4.4134131167083979E-004
  0.15170000000000000          4.6481782919727266E-004
  0.15280000000000005          4.8512979992665350E-004
  0.15390000000000004          5.0195842050015926E-004
  0.15500000000000003          5.1502126734703779E-004
  0.15610000000000002          5.2407826296985149E-004
  0.15720000000000001          5.2893511019647121E-004
  0.15830000000000000          5.2944943308830261E-004
  0.15940000000000004          5.2553281420841813E-004
  0.16050000000000003          5.1715457811951637E-004
  0.16160000000000002          5.0434167496860027E-004
  0.16270000000000001          4.8717897152528167E-004
  0.16380000000000000          4.6580939670093358E-004
  0.16490000000000005          4.4043318484909832E-004
  0.16600000000000004          4.1130525642074645E-004
  0.16710000000000003          3.7872698158025742E-004
  0.16820000000000002          3.4304871223866940E-004
  0.16930000000000001          3.0465828604064882E-004
  0.17040000000000000          2.6397974579595029E-004
  0.17150000000000004          2.2146101400721818E-004
  0.17260000000000003          1.7757528985384852E-004
  0.17370000000000002          1.3280271377880126E-004
  0.17480000000000001          8.7635176896583289E-005
  0.17590000000000000          4.2554765968816355E-005
  0.17700000000000005         -1.9613630684034433E-006
  0.17810000000000004         -4.5455984945874661E-005
  0.17920000000000003         -8.7491098383907229E-005
  0.18030000000000002         -1.2766223517246544E-004
  0.18140000000000001         -1.6559600771870464E-004
  0.18250000000000000         -2.0096337539143860E-004
  0.18360000000000004         -2.3347805836237967E-004
  0.18470000000000003         -2.6290077948942780E-004
  0.18580000000000002         -2.8903523343615234E-004
  0.18690000000000001         -3.1173686147667468E-004
  0.18800000000000000         -3.3091317163780332E-004
  0.18910000000000005         -3.4652167232707143E-004
  0.19020000000000004         -3.5856608883477747E-004
  0.19130000000000003         -3.6709653795696795E-004
  0.19240000000000002         -3.7220216472633183E-004
  0.19350000000000001         -3.7401245208457112E-004
  0.19460000000000005         -3.7269154563546181E-004
  0.19570000000000004         -3.6843479028902948E-004
  0.19680000000000003         -3.6146384081803262E-004
  0.19790000000000002         -3.5202247090637684E-004
  0.19900000000000001         -3.4036790020763874E-004
  0.20010000000000000         -3.2676683622412384E-004
  0.20120000000000005         -3.1149270944297314E-004
  0.20230000000000004         -2.9482334502972662E-004
  0.20340000000000003         -2.7703613159246743E-004
  0.20450000000000002         -2.5840033777058125E-004
  0.20560000000000000         -2.3917228099890053E-004
  0.20670000000000005         -2.1959419245831668E-004
  0.20780000000000004         -1.9989484280813485E-004
  0.20890000000000003         -1.8028834892902523E-004
