 -0.12000000000000000          0.0000000000000000
 -0.11889999999999999          0.0000000000000000
 -0.11780000000000000          0.0000000000000000
 -0.11670000000000000          1.2546758770826116E-011
 -0.11559999999999999          1.8168352239333885E-011
 -0.11449999999999999         -2.8160902429408274E-011
 -0.11340000000000000         -7.4961516161042852E-011
 -0.11230000000000000         -7.1864246324604419E-012
 -0.11119999999999999          9.8632817191468547E-011
 -0.11009999999999999          3.4899850370750940E-011
 -0.10900000000000000         -4.0868662620763274E-011
 -0.10790000000000000          3.0829419572775407E-010
 -0.10679999999999999          7.4258371673963097E-010
 -0.10569999999999999         -4.0189192251904871E-011
 -0.10460000000000000         -2.2186263937129524E-009
 -0.10349999999999999         -3.2006577388443702E-009
 -0.10239999999999999         -2.7628990761918715E-010
 -0.10130000000000000          4.7190171770239431E-009
 -0.10020000000000000          6.1720095700934507E-009
  -9.9099999999999994E-002     1.9703514375635223E-009
  -9.7999999999999990E-002    -2.6980129241849227E-009
  -9.6899999999999986E-002    -2.4106325824391206E-009
  -9.5799999999999996E-002    -3.5084016247743932E-010
  -9.4699999999999993E-002    -4.1651744275839064E-009
  -9.3599999999999989E-002    -1.2471413235459750E-008
  -9.2499999999999999E-002    -1.2972201979266629E-008
  -9.1399999999999995E-002     9.2079172064885029E-010
  -9.0299999999999991E-002     1.7741399460646790E-008
  -8.9200000000000002E-002     2.1626487267667471E-008
  -8.8099999999999984E-002     1.6275819803013292E-008
  -8.6999999999999994E-002     2.3412761507302093E-008
  -8.5899999999999990E-002     5.3338816030645830E-008
  -8.4799999999999986E-002     8.8167361411706224E-008
  -8.3699999999999997E-002     1.0448670195728482E-007
  -8.2599999999999993E-002     1.0566879637963211E-007
  -8.1499999999999989E-002     1.1758081797097475E-007
  -8.0399999999999999E-002     1.5362525118689518E-007
  -7.9299999999999995E-002     2.0025738933782122E-007
  -7.8199999999999992E-002     2.4293811407005705E-007
  -7.7100000000000002E-002     2.9085015285090776E-007
  -7.5999999999999984E-002     3.6206057529852842E-007
  -7.4899999999999994E-002     4.5507732693295111E-007
  -7.3799999999999991E-002     5.5578090041308315E-007
  -7.2699999999999987E-002     6.7041480633633910E-007
  -7.1599999999999997E-002     8.2784424648707500E-007
  -7.0499999999999993E-002     1.0399908205727115E-006
  -6.9399999999999989E-002     1.2819231187677360E-006
  -6.8300000000000000E-002     1.5320116517614224E-006
  -6.7199999999999996E-002     1.8184389318776084E-006
  -6.6099999999999992E-002     2.1972236936562695E-006
  -6.5000000000000002E-002     2.6851043912756722E-006
  -6.3899999999999985E-002     3.2458526675327448E-006
  -6.2799999999999995E-002     3.8575458347622771E-006
  -6.1699999999999991E-002     4.5664901335840113E-006
  -6.0599999999999994E-002     5.4460442697745748E-006
  -5.9499999999999990E-002     6.5167300817847718E-006
  -5.8399999999999994E-002     7.7443928603315726E-006
  -5.7299999999999990E-002     9.1200736278551631E-006
  -5.6199999999999986E-002     1.0704555279517081E-005
  -5.5099999999999996E-002     1.2574161701195408E-005
  -5.3999999999999992E-002     1.4752457900613081E-005
  -5.2899999999999989E-002     1.7229804143426009E-005
  -5.1799999999999985E-002     2.0034744011354633E-005
  -5.0699999999999995E-002     2.3242824681801721E-005
  -4.9599999999999991E-002     2.6911928216577508E-005
  -4.8499999999999988E-002     3.1053081329446286E-005
  -4.7399999999999998E-002     3.5688692150870338E-005
  -4.6299999999999994E-002     4.0903083572629839E-005
  -4.5199999999999990E-002     4.6792079956503585E-005
  -4.4099999999999986E-002     5.3380277677206323E-005
  -4.2999999999999997E-002     6.0640588344540447E-005
  -4.1899999999999993E-002     6.8603185354731977E-005
  -4.0799999999999989E-002     7.7392549428623170E-005
  -3.9699999999999985E-002     8.7123982666525990E-005
  -3.8599999999999995E-002     9.7799216746352613E-005
  -3.7499999999999992E-002     1.0935111640719697E-004
  -3.6399999999999988E-002     1.2177699682069942E-004
  -3.5299999999999984E-002     1.3516772014554590E-004
  -3.4199999999999994E-002     1.4959440159145743E-004
  -3.3099999999999991E-002     1.6501899517606944E-004
  -3.1999999999999987E-002     1.8135074060410261E-004
  -3.0899999999999997E-002     1.9854681158903986E-004
  -2.9799999999999993E-002     2.1659932099282742E-004
  -2.8699999999999989E-002     2.3543901625089347E-004
  -2.7599999999999986E-002     2.5491457199677825E-004
  -2.6499999999999996E-002     2.7488157502375543E-004
  -2.5399999999999992E-002     2.9525125864893198E-004
  -2.4299999999999988E-002     3.1590272556059062E-004
  -2.3199999999999985E-002     3.3658993197605014E-004
  -2.2099999999999995E-002     3.5699314321391284E-004
  -2.0999999999999991E-002     3.7685222923755646E-004
  -1.9899999999999987E-002     3.9598523289896548E-004
  -1.8799999999999983E-002     4.1415303712710738E-004
  -1.7699999999999994E-002     4.3097301386296749E-004
  -1.6599999999999990E-002     4.4600537512451410E-004
  -1.5499999999999986E-002     4.5889499597251415E-004
  -1.4399999999999996E-002     4.6935360296629369E-004
  -1.3299999999999992E-002     4.7703264863230288E-004
  -1.2199999999999989E-002     4.8148591304197907E-004
  -1.1099999999999985E-002     4.8228204832412302E-004
  -9.9999999999999950E-003     4.7909672139212489E-004
  -8.8999999999999913E-003     4.7165167052298784E-004
  -7.7999999999999875E-003     4.5959991985000670E-004
  -6.6999999999999837E-003     4.4255895772948861E-004
  -5.5999999999999939E-003     4.2025191942229867E-004
  -4.4999999999999901E-003     3.9255240699276328E-004
  -3.3999999999999864E-003     3.5937171196565032E-004
  -2.2999999999999826E-003     3.2057106727734208E-004
  -1.1999999999999927E-003     2.7604951173998415E-004
  -9.9999999999988987E-005     2.2586433624383062E-004
   1.0000000000000148E-003     1.7022732936311513E-004
   2.1000000000000185E-003     1.0937610204564407E-004
   3.2000000000000084E-003     4.3549011024879292E-005
   4.3000000000000121E-003    -2.6914083719020709E-005
   5.4000000000000159E-003    -1.0149591980734840E-004
   6.5000000000000058E-003    -1.7956316878553480E-004
   7.6000000000000234E-003    -2.6049738517031074E-004
   8.7000000000000133E-003    -3.4366938052698970E-004
   9.8000000000000032E-003    -4.2832660255953670E-004
   1.0900000000000021E-002    -5.1355327013880014E-004
   1.2000000000000011E-002    -5.9839035384356976E-004
   1.3100000000000001E-002    -6.8194023333489895E-004
   1.4200000000000018E-002    -7.6333078322932124E-004
   1.5300000000000008E-002    -8.4160640835762024E-004
   1.6400000000000026E-002    -9.1574084945023060E-004
   1.7500000000000016E-002    -9.8475930280983448E-004
   1.8600000000000005E-002    -1.0478013427928090E-003
   1.9700000000000023E-002    -1.1040534591302276E-003
   2.0800000000000013E-002    -1.1526900343596935E-003
   2.1900000000000003E-002    -1.1929374886676669E-003
   2.3000000000000020E-002    -1.2241834774613380E-003
   2.4100000000000010E-002    -1.2459794525057077E-003
   2.5200000000000000E-002    -1.2579483445733786E-003
   2.6300000000000018E-002    -1.2597491731867194E-003
   2.7400000000000008E-002    -1.2511676177382469E-003
   2.8500000000000025E-002    -1.2322058901190758E-003
   2.9600000000000015E-002    -1.2030451325699687E-003
   3.0700000000000005E-002    -1.1639463482424617E-003
   3.1800000000000023E-002    -1.1152470251545310E-003
   3.2900000000000013E-002    -1.0574253974482417E-003
   3.4000000000000002E-002    -9.9113304167985916E-004
   3.5100000000000020E-002    -9.1713096480816603E-004
   3.6200000000000010E-002    -8.3622999954968691E-004
   3.7300000000000028E-002    -7.4930832488462329E-004
   3.8400000000000017E-002    -6.5736606484279037E-004
   3.9500000000000007E-002    -5.6149024749174714E-004
   4.0600000000000025E-002    -4.6276129432953894E-004
   4.1700000000000015E-002    -3.6222900962457061E-004
   4.2800000000000005E-002    -2.6095283101312816E-004
   4.3900000000000022E-002    -1.6003413475118577E-004
   4.5000000000000012E-002    -6.0566322645172477E-005
   4.6100000000000002E-002     3.6432651540962979E-005
   4.7200000000000020E-002     1.3003415369894356E-004
   4.8300000000000010E-002     2.1937920246273279E-004
   4.9400000000000027E-002     3.0367620638571680E-004
   5.0500000000000017E-002     3.8222258444875479E-004
   5.1600000000000007E-002     4.5442479313351214E-004
   5.2700000000000025E-002     5.1978533156216145E-004
   5.3800000000000014E-002     5.7789939455688000E-004
   5.4900000000000004E-002     6.2848289962857962E-004
   5.6000000000000022E-002     6.7138526355847716E-004
   5.7100000000000012E-002     7.0656300522387028E-004
   5.8200000000000002E-002     7.3405756847932935E-004
   5.9300000000000019E-002     7.5399089837446809E-004
   6.0400000000000009E-002     7.6658290345221758E-004
   6.1500000000000027E-002     7.7214185148477554E-004
   6.2600000000000017E-002     7.7103741932660341E-004
   6.3700000000000007E-002     7.6370331225916743E-004
   6.4800000000000024E-002     7.5064104748889804E-004
   6.5900000000000014E-002     7.3240115307271481E-004
   6.7000000000000004E-002     7.0954294642433524E-004
   6.8100000000000022E-002     6.8261096021160483E-004
   6.9200000000000012E-002     6.5216794610023499E-004
   7.0300000000000029E-002     6.1881949659436941E-004
   7.1400000000000019E-002     5.8317842194810510E-004
   7.2500000000000009E-002     5.4580398136749864E-004
   7.3600000000000027E-002     5.0719955470412970E-004
   7.4700000000000016E-002     4.6786130405962467E-004
   7.5800000000000006E-002     4.2828946607187390E-004
   7.6900000000000024E-002     3.8893436430953443E-004
   7.8000000000000014E-002     3.5015502362512052E-004
   7.9100000000000004E-002     3.1226582359522581E-004
   8.0200000000000021E-002     2.7559520094655454E-004
   8.1300000000000011E-002     2.4045757891144603E-004
   8.2400000000000029E-002     2.0706678333226591E-004
   8.3500000000000019E-002     1.7552865028847009E-004
   8.4600000000000009E-002     1.4593401283491403E-004
   8.5700000000000026E-002     1.1841841478599235E-004
   8.6800000000000016E-002     9.3099522928241640E-005
   8.7900000000000006E-002     6.9986090238671750E-005
   8.9000000000000024E-002     4.9002563173417002E-005
   9.0100000000000013E-002     3.0099618015810847E-005
   9.1200000000000003E-002     1.3281453902891371E-005
   9.2300000000000021E-002    -1.4889135400153464E-006
   9.3400000000000011E-002    -1.4355123312270734E-005
   9.4500000000000028E-002    -2.5486220692982897E-005
   9.5600000000000018E-002    -3.4965847589774057E-005
   9.6700000000000008E-002    -4.2826100980164483E-005
   9.7800000000000026E-002    -4.9179147026734427E-005
   9.8900000000000016E-002    -5.4240677854977548E-005
  0.10000000000000001         -5.8196055761072785E-005
  0.10110000000000002         -6.1109174566809088E-005
  0.10220000000000001         -6.3008665165398270E-005
  0.10330000000000003         -6.4024177845567465E-005
  0.10440000000000002         -6.4359643147327006E-005
  0.10550000000000001         -6.4142273913603276E-005
  0.10660000000000003         -6.3384162785951048E-005
  0.10770000000000002         -6.2115730543155223E-005
  0.10880000000000001         -6.0481845139293000E-005
  0.10990000000000003         -5.8643174270400777E-005
  0.11100000000000002         -5.6631070037838072E-005
  0.11210000000000001         -5.4389001888921484E-005
  0.11320000000000002         -5.1947135943919420E-005
  0.11430000000000001         -4.9461606977274641E-005
  0.11540000000000003         -4.7051144065335393E-005
  0.11650000000000002         -4.4673248339677230E-005
  0.11760000000000001         -4.2234005377395079E-005
  0.11870000000000003         -3.9766357076587155E-005
  0.11980000000000002         -3.7410834920592606E-005
  0.12090000000000001         -3.5226606996729970E-005
  0.12200000000000003         -3.3126947528216988E-005
  0.12310000000000001         -3.1034483981784433E-005
  0.12420000000000003         -2.9014541723881848E-005
  0.12530000000000002         -2.7178417440154590E-005
  0.12640000000000001         -2.5508385078865103E-005
  0.12750000000000003         -2.3880937078502029E-005
  0.12860000000000002         -2.2260102923610248E-005
  0.12970000000000001         -2.0757257516379468E-005
  0.13080000000000003         -1.9460776456980966E-005
  0.13190000000000002         -1.8293319953954779E-005
  0.13300000000000001         -1.7119804397225380E-005
  0.13410000000000000         -1.5944804545142688E-005
  0.13520000000000004         -1.4897617802489549E-005
  0.13630000000000003         -1.4027928045834415E-005
  0.13740000000000002         -1.3224589565652423E-005
  0.13850000000000001         -1.2382341083139181E-005
  0.13960000000000000         -1.1557312063814607E-005
  0.14070000000000005         -1.0871065569517668E-005
  0.14180000000000004         -1.0313427992514335E-005
  0.14290000000000003         -9.7506090241950005E-006
  0.14400000000000002         -9.1270667326170951E-006
  0.14510000000000001         -8.5488090917351656E-006
  0.14620000000000000         -8.1166454037884250E-006
  0.14730000000000004         -7.7653503467445262E-006
  0.14840000000000003         -7.3571472967159934E-006
  0.14950000000000002         -6.8871745497744996E-006
  0.15060000000000001         -6.4856462813622784E-006
  0.15170000000000000         -6.2150147641659714E-006
  0.15280000000000005         -5.9746803344751243E-006
  0.15390000000000004         -5.6558037613285705E-006
  0.15500000000000003         -5.3051721806696150E-006
  0.15610000000000002         -5.0465673666622024E-006
  0.15720000000000001         -4.8847168727661483E-006
  0.15830000000000000         -4.6968339120212477E-006
  0.15940000000000004         -4.4227667785889935E-006
  0.16050000000000003         -4.1578805394237861E-006
  0.16160000000000002         -4.0040463318291586E-006
  0.16270000000000001         -3.9104584175220225E-006
  0.16380000000000000         -3.7500190046557691E-006
  0.16490000000000005         -3.5128978197462857E-006
  0.16600000000000004         -3.3194728530361317E-006
  0.16710000000000003         -3.2347631986340275E-006
  0.16820000000000002         -3.1701506486569997E-006
  0.16930000000000001         -3.0210615022951970E-006
  0.17040000000000000         -2.8253518848941894E-006
  0.17150000000000004         -2.7008240977011155E-006
  0.17260000000000003         -2.6620000426191837E-006
  0.17370000000000002         -2.5995157102443045E-006
  0.17480000000000001         -2.4502962787664728E-006
  0.17590000000000000         -2.2933418222237378E-006
  0.17700000000000005         -2.2262154288910097E-006
  0.17810000000000004         -2.2149665710458066E-006
  0.17920000000000003         -2.1480814211827237E-006
  0.18030000000000002         -2.0070892787771299E-006
  0.18140000000000001         -1.8915903865490691E-006
  0.18250000000000000         -1.8646363741936511E-006
  0.18360000000000004         -1.8584183862913051E-006
  0.18470000000000003         -1.7816656736613368E-006
  0.18580000000000002         -1.6580281680944609E-006
  0.18690000000000001         -1.5847889471842791E-006
  0.18800000000000000         -1.5813901654837537E-006
  0.18910000000000005         -1.5632907661711215E-006
  0.19020000000000004         -1.4760714748263126E-006
  0.19130000000000003         -1.3782864698441699E-006
  0.19240000000000002         -1.3473926401275094E-006
  0.19350000000000001         -1.3586339946414228E-006
  0.19460000000000005         -1.3242204204289010E-006
  0.19570000000000004         -1.2295215583435493E-006
  0.19680000000000003         -1.1549199143701117E-006
  0.19790000000000002         -1.1523519560796558E-006
  0.19900000000000001         -1.1674053439492127E-006
  0.20010000000000000         -1.1233986469960655E-006
  0.20120000000000005         -1.0358328381698811E-006
  0.20230000000000004         -9.8470081866253167E-007
  0.20340000000000003         -9.9322653568378882E-007
  0.20450000000000002         -9.9840497114200843E-007
  0.20560000000000000         -9.5082907591859112E-007
  0.20670000000000005         -8.8613717252883362E-007
  0.20780000000000004         -8.6347858996305149E-007
  0.20890000000000003         -8.7381067714886740E-007
