 -0.12000000000000000          0.0000000000000000
 -0.11889999999999999          0.0000000000000000
 -0.11780000000000000          0.0000000000000000
 -0.11670000000000000          1.2546763107634806E-011
 -0.11559999999999999          1.3697698357517663E-011
 -0.11449999999999999         -3.8519899075994957E-011
 -0.11340000000000000         -6.0436954052445202E-011
 -0.11230000000000000          8.1728179779361199E-011
 -0.11119999999999999          2.1664790794684308E-010
 -0.11009999999999999         -3.4040690405356955E-011
 -0.10900000000000000         -4.8208015357431577E-010
 -0.10790000000000000         -2.7206722985617660E-010
 -0.10679999999999999          7.1667310974632414E-010
 -0.10569999999999999          1.0246069548358605E-009
 -0.10460000000000000         -4.2161343860591671E-010
 -0.10349999999999999         -1.8818460123526393E-009
 -0.10239999999999999         -6.0493360320990064E-010
 -0.10130000000000000          2.4258610675786940E-009
 -0.10020000000000000          2.5024640137871756E-009
  -9.9099999999999994E-002    -1.8537327228784761E-009
  -9.7999999999999990E-002    -4.8300936583700604E-009
  -9.6899999999999986E-002    -6.5602040466572475E-010
  -9.5799999999999996E-002     6.4043956804482605E-009
  -9.4699999999999993E-002     5.8165960936662486E-009
  -9.3599999999999989E-002    -3.7803453700746559E-009
  -9.2499999999999999E-002    -9.8755323918453541E-009
  -9.1399999999999995E-002    -2.5647111101534392E-009
  -9.0299999999999991E-002     9.5434806723915244E-009
  -8.9200000000000002E-002     9.3254231003925270E-009
  -8.8099999999999984E-002    -4.2170382741346657E-009
  -8.6999999999999994E-002    -1.2694506779098447E-008
  -8.5899999999999990E-002    -3.9122780570721716E-009
  -8.4799999999999986E-002     9.9854471358185037E-009
  -8.3699999999999997E-002     9.7389358799659931E-009
  -8.2599999999999993E-002    -2.9503370857497657E-009
  -8.1499999999999989E-002    -8.7991987030022756E-009
  -8.0399999999999999E-002    -8.1173384680610638E-010
  -7.9299999999999995E-002     5.8460702945239973E-009
  -7.8199999999999992E-002    -3.1171118464179415E-010
  -7.7100000000000002E-002    -7.3376753562115482E-009
  -7.5999999999999984E-002     2.9361114234349728E-012
  -7.4899999999999994E-002     1.1607031780158650E-008
  -7.3799999999999991E-002     4.7746033793316656E-009
  -7.2699999999999987E-002    -1.6708282757349480E-008
  -7.1599999999999997E-002    -2.0920527532553024E-008
  -7.0499999999999993E-002     5.0192046074926111E-009
  -6.9399999999999989E-002     2.8318209999156352E-008
  -6.8300000000000000E-002     1.2552186845482538E-008
  -6.7199999999999996E-002    -2.6888317350426405E-008
  -6.6099999999999992E-002    -3.8678980018858056E-008
  -6.5000000000000002E-002    -6.8539880437867851E-009
  -6.3899999999999985E-002     2.4598683978638292E-008
  -6.2799999999999995E-002     1.2649567615596879E-008
  -6.1699999999999991E-002    -2.5250949775568188E-008
  -6.0599999999999994E-002    -3.9291158770993206E-008
  -5.9499999999999990E-002    -1.9399363893057853E-008
  -5.8399999999999994E-002    -3.7849972045478353E-009
  -5.7299999999999990E-002    -1.5910620376757834E-008
  -5.6199999999999986E-002    -3.1367196839937606E-008
  -5.5099999999999996E-002    -2.4951148702712089E-008
  -5.3999999999999992E-002    -1.7685636066744337E-008
  -5.2899999999999989E-002    -4.2279744150164333E-008
  -5.1799999999999985E-002    -8.0355157194844651E-008
  -5.0699999999999995E-002    -7.9839423960947897E-008
  -4.9599999999999991E-002    -3.7813272513176344E-008
  -4.8499999999999988E-002    -1.9404591711236208E-008
  -4.7399999999999998E-002    -6.9092592980268819E-008
  -4.6299999999999994E-002    -1.3944031707069371E-007
  -4.5199999999999990E-002    -1.5007118747689674E-007
  -4.4099999999999986E-002    -1.0022039020896045E-007
  -4.2999999999999997E-002    -7.1713166960307717E-008
  -4.1899999999999993E-002    -1.1487380646713063E-007
  -4.0799999999999989E-002    -1.8234743492939742E-007
  -3.9699999999999985E-002    -2.0369425612898340E-007
  -3.8599999999999995E-002    -1.8449404137754755E-007
  -3.7499999999999992E-002    -1.8541319946052681E-007
  -3.6399999999999988E-002    -2.2242643638037407E-007
  -3.5299999999999984E-002    -2.4819252075758413E-007
  -3.4199999999999994E-002    -2.3904783574835164E-007
  -3.3099999999999991E-002    -2.4074458337963733E-007
  -3.1999999999999987E-002    -2.9325008199521108E-007
  -3.0899999999999997E-002    -3.5277716392556613E-007
  -2.9799999999999993E-002    -3.4703276696745888E-007
  -2.8699999999999989E-002    -2.9005778401369753E-007
  -2.7599999999999986E-002    -2.7514960265762056E-007
  -2.6499999999999996E-002    -3.4253875469403283E-007
  -2.5399999999999992E-002    -4.1563438912817219E-007
  -2.4299999999999988E-002    -4.0575909565632173E-007
  -2.3199999999999985E-002    -3.3548010947015428E-007
  -2.2099999999999995E-002    -3.0228872560655873E-007
  -2.0999999999999991E-002    -3.3727386039572593E-007
  -1.9899999999999987E-002    -3.6721388596561155E-007
  -1.8799999999999983E-002    -3.3282060485362308E-007
  -1.7699999999999994E-002    -2.7471403996059962E-007
  -1.6599999999999990E-002    -2.5748636289790738E-007
  -1.5499999999999986E-002    -2.6190249968749413E-007
  -1.4399999999999996E-002    -2.1663183247255802E-007
  -1.3299999999999992E-002    -1.2054364617597457E-007
  -1.2199999999999989E-002    -5.3648427922325936E-008
  -1.1099999999999985E-002    -5.2699633101838117E-008
  -9.9999999999999950E-003    -4.6915769047473077E-008
  -8.8999999999999913E-003     4.3085158552003122E-008
  -7.7999999999999875E-003     1.8525922484968760E-007
  -6.6999999999999837E-003     2.7470605346024968E-007
  -5.5999999999999939E-003     2.8791447448384133E-007
  -4.4999999999999901E-003     3.1348926654573006E-007
  -3.3999999999999864E-003     4.1810048401202948E-007
  -2.2999999999999826E-003     5.5140566246336675E-007
  -1.1999999999999927E-003     6.2691520952284918E-007
  -9.9999999999988987E-005     6.5306812757626176E-007
   1.0000000000000148E-003     7.0965722898108652E-007
   2.1000000000000185E-003     8.1676540730768465E-007
   3.2000000000000084E-003     9.0374908268131549E-007
   4.3000000000000121E-003     9.2185462108318461E-007
   5.4000000000000159E-003     9.2226053993726964E-007
   6.5000000000000058E-003     9.7777524388220627E-007
   7.6000000000000234E-003     1.0641801964084152E-006
   8.7000000000000133E-003     1.0934481906588189E-006
   9.8000000000000032E-003     1.0439302968734410E-006
   1.0900000000000021E-002     9.9554040389193688E-007
   1.2000000000000011E-002     1.0096522373714834E-006
   1.3100000000000001E-002     1.0370731615694240E-006
   1.4200000000000018E-002     9.9512215001595905E-007
   1.5300000000000008E-002     8.9249573420602246E-007
   1.6400000000000026E-002     8.0872104035734083E-007
   1.7500000000000016E-002     7.7236899187482777E-007
   1.8600000000000005E-002     7.2297780207009055E-007
   1.9700000000000023E-002     6.1069181356288027E-007
   2.0800000000000013E-002     4.7375746703437471E-007
   2.1900000000000003E-002     3.7597362734231865E-007
   2.3000000000000020E-002     3.0721491839358350E-007
   2.4100000000000010E-002     2.0499940944773698E-007
   2.5200000000000000E-002     5.6253366409464434E-008
   2.6300000000000018E-002    -7.8210113940713200E-008
   2.7400000000000008E-002    -1.5784181073286163E-007
   2.8500000000000025E-002    -2.2653968301256100E-007
   2.9600000000000015E-002    -3.4086363598362368E-007
   3.0700000000000005E-002    -4.8337506086681969E-007
   3.1800000000000023E-002    -5.8288679838369717E-007
   3.2900000000000013E-002    -6.2249415577753098E-007
   3.4000000000000002E-002    -6.5926889192269300E-007
   3.5100000000000020E-002    -7.3508016384948860E-007
   3.6200000000000010E-002    -8.1763488424257957E-007
   3.7300000000000028E-002    -8.5439125996344956E-007
   3.8400000000000017E-002    -8.5165908103590482E-007
   3.9500000000000007E-002    -8.5117346770857694E-007
   4.0600000000000025E-002    -8.6741692939540371E-007
   4.1700000000000015E-002    -8.6999159520928515E-007
   4.2800000000000005E-002    -8.3921224813821027E-007
   4.3900000000000022E-002    -8.0197702345685684E-007
   4.5000000000000012E-002    -7.7612202176169376E-007
   4.6100000000000002E-002    -7.4033920327565284E-007
   4.7200000000000020E-002    -6.7438804762787186E-007
   4.8300000000000010E-002    -5.9164767662878148E-007
   4.9400000000000027E-002    -5.3024922408440034E-007
   5.0500000000000017E-002    -4.9032024662665208E-007
   5.1600000000000007E-002    -4.3620605083560804E-007
   5.2700000000000025E-002    -3.5155312616552692E-007
   5.3800000000000014E-002    -2.6549415110821428E-007
   5.4900000000000004E-002    -2.0594063698808895E-007
   5.6000000000000022E-002    -1.5664717523122818E-007
   5.7100000000000012E-002    -9.2155403308424866E-008
   5.8200000000000002E-002    -2.1416271422936006E-008
   5.9300000000000019E-002     2.8968395682227310E-008
   6.0400000000000009E-002     5.7407600451142571E-008
   6.1500000000000027E-002     9.6666944671142119E-008
   6.2600000000000017E-002     1.5264673436377052E-007
   6.3700000000000007E-002     1.9459773170638073E-007
   6.4800000000000024E-002     2.0399791367253783E-007
   6.5900000000000014E-002     2.0458631411202077E-007
   6.7000000000000004E-002     2.2607422067721927E-007
   6.8100000000000022E-002     2.5374447432113811E-007
   6.9200000000000012E-002     2.5316180085610540E-007
   7.0300000000000029E-002     2.3060121634443931E-007
   7.1400000000000019E-002     2.2717307501807227E-007
   7.2500000000000009E-002     2.4952959165602806E-007
   7.3600000000000027E-002     2.5196348474310071E-007
   7.4700000000000016E-002     2.0704241876501328E-007
   7.5800000000000006E-002     1.5678922693496133E-007
   7.6900000000000024E-002     1.5603869485403266E-007
   7.8000000000000014E-002     1.8667965662189090E-007
   7.9100000000000004E-002     1.8021829362169228E-007
   8.0200000000000021E-002     1.2114279002162220E-007
   8.1300000000000011E-002     7.0351070746710320E-008
   8.2400000000000029E-002     7.3982178605547233E-008
   8.3500000000000019E-002     9.2610896729183878E-008
   8.4600000000000009E-002     6.9089296061974892E-008
   8.5700000000000026E-002     1.9232544445912936E-008
   8.6800000000000016E-002     7.1922623412490339E-009
   8.7900000000000006E-002     3.8182868422609317E-008
   8.9000000000000024E-002     4.1917353144071967E-008
   9.0100000000000013E-002    -1.4170354667442098E-008
   9.1200000000000003E-002    -6.5096621426619095E-008
   9.2300000000000021E-002    -4.1538161354992553E-008
   9.3400000000000011E-002     1.8401907553311503E-008
   9.4500000000000028E-002     1.9096960457432033E-008
   9.5600000000000018E-002    -4.8894399640175834E-008
   9.6700000000000008E-002    -9.1811131142094382E-008
   9.7800000000000026E-002    -5.2570502617754755E-008
   9.8900000000000016E-002     3.1678251133371305E-009
  0.10000000000000001         -9.0625213999828702E-009
  0.10110000000000002         -6.3554601581472525E-008
  0.10220000000000001         -6.6912825502640771E-008
  0.10330000000000003         -9.4995575850020941E-009
  0.10440000000000002          1.5546270049071609E-008
  0.10550000000000001         -3.8431110738201824E-008
  0.10660000000000003         -9.0264350660618220E-008
  0.10770000000000002         -5.1293994829393341E-008
  0.10880000000000001          3.1550356993648165E-008
  0.10990000000000003          3.9704694643205585E-008
  0.11100000000000002         -3.8917843170338529E-008
  0.11210000000000001         -8.6836742241303000E-008
  0.11320000000000002         -3.2496892288236268E-008
  0.11430000000000001          4.2509363140652567E-008
  0.11540000000000003          2.9465590856148083E-008
  0.11650000000000002         -4.2227913610304313E-008
  0.11760000000000001         -5.4721219555631251E-008
  0.11870000000000003          1.1851428283193854E-008
  0.11980000000000002          4.8908248118095798E-008
  0.12090000000000001         -6.8710037659514001E-009
  0.12200000000000003         -6.9004528313598712E-008
  0.12310000000000001         -3.3005459698642881E-008
  0.12420000000000003          5.6092968492293949E-008
  0.12530000000000002          6.5757340905747697E-008
  0.12640000000000001         -2.1546780359926743E-008
  0.12750000000000003         -7.7281882226998277E-008
  0.12860000000000002         -1.9432084386039605E-008
  0.12970000000000001          6.3613939005335851E-008
  0.13080000000000003          4.8660414364576354E-008
  0.13190000000000002         -3.5408820764359916E-008
  0.13300000000000001         -5.6572247331132530E-008
  0.13410000000000000          1.4489753397128879E-008
  0.13520000000000004          6.1134564077747200E-008
  0.13630000000000003          6.4487006845581618E-009
  0.13740000000000002         -6.3452084475557058E-008
  0.13850000000000001         -3.2970547181321308E-008
  0.13960000000000000          5.8654663348534086E-008
  0.14070000000000005          7.2174628940047114E-008
  0.14180000000000004         -1.8553027558709800E-008
  0.14290000000000003         -8.2088249087064469E-008
  0.14400000000000002         -2.6352651616434741E-008
  0.14510000000000001          6.3218060120107111E-008
  0.14620000000000000          5.4664326398778940E-008
  0.14730000000000004         -3.2047438480731216E-008
  0.14840000000000003         -6.1851480381847068E-008
  0.14950000000000002          6.0542451052469914E-009
  0.15060000000000001          5.9870103541470598E-008
  0.15170000000000000          1.4081260601983558E-008
  0.15280000000000005         -5.6360867972671258E-008
  0.15390000000000004         -3.5925992847296584E-008
  0.15500000000000003          4.7742307884846014E-008
  0.15610000000000002          6.3453207133079559E-008
  0.15720000000000001         -1.9396326322862478E-008
  0.15830000000000000         -7.9166596833601943E-008
  0.15940000000000004         -2.5084272436970423E-008
  0.16050000000000003          6.4319095827158890E-008
  0.16160000000000002          5.9447192057859866E-008
  0.16270000000000001         -2.6773671280011513E-008
  0.16380000000000000         -6.3760104751509061E-008
  0.16490000000000005         -2.5401512004918914E-009
  0.16600000000000004          5.6002104287244947E-008
  0.16710000000000003          2.2351864359393403E-008
  0.16820000000000002         -4.5248384594742674E-008
  0.16930000000000001         -3.7388300455631907E-008
  0.17040000000000000          3.3595071613490290E-008
  0.17150000000000004          5.3945804268096254E-008
  0.17260000000000003         -1.2039320651524577E-008
  0.17370000000000002         -6.4149112688483001E-008
  0.17480000000000001         -2.0361454744488583E-008
  0.17590000000000000          5.5938130572030786E-008
  0.17700000000000005          5.1353875818449524E-008
  0.17810000000000004         -2.6357019677902827E-008
  0.17920000000000003         -6.2100859565816791E-008
  0.18030000000000002         -7.4298065477762520E-009
  0.18140000000000001          5.1342780693630630E-008
  0.18250000000000000          2.8464356205404329E-008
  0.18360000000000004         -3.4276318672255002E-008
  0.18470000000000003         -3.9078624780586324E-008
  0.18580000000000002          1.6370186983749591E-008
  0.18690000000000001          4.1441200693270730E-008
  0.18800000000000000         -2.5423707583627220E-009
  0.18910000000000005         -4.3729631471478569E-008
  0.19020000000000004         -1.4994236963161711E-008
  0.19130000000000003          4.0330505157726293E-008
  0.19240000000000002          3.6023056537715092E-008
  0.19350000000000001         -2.3091923040396978E-008
  0.19460000000000005         -4.8353779646959083E-008
  0.19570000000000004         -2.4286141986351595E-009
  0.19680000000000003          4.5442313023613679E-008
  0.19790000000000002          2.5665199743230005E-008
  0.19900000000000001         -2.8892616299458496E-008
  0.20010000000000000         -3.6790403612485534E-008
  0.20120000000000005          9.4717442777891847E-009
  0.20230000000000004          3.7839782862647553E-008
  0.20340000000000003          9.0315159795295585E-009
  0.20450000000000002         -2.8359794512766712E-008
  0.20560000000000000         -1.7932514140284184E-008
  0.20670000000000005          1.9169934972751435E-008
  0.20780000000000004          2.2657753007138126E-008
  0.20890000000000003         -1.1623301432450717E-008
