 -0.12000000000000000          0.0000000000000000
 -0.11889999999999999          0.0000000000000000
 -0.11780000000000000          0.0000000000000000
 -0.11670000000000000          0.0000000000000000
 -0.11559999999999999          0.0000000000000000
 -0.11449999999999999          0.0000000000000000
 -0.11340000000000000          0.0000000000000000
 -0.11230000000000000          0.0000000000000000
 -0.11119999999999999          0.0000000000000000
 -0.11009999999999999          0.0000000000000000
 -0.10900000000000000          3.7337492256693864E-029
 -0.10790000000000000         -1.5412589913066354E-029
 -0.10679999999999999         -4.7066111907353457E-028
 -0.10569999999999999          3.4946594675482939E-029
 -0.10460000000000000          2.2726620456230697E-027
 -0.10349999999999999         -2.3659379143176546E-027
 -0.10239999999999999         -5.7739587733163325E-027
 -0.10130000000000000          4.9473510278548908E-026
 -0.10020000000000000          7.3761385073825140E-026
  -9.9099999999999994E-002    -3.5826219083415733E-025
  -9.7999999999999990E-002    -9.5600840230092643E-025
  -9.6899999999999986E-002     7.2430422652321742E-025
  -9.5799999999999996E-002     5.5817557288467968E-024
  -9.4699999999999993E-002     4.8780878570851281E-024
  -9.3599999999999989E-002    -1.3090441480493423E-023
  -9.2499999999999999E-002    -3.3913114538233193E-023
  -9.1399999999999995E-002    -1.4169981852070274E-023
  -9.0299999999999991E-002     5.5987074030669100E-023
  -8.9200000000000002E-002     1.2020259839151753E-022
  -8.8099999999999984E-002     1.4259967215528834E-022
  -8.6999999999999994E-002     8.8055241704538463E-023
  -8.5899999999999990E-002    -3.6373942150698621E-022
  -8.4799999999999986E-002    -1.5562641879748369E-021
  -8.3699999999999997E-002    -2.2292384222365550E-021
  -8.2599999999999993E-002     1.1398437769365266E-021
  -8.1499999999999989E-002     9.5910525738015190E-021
  -8.0399999999999999E-002     1.4230820105123690E-020
  -7.9299999999999995E-002    -2.0212052749698549E-022
  -7.8199999999999992E-002    -3.4533278384531582E-020
  -7.7100000000000002E-002    -5.9679633629628979E-020
  -7.5999999999999984E-002    -3.5590573534913473E-020
  -7.4899999999999994E-002     5.0935898346417325E-020
  -7.3799999999999991E-002     1.7517763471418647E-019
  -7.2699999999999987E-002     2.7621098692097060E-019
  -7.1599999999999997E-002     2.1148624948840999E-019
  -7.0499999999999993E-002    -2.4874859058421008E-019
  -6.9399999999999989E-002    -1.1344286826773008E-018
  -6.8300000000000000E-002    -1.7642922877434339E-018
  -6.7199999999999996E-002    -7.9612225529834601E-019
  -6.6099999999999992E-002     2.4487954115693338E-018
  -6.5000000000000002E-002     6.2714480714927845E-018
  -6.3899999999999985E-002     6.7751046979962159E-018
  -6.2799999999999995E-002     7.9459336703240659E-019
  -6.1699999999999991E-002    -1.0857176500857628E-017
  -6.0599999999999994E-002    -2.2700524345445877E-017
  -5.9499999999999990E-002    -2.5839901417572456E-017
  -5.8399999999999994E-002    -9.5859206677330576E-018
  -5.7299999999999990E-002     3.2789313750148909E-017
  -5.6199999999999986E-002     8.9371055069732068E-017
  -5.5099999999999996E-002     1.1655934360382721E-016
  -5.3999999999999992E-002     5.5178535289505354E-017
  -5.2899999999999989E-002    -1.1382570358524157E-016
  -5.1799999999999985E-002    -3.1578521180207269E-016
  -5.0699999999999995E-002    -3.9751605615735057E-016
  -4.9599999999999991E-002    -2.2280145533318263E-016
  -4.8499999999999988E-002     2.2402838255728048E-016
  -4.7399999999999998E-002     7.9938342644386489E-016
  -4.6299999999999994E-002     1.2179052644184117E-015
  -4.5199999999999990E-002     1.0986559426974518E-015
  -4.4099999999999986E-002     1.1228443449348376E-016
  -4.2999999999999997E-002    -1.6862910849648719E-015
  -4.1899999999999993E-002    -3.5227651348844306E-015
  -4.0799999999999989E-002    -4.0350858132511425E-015
  -3.9699999999999985E-002    -2.1037204621956974E-015
  -3.8599999999999995E-002     2.1420525147072171E-015
  -3.7499999999999992E-002     7.0666586596051725E-015
  -3.6399999999999988E-002     1.0296896730990594E-014
  -3.5299999999999984E-002     9.7682194228959282E-015
  -3.4199999999999994E-002     4.2955348920046838E-015
  -3.3099999999999991E-002    -6.0231996189155472E-015
  -3.1999999999999987E-002    -1.8899675051429858E-014
  -3.0899999999999997E-002    -2.9128483885988363E-014
  -2.9799999999999993E-002    -2.9913747802597090E-014
  -2.8699999999999989E-002    -1.6592425065744924E-014
  -2.7599999999999986E-002     1.0003631901794527E-014
  -2.6499999999999996E-002     4.3556985411053253E-014
  -2.5399999999999992E-002     7.4719215732189925E-014
  -2.4299999999999988E-002     9.2170025680748252E-014
  -2.3199999999999985E-002     8.1799930056521836E-014
  -2.2099999999999995E-002     2.9473910698142244E-014
  -2.0999999999999991E-002    -6.8365106598803488E-014
  -1.9899999999999987E-002    -1.9201602655984085E-013
  -1.8799999999999983E-002    -2.9645456554004690E-013
  -1.7699999999999994E-002    -3.2548052794623139E-013
  -1.6599999999999990E-002    -2.3350914843227322E-013
  -1.5499999999999986E-002    -3.0123809855933789E-015
  -1.4399999999999996E-002     3.4366373679109441E-013
  -1.3299999999999992E-002     7.3275559881944008E-013
  -1.2199999999999989E-002     1.0337138046587202E-012
  -1.1099999999999985E-002     1.0800310298875182E-012
  -9.9999999999999950E-003     7.2678316273208643E-013
  -8.8999999999999913E-003    -7.5429706968346832E-014
  -7.7999999999999875E-003    -1.2280004487233431E-012
  -6.6999999999999837E-003    -2.4742853165643508E-012
  -5.5999999999999939E-003    -3.4267846806684821E-012
  -4.4999999999999901E-003    -3.6274594439333896E-012
  -3.3999999999999864E-003    -2.6573686827402465E-012
  -2.2999999999999826E-003    -3.0401901699242395E-013
  -1.1999999999999927E-003     3.2564870938722734E-012
  -9.9999999999988987E-005     7.3510468545645580E-012
   1.0000000000000148E-003     1.0849136693191763E-011
   2.1000000000000185E-003     1.2364870412284734E-011
   3.2000000000000084E-003     1.0590566618118302E-011
   4.3000000000000121E-003     4.7172148999463648E-012
   5.4000000000000159E-003    -5.1288509030078533E-012
   6.5000000000000058E-003    -1.7563402121556493E-011
   7.6000000000000234E-003    -2.9900557724227284E-011
   8.7000000000000133E-003    -3.8495123755311056E-011
   9.8000000000000032E-003    -3.9456365258372372E-011
   1.0900000000000021E-002    -2.9622870129086820E-011
   1.2000000000000011E-002    -7.6444458402269433E-012
   1.3100000000000001E-002     2.5038764464579977E-011
   1.4200000000000018E-002     6.3623759039010963E-011
   1.5300000000000008E-002     1.0011143997123995E-010
   1.6400000000000026E-002     1.2439628493954302E-010
   1.7500000000000016E-002     1.2618842082368076E-010
   1.8600000000000005E-002     9.7445350399905095E-011
   1.9700000000000023E-002     3.4873985643724126E-011
   2.0800000000000013E-002    -5.8033359368048210E-011
   2.1900000000000003E-002    -1.7009467445650017E-010
   2.3000000000000020E-002    -2.8332369783612421E-010
   2.4100000000000010E-002    -3.7591513235568641E-010
   2.5200000000000000E-002    -4.2700795677141912E-010
   2.6300000000000018E-002    -4.2232797814456546E-010
   2.7400000000000008E-002    -3.5952213428558366E-010
   2.8500000000000025E-002    -2.5193497288356070E-010
   2.9600000000000015E-002    -1.2955837791484015E-010
   3.0700000000000005E-002    -3.6093343591669935E-011
   3.1800000000000023E-002    -2.1657731164026472E-011
   3.2900000000000013E-002    -1.3177672841813148E-010
   3.4000000000000002E-002    -3.9438327603669165E-010
   3.5100000000000020E-002    -8.0728779217054125E-010
   3.6200000000000010E-002    -1.3287178024512514E-009
   3.7300000000000028E-002    -1.8733428142070352E-009
   3.8400000000000017E-002    -2.3153932104946762E-009
   3.9500000000000007E-002    -2.4991941849350496E-009
   4.0600000000000025E-002    -2.2556245760085858E-009
   4.1700000000000015E-002    -1.4214953658608920E-009
   4.2800000000000005E-002     1.4195156161633804E-010
   4.3900000000000022E-002     2.5352058230510011E-009
   4.5000000000000012E-002     5.8151803372652466E-009
   4.6100000000000002E-002     1.0000652750363770E-008
   4.7200000000000020E-002     1.5090048322008442E-008
   4.8300000000000010E-002     2.1089656243589161E-008
   4.9400000000000027E-002     2.8050024525327899E-008
   5.0500000000000017E-002     3.6104552236793097E-008
   5.1600000000000007E-002     4.5506659773764113E-008
   5.2700000000000025E-002     5.6659381186818791E-008
   5.3800000000000014E-002     7.0135449448116560E-008
   5.4900000000000004E-002     8.6684785571833345E-008
   5.6000000000000022E-002     1.0723425702963141E-007
   5.7100000000000012E-002     1.3287875333389820E-007
   5.8200000000000002E-002     1.6487341270021716E-007
   5.9300000000000019E-002     2.0462930194753426E-007
   6.0400000000000009E-002     2.5372469281137455E-007
   6.1500000000000027E-002     3.1393085464515025E-007
   6.2600000000000017E-002     3.8726042816961126E-007
   6.3700000000000007E-002     4.7602969743820722E-007
   6.4800000000000024E-002     5.8293403526477050E-007
   6.5900000000000014E-002     7.1113265676103765E-007
   6.7000000000000004E-002     8.6432663692903589E-007
   6.8100000000000022E-002     1.0468249911355088E-006
   6.9200000000000012E-002     1.2636056681003538E-006
   7.0300000000000029E-002     1.5203692100840271E-006
   7.1400000000000019E-002     1.8235639345220989E-006
   7.2500000000000009E-002     2.1804203242936637E-006
   7.3600000000000027E-002     2.5989859295805218E-006
   7.4700000000000016E-002     3.0881735710863722E-006
   7.5800000000000006E-002     3.6578153412847314E-006
   7.6900000000000024E-002     4.3187301344005391E-006
   7.8000000000000014E-002     5.0827729864977300E-006
   7.9100000000000004E-002     5.9628659982990939E-006
   8.0200000000000021E-002     6.9730476752738468E-006
   8.1300000000000011E-002     8.1284124462399632E-006
   8.2400000000000029E-002     9.4450961114489473E-006
   8.3500000000000019E-002     1.0940161701000761E-005
   8.4600000000000009E-002     1.2631554454856087E-005
   8.5700000000000026E-002     1.4537834431394003E-005
   8.6800000000000016E-002     1.6678061001584865E-005
   8.7900000000000006E-002     1.9071409042226151E-005
   8.9000000000000024E-002     2.1737065253546461E-005
   9.0100000000000013E-002     2.4693961677257903E-005
   9.1200000000000003E-002     2.7960317311226390E-005
   9.2300000000000021E-002     3.1553150620311499E-005
   9.3400000000000011E-002     3.5487759305397049E-005
   9.4500000000000028E-002     3.9777540223440155E-005
   9.5600000000000018E-002     4.4433025323087350E-005
   9.6700000000000008E-002     4.9461570597486570E-005
   9.7800000000000026E-002     5.4866268328623846E-005
   9.8900000000000016E-002     6.0645248595392331E-005
  0.10000000000000001          6.6791231802199036E-005
  0.10110000000000002          7.3290808359161019E-005
  0.10220000000000001          8.0123223597183824E-005
  0.10330000000000003          8.7259948486462235E-005
  0.10440000000000002          9.4663890195079148E-005
  0.10550000000000001          1.0228881001239643E-004
  0.10660000000000003          1.1007842113031074E-004
  0.10770000000000002          1.1796601756941527E-004
  0.10880000000000001          1.2587563833221793E-004
  0.10990000000000003          1.3371965906117111E-004
  0.11100000000000002          1.4140027633402497E-004
  0.11210000000000001          1.4880951493978500E-004
  0.11320000000000002          1.5582890773657709E-004
  0.11430000000000001          1.6233189671766013E-004
  0.11540000000000003          1.6818207222968340E-004
  0.11650000000000002          1.7323635984212160E-004
  0.11760000000000001          1.7734481662046164E-004
  0.11870000000000003          1.8035533139482141E-004
  0.11980000000000002          1.8211355200037360E-004
  0.12090000000000001          1.8246482068207115E-004
  0.12200000000000003          1.8125792848877609E-004
  0.12310000000000001          1.7834641039371490E-004
  0.12420000000000003          1.7359301273245364E-004
  0.12530000000000002          1.6687429160811007E-004
  0.12640000000000001          1.5808055468369275E-004
  0.12750000000000003          1.4711795665789396E-004
  0.12860000000000002          1.3391734682954848E-004
  0.12970000000000001          1.1843015090562403E-004
  0.13080000000000003          1.0063878289656714E-004
  0.13190000000000002          8.0552716099191457E-005
  0.13300000000000001          5.8214816817780957E-005
  0.13410000000000000          3.3699576306389645E-005
  0.13520000000000004          7.1171725721796975E-006
  0.13630000000000003         -2.1385299987741746E-005
  0.13740000000000002         -5.1623286708490923E-005
  0.13850000000000001         -8.3378443378023803E-005
  0.13960000000000000         -1.1639708100119606E-004
  0.14070000000000005         -1.5039360732771456E-004
  0.14180000000000004         -1.8505241314414889E-004
  0.14290000000000003         -2.2002897458150983E-004
  0.14400000000000002         -2.5495677255094051E-004
  0.14510000000000001         -2.8945060330443084E-004
  0.14620000000000000         -3.2311319955624640E-004
  0.14730000000000004         -3.5553821362555027E-004
  0.14840000000000003         -3.8631857023574412E-004
  0.14950000000000002         -4.1505016270093620E-004
  0.15060000000000001         -4.4134067138656974E-004
  0.15170000000000000         -4.6481672325171530E-004
  0.15280000000000005         -4.8512895591557026E-004
  0.15390000000000004         -5.0195859512314200E-004
  0.15500000000000003         -5.1502243150025606E-004
  0.15610000000000002         -5.2407948533073068E-004
  0.15720000000000001         -5.2893586689606309E-004
  0.15830000000000000         -5.2944949129596353E-004
  0.15940000000000004         -5.2553246496245265E-004
  0.16050000000000003         -5.1715393783524632E-004
  0.16160000000000002         -5.0434103468433022E-004
  0.16270000000000001         -4.8717780737206340E-004
  0.16380000000000000         -4.6580858179368079E-004
  0.16490000000000005         -4.4043219531886280E-004
  0.16600000000000004         -4.1130417957901955E-004
  0.16710000000000003         -3.7872773827984929E-004
  0.16820000000000002         -3.4305179724469781E-004
  0.16930000000000001         -3.0466137104667723E-004
  0.17040000000000000         -2.6398076443001628E-004
  0.17150000000000004         -2.2145950060803443E-004
  0.17260000000000003         -1.7757271416485310E-004
  0.17370000000000002         -1.3280310668051243E-004
  0.17480000000000001         -8.7636530224699527E-005
  0.17590000000000000         -4.2554886022116989E-005
  0.17700000000000005          1.9629885628091870E-006
  0.17810000000000004          4.5456305088009685E-005
  0.17920000000000003          8.7491418526042253E-005
  0.18030000000000002          1.2765967403538525E-004
  0.18140000000000001          1.6559459618292749E-004
  0.18250000000000000          2.0096448133699596E-004
  0.18360000000000004          2.3348200193140656E-004
  0.18470000000000003          2.6290345704182982E-004
  0.18580000000000002          2.8903564088977873E-004
  0.18690000000000001          3.1173511524684727E-004
  0.18800000000000000          3.3091084333136678E-004
  0.18910000000000005          3.4652039175853133E-004
  0.19020000000000004          3.5856658359989524E-004
  0.19130000000000003          3.6709723644889891E-004
  0.19240000000000002          3.7220204831101000E-004
  0.19350000000000001          3.7401090958155692E-004
  0.19460000000000005          3.7268974119797349E-004
  0.19570000000000004          3.6843490670435131E-004
  0.19680000000000003          3.6146660568192601E-004
  0.19790000000000002          3.5202552680857480E-004
  0.19900000000000001          3.4036816214211285E-004
  0.20010000000000000          3.2676433329470456E-004
  0.20120000000000005          3.1149049755185843E-004
  0.20230000000000004          2.9482433455996215E-004
  0.20340000000000003          2.7703924570232630E-004
  0.20450000000000002          2.5840222951956093E-004
  0.20560000000000000          2.3917089856695384E-004
  0.20670000000000005          2.1959110745228827E-004
  0.20780000000000004          1.9989319844171405E-004
  0.20890000000000003          1.8028900376521051E-004
