 -0.12000000000000000          0.0000000000000000
 -0.11889999999999999          0.0000000000000000
 -0.11780000000000000          0.0000000000000000
 -0.11670000000000000          0.0000000000000000
 -0.11559999999999999          0.0000000000000000
 -0.11449999999999999          0.0000000000000000
 -0.11340000000000000          0.0000000000000000
 -0.11230000000000000          0.0000000000000000
 -0.11119999999999999          0.0000000000000000
 -0.11009999999999999          0.0000000000000000
 -0.10900000000000000          0.0000000000000000
 -0.10790000000000000          0.0000000000000000
 -0.10679999999999999          0.0000000000000000
 -0.10569999999999999          0.0000000000000000
 -0.10460000000000000          0.0000000000000000
 -0.10349999999999999          0.0000000000000000
 -0.10239999999999999         -1.2766599724154462E-039
 -0.10130000000000000          1.9186285702156351E-038
 -0.10020000000000000         -7.7817612575311761E-038
  -9.9099999999999994E-002    -2.3085981899561007E-037
  -9.7999999999999990E-002     2.3180821779626511E-036
  -9.6899999999999986E-002    -1.2028777406849831E-037
  -9.5799999999999996E-002    -3.4851341203217270E-035
  -9.4699999999999993E-002     3.1063058110078014E-035
  -9.3599999999999989E-002     3.9044600467314035E-034
  -9.2499999999999999E-002    -4.4235918720106234E-034
  -9.1399999999999995E-002    -3.7066382146479324E-033
  -9.0299999999999991E-002     3.6974002984184078E-033
  -8.9200000000000002E-002     3.1138442746467239E-032
  -8.8099999999999984E-002    -1.8877018395409381E-032
  -8.6999999999999994E-002    -2.3176234699908352E-031
  -8.5899999999999990E-002     1.5813522894797077E-032
  -8.4799999999999986E-002     1.4998312037678372E-030
  -8.3699999999999997E-002     8.3818004024365977E-031
  -8.2599999999999993E-002    -8.1725513113235587E-030
  -8.1499999999999989E-002    -1.0656444225458544E-029
  -8.0399999999999999E-002     3.5342758465043394E-029
  -7.9299999999999995E-002     8.3639911552080804E-029
  -7.8199999999999992E-002    -1.0256869734337201E-028
  -7.7100000000000002E-002    -4.8924971341427408E-028
  -7.5999999999999984E-002     1.8458460157176920E-029
  -7.4899999999999994E-002     2.1878801057622159E-027
  -7.3799999999999991E-002     2.0646968561472305E-027
  -7.2699999999999987E-002    -7.0269911359220230E-027
  -7.1599999999999997E-002    -1.5547773596053629E-026
  -7.0499999999999993E-002     1.1227678537711822E-026
  -6.9399999999999989E-002     7.1161237900458465E-026
  -6.8300000000000000E-002     3.5715729869175797E-026
  -6.7199999999999996E-002    -2.1690038737842822E-025
  -6.6099999999999992E-002    -3.6787529912898715E-025
  -6.5000000000000002E-002     3.2414881310829633E-025
  -6.3899999999999985E-002     1.5971670345404952E-024
  -6.2799999999999995E-002     8.0030017720762170E-025
  -6.1699999999999991E-002    -4.1233250700618420E-024
  -6.0599999999999994E-002    -7.3580701167345892E-024
  -5.9499999999999990E-002     3.6587341174018845E-024
  -5.8399999999999994E-002     2.6110448726203283E-023
  -5.7299999999999990E-002     2.1189879920511099E-023
  -5.6199999999999986E-002    -4.7535884090735187E-023
  -5.5099999999999996E-002    -1.1690393549556880E-022
  -5.3999999999999992E-002    -1.7467346282969012E-023
  -5.2899999999999989E-002     2.8513126245901249E-022
  -5.1799999999999985E-002     4.0361456059570618E-022
  -5.0699999999999995E-002    -2.0385903809257328E-022
  -4.9599999999999991E-002    -1.2484834288841573E-021
  -4.8499999999999988E-002    -1.1123674865504146E-021
  -4.7399999999999998E-002     1.4838031865100308E-021
  -4.6299999999999994E-002     4.4647255316102232E-021
  -4.5199999999999990E-002     2.5258501225996554E-021
  -4.4099999999999986E-002    -6.3875161551157559E-021
  -4.2999999999999997E-002    -1.3827067108905448E-020
  -4.1899999999999993E-002    -5.2616251945127012E-021
  -4.0799999999999989E-002     2.0818921096435019E-020
  -3.9699999999999985E-002     3.8786776803598497E-020
  -3.8599999999999995E-002     1.3625522613952342E-020
  -3.7499999999999992E-002    -5.3746580519690087E-020
  -3.6399999999999988E-002    -1.0212785432885956E-019
  -3.5299999999999984E-002    -5.2514433604981264E-020
  -3.4199999999999994E-002     1.0379751193294931E-019
  -3.3099999999999991E-002     2.5564670820623120E-019
  -3.1999999999999987E-002     2.2517929395103624E-019
  -3.0899999999999997E-002    -9.4254994827824196E-020
  -2.9799999999999993E-002    -5.8873230760087518E-019
  -2.8699999999999989E-002    -8.5428726952760211E-019
  -2.7599999999999986E-002    -3.4697768419216580E-019
  -2.6499999999999996E-002     1.1131510123830227E-018
  -2.5399999999999992E-002     2.6784949890740309E-018
  -2.4299999999999988E-002     2.4453173238887014E-018
  -2.3199999999999985E-002    -1.0944706892121612E-018
  -2.2099999999999995E-002    -6.6298906599206943E-018
  -2.0999999999999991E-002    -9.1416783566777787E-018
  -1.9899999999999987E-002    -3.0897536799989109E-018
  -1.8799999999999983E-002     1.1339907525815000E-017
  -1.7699999999999994E-002     2.4515183247097358E-017
  -1.6599999999999990E-002     2.1833046802171716E-017
  -1.5499999999999986E-002    -4.4463480825593524E-018
  -1.4399999999999996E-002    -4.4554799910858153E-017
  -1.3299999999999992E-002    -7.1257275345033556E-017
  -1.2199999999999989E-002    -5.3101137355527429E-017
  -1.1099999999999985E-002     2.4462814442516626E-017
  -9.9999999999999950E-003     1.3876199621038355E-016
  -8.8999999999999913E-003     2.2124480729947624E-016
  -7.7999999999999875E-003     1.7593285919544624E-016
  -6.6999999999999837E-003    -6.2253732014749070E-017
  -5.5999999999999939E-003    -4.4271349599482362E-016
  -4.4999999999999901E-003    -7.4575930580041204E-016
  -3.3999999999999864E-003    -6.4074373748335025E-016
  -2.2999999999999826E-003     1.0890586491234768E-016
  -1.1999999999999927E-003     1.3684616650237193E-015
  -9.9999999999988987E-005     2.4684841895024475E-015
   1.0000000000000148E-003     2.3659137935458721E-015
   2.1000000000000185E-003     2.2081426309936484E-016
   3.2000000000000084E-003    -3.7787406091270483E-015
   4.3000000000000121E-003    -7.8174576526230700E-015
   5.4000000000000159E-003    -8.7109012291233280E-015
   6.5000000000000058E-003    -3.4190537855479037E-015
   7.6000000000000234E-003     8.5064435692821377E-015
   8.7000000000000133E-003     2.2798523661928145E-014
   9.8000000000000032E-003     3.0460941250918736E-014
   1.0900000000000021E-002     2.1164036370863518E-014
   1.2000000000000011E-002    -1.0285368612578463E-014
   1.3100000000000001E-002    -5.6970609328167721E-014
   1.4200000000000018E-002    -9.6729658245926775E-014
   1.5300000000000008E-002    -9.7258701472254655E-014
   1.6400000000000026E-002    -3.1205310416834026E-014
   1.7500000000000016E-002     1.0240760469444263E-013
   1.8600000000000005E-002     2.6050242150042757E-013
   1.9700000000000023E-002     3.5581111082656769E-013
   2.0800000000000013E-002     2.8496527511821801E-013
   2.1900000000000003E-002    -1.6265480512500131E-014
   2.3000000000000020E-002    -5.0909851421337970E-013
   2.4100000000000010E-002    -1.0130901109337009E-012
   2.5200000000000000E-002    -1.2298700469495771E-012
   2.6300000000000018E-002    -8.4987594219099183E-013
   2.7400000000000008E-002     2.7420031306277237E-013
   2.8500000000000025E-002     1.9502138619287290E-012
   2.9600000000000015E-002     3.5632477871083701E-012
   3.0700000000000005E-002     4.1808548810473578E-012
   3.1800000000000023E-002     2.8850771598143421E-012
   3.2900000000000013E-002    -7.3309674303301264E-013
   3.4000000000000002E-002    -6.0950931801695418E-012
   3.5100000000000020E-002    -1.1422339636635304E-011
   3.6200000000000010E-002    -1.4019366396944566E-011
   3.7300000000000028E-002    -1.1140597992731482E-011
   3.8400000000000017E-002    -1.2862399947216607E-012
   3.9500000000000007E-002     1.4497657414846987E-011
   4.0600000000000025E-002     3.1919751564135623E-011
   4.1700000000000015E-002     4.3917331576937002E-011
   4.2800000000000005E-002     4.2567973451701491E-011
   4.3900000000000022E-002     2.2160839135976218E-011
   4.5000000000000012E-002    -1.7460206891417585E-011
   4.6100000000000002E-002    -6.8601360703191006E-011
   4.7200000000000020E-002    -1.1579941866513010E-010
   4.8300000000000010E-002    -1.3905940288161389E-010
   4.9400000000000027E-002    -1.1998932403223250E-010
   5.0500000000000017E-002    -4.9327569806578708E-011
   5.1600000000000007E-002     6.6642157070528896E-011
   5.2700000000000025E-002     2.0359298968930517E-010
   5.3800000000000014E-002     3.2268993033213178E-010
   5.4900000000000004E-002     3.8061054308258235E-010
   5.6000000000000022E-002     3.4424479933292673E-010
   5.7100000000000012E-002     2.0606411021972804E-010
   5.8200000000000002E-002    -5.1625856367643053E-012
   5.9300000000000019E-002    -2.2340376770735304E-010
   6.0400000000000009E-002    -3.5714664559094444E-010
   6.1500000000000027E-002    -3.1335262162812683E-010
   6.2600000000000017E-002    -2.8931341697346902E-011
   6.3700000000000007E-002     4.9822512782071726E-010
   6.4800000000000024E-002     1.1879351946575412E-009
   6.5900000000000014E-002     1.8741102003616561E-009
   6.7000000000000004E-002     2.3228539092201572E-009
   6.8100000000000022E-002     2.2705670676970158E-009
   6.9200000000000012E-002     1.4743217757740013E-009
   7.0300000000000029E-002    -2.3803356508089735E-010
   7.1400000000000019E-002    -2.9322417827160052E-009
   7.2500000000000009E-002    -6.5584551123265555E-009
   7.3600000000000027E-002    -1.0974749109493587E-008
   7.4700000000000016E-002    -1.6001052927094861E-008
   7.5800000000000006E-002    -2.1492544632906174E-008
   7.6900000000000024E-002    -2.7415786973961076E-008
   7.8000000000000014E-002    -3.3909785202013154E-008
   7.9100000000000004E-002    -4.1316813081948567E-008
   8.0200000000000021E-002    -5.0177277444163337E-008
   8.1300000000000011E-002    -6.1191919087377755E-008
   8.2400000000000029E-002    -7.5165850432767911E-008
   8.3500000000000019E-002    -9.2952085140041163E-008
   8.4600000000000009E-002    -1.1541693822891830E-007
   8.5700000000000026E-002    -1.4344088583584380E-007
   8.6800000000000016E-002    -1.7796376994283492E-007
   8.7900000000000006E-002    -2.2005950484071946E-007
   8.9000000000000024E-002    -2.7102899480269116E-007
   9.0100000000000013E-002    -3.3248664976781583E-007
   9.1200000000000003E-002    -4.0642734688844939E-007
   9.2300000000000021E-002    -4.9525692702445667E-007
   9.3400000000000011E-002    -6.0180042282809154E-007
   9.4500000000000028E-002    -7.2929674388433341E-007
   9.5600000000000018E-002    -8.8139745457738172E-007
   9.6700000000000008E-002    -1.0621914725561510E-006
   9.7800000000000026E-002    -1.2762520782416686E-006
   9.8900000000000016E-002    -1.5287374708350399E-006
  0.10000000000000001         -1.8254808082929230E-006
  0.10110000000000002         -2.1730973003286636E-006
  0.10220000000000001         -2.5790450308704749E-006
  0.10330000000000003         -3.0516825972881634E-006
  0.10440000000000002         -3.6002834349346813E-006
  0.10550000000000001         -4.2349915929662529E-006
  0.10660000000000003         -4.9668151405057870E-006
  0.10770000000000002         -5.8075925153389107E-006
  0.10880000000000001         -6.7699993451242335E-006
  0.10990000000000003         -7.8675293480046093E-006
  0.11100000000000002         -9.1145066107856110E-006
  0.11210000000000001         -1.0525983270781580E-005
  0.11320000000000002         -1.2117749065509997E-005
  0.11430000000000001         -1.3906173990108073E-005
  0.11540000000000003         -1.5907968190731481E-005
  0.11650000000000002         -1.8139919120585546E-005
  0.11760000000000001         -2.0618637790903449E-005
  0.11870000000000003         -2.3360254999715835E-005
  0.11980000000000002         -2.6380070266895927E-005
  0.12090000000000001         -2.9691957024624571E-005
  0.12200000000000003         -3.3307998819509521E-005
  0.12310000000000001         -3.7238220102153718E-005
  0.12420000000000003         -4.1489776776870713E-005
  0.12530000000000002         -4.6066426875768229E-005
  0.12640000000000001         -5.0967722927452996E-005
  0.12750000000000003         -5.6188968301285058E-005
  0.12860000000000002         -6.1719918448943645E-005
  0.12970000000000001         -6.7544373450800776E-005
  0.13080000000000003         -7.3639690526761115E-005
  0.13190000000000002         -7.9976111010182649E-005
  0.13300000000000001         -8.6516010924242437E-005
  0.13410000000000000         -9.3213762738741934E-005
  0.13520000000000004         -1.0001451300922781E-004
  0.13630000000000003         -1.0685447341529652E-004
  0.13740000000000002         -1.1366074613761157E-004
  0.13850000000000001         -1.2035102554364130E-004
  0.13960000000000000         -1.2683392560575157E-004
  0.14070000000000005         -1.3300889986567199E-004
  0.14180000000000004         -1.3876677257940173E-004
  0.14290000000000003         -1.4399172505363822E-004
  0.14400000000000002         -1.4856261259410530E-004
  0.14510000000000001         -1.5235086902976036E-004
  0.14620000000000000         -1.5522439207416028E-004
  0.14730000000000004         -1.5704914403613657E-004
  0.14840000000000003         -1.5769184392411262E-004
  0.14950000000000002         -1.5702181553933769E-004
  0.15060000000000001         -1.5491155500058085E-004
  0.15170000000000000         -1.5123932098504156E-004
  0.15280000000000005         -1.4589347119908780E-004
  0.15390000000000004         -1.3877578021492809E-004
  0.15500000000000003         -1.2980286555830389E-004
  0.15610000000000002         -1.1890951282111928E-004
  0.15720000000000001         -1.0605015268083662E-004
  0.15830000000000000         -9.1202040493953973E-005
  0.15940000000000004         -7.4366536864545196E-005
  0.16050000000000003         -5.5574102589162067E-005
  0.16160000000000002         -3.4886106732301414E-005
  0.16270000000000001         -1.2390704796416685E-005
  0.16380000000000000          1.1791960787377320E-005
  0.16490000000000005          3.7511024856939912E-005
  0.16600000000000004          6.4585663494654000E-005
  0.16710000000000003          9.2802292783744633E-005
  0.16820000000000002          1.2191768473712727E-004
  0.16930000000000001          1.5166364028118551E-004
  0.17040000000000000          1.8174912838730961E-004
  0.17150000000000004          2.1186284720897675E-004
  0.17260000000000003          2.4167494848370552E-004
  0.17370000000000002          2.7084350585937500E-004
  0.17480000000000001          2.9901944799348712E-004
  0.17590000000000000          3.2585131702944636E-004
  0.17700000000000005          3.5099114757031202E-004
  0.17810000000000004          3.7409985088743269E-004
  0.17920000000000003          3.9485155139118433E-004
  0.18030000000000002          4.1293934918940067E-004
  0.18140000000000001          4.2808282887563109E-004
  0.18250000000000000          4.4003332732245326E-004
  0.18360000000000004          4.4857704779133201E-004
  0.18470000000000003          4.5354082249104977E-004
  0.18580000000000002          4.5479365508072078E-004
  0.18690000000000001          4.5225070789456367E-004
  0.18800000000000000          4.4587621232494712E-004
  0.18910000000000005          4.3568463297560811E-004
  0.19020000000000004          4.2174087138846517E-004
  0.19130000000000003          4.0416017873212695E-004
  0.19240000000000002          3.8310588570311666E-004
  0.19350000000000001          3.5878579365089536E-004
  0.19460000000000005          3.3145491033792496E-004
  0.19570000000000004          3.0140564194880426E-004
  0.19680000000000003          2.6896747294813395E-004
  0.19790000000000002          2.3449707077816129E-004
  0.19900000000000001          1.9837803847622126E-004
  0.20010000000000000          1.6101083019748330E-004
  0.20120000000000005          1.2280726514291018E-004
  0.20230000000000004          8.4185398009140044E-005
  0.20340000000000003          4.5562002924270928E-005
  0.20450000000000002          7.3471060204610694E-006
  0.20560000000000000         -3.0063074518693611E-005
  0.20670000000000005         -6.6291744587942958E-005
  0.20780000000000004         -1.0098724305862561E-004
  0.20890000000000003         -1.3382798351813108E-004
