 -0.12000000000000000          0.0000000000000000
 -0.11889999999999999          0.0000000000000000
 -0.11780000000000000          0.0000000000000000
 -0.11670000000000000          0.0000000000000000
 -0.11559999999999999          0.0000000000000000
 -0.11449999999999999          0.0000000000000000
 -0.11340000000000000          0.0000000000000000
 -0.11230000000000000          4.5173342993479524E-021
 -0.11119999999999999         -2.1335484079864448E-021
 -0.11009999999999999         -5.0255089928194970E-020
 -0.10900000000000000          6.3249367913812082E-021
 -0.10790000000000000          3.2296845672008446E-019
 -0.10679999999999999          1.0674436871456362E-019
 -0.10569999999999999         -1.4623056033028808E-018
 -0.10460000000000000         -1.2596275348684535E-018
 -0.10349999999999999          4.7662465359841288E-018
 -0.10239999999999999          7.2483686408429177E-018
 -0.10130000000000000         -1.0592418320655943E-017
 -0.10020000000000000         -2.7792537354120233E-017
  -9.9099999999999994E-002     1.2570460282537674E-017
  -9.7999999999999990E-002     7.9820354925300906E-017
  -9.6899999999999986E-002     1.2145706346714144E-017
  -9.5799999999999996E-002    -1.8955636506551700E-016
  -9.4699999999999993E-002    -1.2843927185664440E-016
  -9.3599999999999989E-002     3.9215208766996471E-016
  -9.2499999999999999E-002     5.3948873075430155E-016
  -9.1399999999999995E-002    -6.0574190088307921E-016
  -9.0299999999999991E-002    -1.6980238677128832E-015
  -8.9200000000000002E-002     1.2996951628519809E-016
  -8.8099999999999984E-002     3.8443708394626797E-015
  -8.6999999999999994E-002     2.7951587509953031E-015
  -8.5899999999999990E-002    -5.4412799373388440E-015
  -8.4799999999999986E-002    -9.5917257087753914E-015
  -8.3699999999999997E-002     2.5227940362562620E-015
  -8.2599999999999993E-002     1.8417184755883075E-014
  -8.1499999999999989E-002     8.2132439616230089E-015
  -8.0399999999999999E-002    -2.5318129889687416E-014
  -7.9299999999999995E-002    -2.8646830458993466E-014
  -7.8199999999999992E-002     2.6885410198585098E-014
  -7.7100000000000002E-002     6.7104518285381748E-014
  -7.5999999999999984E-002    -4.8575649694304352E-015
  -7.4899999999999994E-002    -1.2584716797305051E-013
  -7.3799999999999991E-002    -8.8558900609905095E-014
  -7.2699999999999987E-002     1.4607426054337458E-013
  -7.1599999999999997E-002     2.6607232042619167E-013
  -7.0499999999999993E-002    -1.4646249978881448E-014
  -6.9399999999999989E-002    -4.1285169185244219E-013
  -6.8300000000000000E-002    -2.8991446830023415E-013
  -6.7199999999999996E-002     3.7689537363445880E-013
  -6.6099999999999992E-002     6.6022946658417236E-013
  -6.5000000000000002E-002    -1.0487767474138057E-013
  -6.3899999999999985E-002    -1.0222504266688137E-012
  -6.2799999999999995E-002    -5.2546996701791082E-013
  -6.1699999999999991E-002     1.1612648776609946E-012
  -6.0599999999999994E-002     1.6429102002446516E-012
  -5.9499999999999990E-002    -4.3080266459195882E-013
  -5.8399999999999994E-002    -2.6582696547455820E-012
  -5.7299999999999990E-002    -1.4798693954293229E-012
  -5.6199999999999986E-002     2.3741852667874541E-012
  -5.5099999999999996E-002     3.6570026520910126E-012
  -5.3999999999999992E-002    -3.4670573703654561E-013
  -5.2899999999999989E-002    -4.7691919857761889E-012
  -5.1799999999999985E-002    -2.8353862226854210E-012
  -5.0699999999999995E-002     3.9462842715831670E-012
  -4.9599999999999991E-002     6.1617972009486710E-012
  -4.8499999999999988E-002    -6.3211740529423022E-013
  -4.7399999999999998E-002    -7.9608524633512090E-012
  -4.6299999999999994E-002    -4.8448879456930438E-012
  -4.5199999999999990E-002     5.9953040795757140E-012
  -4.4099999999999986E-002     1.0003368793032319E-011
  -4.2999999999999997E-002     7.0876914363623977E-013
  -4.1899999999999993E-002    -9.9521580212980076E-012
  -4.0799999999999989E-002    -7.5306488475646027E-012
  -3.9699999999999985E-002     4.1719908777659853E-012
  -3.8599999999999995E-002     8.2172411236536291E-012
  -3.7499999999999992E-002    -6.3641220114998842E-013
  -3.6399999999999988E-002    -8.0498325019662254E-012
  -3.5299999999999984E-002    -1.8630470430269774E-012
  -3.4199999999999994E-002     9.1498232601683327E-012
  -3.3099999999999991E-002     8.9024152633010445E-012
  -3.1999999999999987E-002    -8.5854305435784095E-013
  -3.0899999999999997E-002    -4.3722612336205557E-012
  -2.9799999999999993E-002     6.2738459176078787E-013
  -2.8699999999999989E-002    -1.9753669186495237E-012
  -2.7599999999999986E-002    -1.6759892085271844E-011
  -2.6499999999999996E-002    -2.0907841430384266E-011
  -2.5399999999999992E-002     2.9956701182165535E-012
  -2.4299999999999988E-002     3.0756355795524826E-011
  -2.3199999999999985E-002     2.1629042307180768E-011
  -2.2099999999999995E-002    -1.9670104087210483E-011
  -2.0999999999999991E-002    -3.8391369944212883E-011
  -1.9899999999999987E-002    -5.0652572414211505E-012
  -1.8799999999999983E-002     3.2645022102206767E-011
  -1.7699999999999994E-002     9.1785424746748667E-012
  -1.6599999999999990E-002    -5.9790949968885343E-011
  -1.5499999999999986E-002    -8.4293759472497953E-011
  -1.4399999999999996E-002    -1.9538270307206673E-011
  -1.3299999999999992E-002     6.4520049025684756E-011
  -1.2199999999999989E-002     6.8691594079517415E-011
  -1.1099999999999985E-002    -7.4726145410375366E-012
  -9.9999999999999950E-003    -7.1761444009332820E-011
  -8.8999999999999913E-003    -6.8344101211703645E-011
  -7.7999999999999875E-003    -4.2895999252667849E-011
  -6.6999999999999837E-003    -6.0792010314614231E-011
  -5.5999999999999939E-003    -1.0995817451009415E-010
  -4.4999999999999901E-003    -1.3090953321359677E-010
  -3.3999999999999864E-003    -1.1183039216877688E-010
  -2.2999999999999826E-003    -9.1198854024199250E-011
  -1.1999999999999927E-003    -7.9218250015333780E-011
  -9.9999999999988987E-005    -4.8078548087193695E-011
   1.0000000000000148E-003    -2.2217491735254669E-011
   2.1000000000000185E-003    -9.7315468183811760E-011
   3.2000000000000084E-003    -3.0391109073768519E-010
   4.3000000000000121E-003    -5.0150139596638610E-010
   5.4000000000000159E-003    -5.2033677366836173E-010
   6.5000000000000058E-003    -3.8999145579587946E-010
   7.6000000000000234E-003    -3.2528835181011573E-010
   8.7000000000000133E-003    -4.4985382086082382E-010
   9.8000000000000032E-003    -6.2322630389743949E-010
   1.0900000000000021E-002    -6.1011168339675237E-010
   1.2000000000000011E-002    -4.5887757482709901E-010
   1.3100000000000001E-002    -4.5146086868896873E-010
   1.4200000000000018E-002    -7.4351336198930085E-010
   1.5300000000000008E-002    -1.1746018602210029E-009
   1.6400000000000026E-002    -1.4721095453751332E-009
   1.7500000000000016E-002    -1.5521112173288998E-009
   1.8600000000000005E-002    -1.5460056568272762E-009
   1.9700000000000023E-002    -1.5742489534176229E-009
   2.0800000000000013E-002    -1.5926191476722806E-009
   2.1900000000000003E-002    -1.6224815935217407E-009
   2.3000000000000020E-002    -1.7223362736018544E-009
   2.4100000000000010E-002    -1.9121890737494596E-009
   2.5200000000000000E-002    -2.1563606455998752E-009
   2.6300000000000018E-002    -2.3432629170372365E-009
   2.7400000000000008E-002    -2.4784811980538279E-009
   2.8500000000000025E-002    -2.7913922284739101E-009
   2.9600000000000015E-002    -3.2467006860770198E-009
   3.0700000000000005E-002    -3.5515372864836081E-009
   3.1800000000000023E-002    -3.4684013439090222E-009
   3.2900000000000013E-002    -3.0570626030623771E-009
   3.4000000000000002E-002    -2.7439290839481600E-009
   3.5100000000000020E-002    -2.7431295013258250E-009
   3.6200000000000010E-002    -2.9639417586935224E-009
   3.7300000000000028E-002    -2.8851572242416523E-009
   3.8400000000000017E-002    -2.5543951398532272E-009
   3.9500000000000007E-002    -2.6871789238214205E-009
   4.0600000000000025E-002    -2.8632871629241663E-009
   4.1700000000000015E-002    -2.8847937372233901E-009
   4.2800000000000005E-002    -2.4556376931883506E-009
   4.3900000000000022E-002    -1.7224809356619630E-009
   4.5000000000000012E-002    -1.2158394291361674E-009
   4.6100000000000002E-002    -5.5879390004065499E-010
   4.7200000000000020E-002     1.9170358356301875E-010
   4.8300000000000010E-002     1.5173589051897807E-009
   4.9400000000000027E-002     2.3222990197524496E-009
   5.0500000000000017E-002     2.9598459239110753E-009
   5.1600000000000007E-002     3.9630889681063763E-009
   5.2700000000000025E-002     4.8732862190092874E-009
   5.3800000000000014E-002     4.9737787222170482E-009
   5.4900000000000004E-002     4.5492316580464376E-009
   5.6000000000000022E-002     5.8452354068094792E-009
   5.7100000000000012E-002     8.5562010809780986E-009
   5.8200000000000002E-002     1.0858913768174716E-008
   5.9300000000000019E-002     1.0443843123653096E-008
   6.0400000000000009E-002     1.0257062754703838E-008
   6.1500000000000027E-002     1.0594764177085381E-008
   6.2600000000000017E-002     1.2708532004523931E-008
   6.3700000000000007E-002     1.5063791991565267E-008
   6.4800000000000024E-002     1.5737981584607041E-008
   6.5900000000000014E-002     1.5443317735730488E-008
   6.7000000000000004E-002     1.3429457546010326E-008
   6.8100000000000022E-002     1.2054588438559222E-008
   6.9200000000000012E-002     1.2416481176558136E-008
   7.0300000000000029E-002     1.4302451667447258E-008
   7.1400000000000019E-002     1.5954622512026617E-008
   7.2500000000000009E-002     1.5252370033635998E-008
   7.3600000000000027E-002     1.1083162831937443E-008
   7.4700000000000016E-002     7.5934671883715055E-009
   7.5800000000000006E-002     7.5903701102220111E-009
   7.6900000000000024E-002     9.7282315536517672E-009
   7.8000000000000014E-002     1.0612131617904197E-008
   7.9100000000000004E-002     7.0186199074839806E-009
   8.0200000000000021E-002    -2.2686169609542617E-010
   8.1300000000000011E-002    -4.3153751683178143E-009
   8.2400000000000029E-002    -2.9863347350556069E-009
   8.3500000000000019E-002     9.9589510249575852E-011
   8.4600000000000009E-002    -1.0506177039459885E-009
   8.5700000000000026E-002    -7.2181927102121790E-009
   8.6800000000000016E-002    -1.3905072648867645E-008
   8.7900000000000006E-002    -1.6384809953251533E-008
   8.9000000000000024E-002    -1.4248081825485315E-008
   9.0100000000000013E-002    -1.1365243857142104E-008
   9.1200000000000003E-002    -1.1705378000215205E-008
   9.2300000000000021E-002    -1.6565396165901802E-008
   9.3400000000000011E-002    -2.3284835393155845E-008
   9.4500000000000028E-002    -2.5742977527443145E-008
   9.5600000000000018E-002    -2.3722270370285514E-008
   9.6700000000000008E-002    -1.8634967346997655E-008
   9.7800000000000026E-002    -1.4361791755845843E-008
   9.8900000000000016E-002    -1.5538077491328295E-008
  0.10000000000000001         -2.2604075056165129E-008
  0.10110000000000002         -2.8442439514719808E-008
  0.10220000000000001         -2.6272083175626904E-008
  0.10330000000000003         -1.5594654456663193E-008
  0.10440000000000002         -5.7657976171299197E-009
  0.10550000000000001         -6.8682131093567023E-009
  0.10660000000000003         -1.5232570760304043E-008
  0.10770000000000002         -2.1500317970435390E-008
  0.10880000000000001         -1.6322907470112114E-008
  0.10990000000000003         -3.6833522898405135E-009
  0.11100000000000002          6.2157266000895106E-009
  0.11210000000000001          7.8520923096903061E-009
  0.11320000000000002          7.0974709442950257E-010
  0.11430000000000001         -8.1910309646104906E-009
  0.11540000000000003         -8.5163422980372161E-009
  0.11650000000000002          1.7365020532622566E-009
  0.11760000000000001          1.3634787521255021E-008
  0.11870000000000003          2.0146433854506540E-008
  0.11980000000000002          1.3234527251881900E-008
  0.12090000000000001          1.3434028334202708E-009
  0.12200000000000003         -2.4129205300482681E-009
  0.12310000000000001          7.5118284925679291E-009
  0.12420000000000003          2.1503057112681745E-008
  0.12530000000000002          2.7415520520435166E-008
  0.12640000000000001          1.9751112745325372E-008
  0.12750000000000003          7.3172516934505438E-009
  0.12860000000000002          2.1427944488228157E-011
  0.12970000000000001          3.4778617763464581E-009
  0.13080000000000003          1.2976798302588577E-008
  0.13190000000000002          1.9868558354119159E-008
  0.13300000000000001          1.9110764526431012E-008
  0.13410000000000000          1.0543388384576247E-008
  0.13520000000000004         -4.2150581636146711E-011
  0.13630000000000003         -3.8958187786874987E-009
  0.13740000000000002          2.7308286743021881E-009
  0.13850000000000001          1.3788024055827464E-008
  0.13960000000000000          1.7542117092261833E-008
  0.14070000000000005          9.2847249888450278E-009
  0.14180000000000004         -3.0658007243999919E-009
  0.14290000000000003         -7.6517858715874354E-009
  0.14400000000000002         -2.1429231722436271E-009
  0.14510000000000001          5.5396873754887110E-009
  0.14620000000000000          7.1374253174383284E-009
  0.14730000000000004          2.4417805555287941E-009
  0.14840000000000003         -3.3808418287151198E-009
  0.14950000000000002         -7.4690866824766999E-009
  0.15060000000000001         -9.0101810457099418E-009
  0.15170000000000000         -7.1422152636557712E-009
  0.15280000000000005         -5.3698839819205091E-010
  0.15390000000000004          7.2093846448240129E-009
  0.15500000000000003          7.2513328674972399E-009
  0.15610000000000002         -2.0227148844753629E-009
  0.15720000000000001         -1.1893682483332668E-008
  0.15830000000000000         -1.1510056019403692E-008
  0.15940000000000004         -2.5105857393015185E-009
  0.16050000000000003          4.4400976229042044E-009
  0.16160000000000002          1.8233822229873908E-009
  0.16270000000000001         -5.2831254926388738E-009
  0.16380000000000000         -8.1970101817319119E-009
  0.16490000000000005         -5.5975424295695575E-009
  0.16600000000000004         -2.3126491832670126E-009
  0.16710000000000003          4.0315456528716709E-010
  0.16820000000000002          4.1531045269493916E-009
  0.16930000000000001          6.5811813776406325E-009
  0.17040000000000000          1.6356430654340670E-009
  0.17150000000000004         -9.9702512912358543E-009
  0.17260000000000003         -1.6438910677152307E-008
  0.17370000000000002         -7.9051396539853158E-009
  0.17480000000000001          8.7328597686564535E-009
  0.17590000000000000          1.5766310923481797E-008
  0.17700000000000005          5.6793987290859604E-009
  0.17810000000000004         -8.8132656728134862E-009
  0.17920000000000003         -1.1110279807269308E-008
  0.18030000000000002         -1.0885078394196057E-009
  0.18140000000000001          7.0331784840504952E-009
  0.18250000000000000          4.9084158959544766E-009
  0.18360000000000004         -1.9365844483587580E-009
  0.18470000000000003         -4.9658535061780640E-009
  0.18580000000000002         -4.0580609983464910E-009
  0.18690000000000001         -2.8578908128906733E-009
  0.18800000000000000          1.5428025176844606E-011
  0.18910000000000005          6.8302825617649887E-009
  0.19020000000000004          1.1974483626886467E-008
  0.19130000000000003          6.0230225251700631E-009
  0.19240000000000002         -8.6109297470216006E-009
  0.19350000000000001         -1.5576095080405139E-008
  0.19460000000000005         -5.3670907718128547E-009
  0.19570000000000004          1.0399903160873691E-008
  0.19680000000000003          1.2254341541506619E-008
  0.19790000000000002         -1.5228455163551757E-009
  0.19900000000000001         -1.2400414917124181E-008
  0.20010000000000000         -6.8579244505428960E-009
  0.20120000000000005          6.5280034711179269E-009
  0.20230000000000004          1.0225051028101007E-008
  0.20340000000000003          1.8843082649766529E-009
  0.20450000000000002         -5.2483484225263055E-009
  0.20560000000000000         -2.9757192265833510E-009
  0.20670000000000005          2.0290016333746053E-009
  0.20780000000000004          1.4681890148082744E-009
  0.20890000000000003         -1.4900813916085554E-009
