 -0.12000000000000000          0.0000000000000000
 -0.11889999999999999          0.0000000000000000
 -0.11780000000000000          0.0000000000000000
 -0.11670000000000000         -1.3360119688719238E-040
 -0.11559999999999999         -1.6396096381098534E-014
 -0.11449999999999999          2.1678986663014981E-014
 -0.11340000000000000          1.2450504765625786E-013
 -0.11230000000000000         -1.4876010037516429E-013
 -0.11119999999999999         -7.5565850235145837E-013
 -0.11009999999999999          1.9396058381377507E-013
 -0.10900000000000000          3.1764744914258847E-012
 -0.10790000000000000          2.0208457303383387E-012
 -0.10679999999999999         -8.5105160765874821E-012
 -0.10569999999999999         -1.4544769902369303E-011
 -0.10460000000000000          8.3655487051470523E-012
 -0.10349999999999999          4.6377127832508691E-011
 -0.10239999999999999          3.1755847951231431E-011
 -0.10130000000000000         -6.6460267844625776E-011
 -0.10020000000000000         -1.4168193007702001E-010
  -9.9099999999999994E-002    -3.8163711774119591E-011
  -9.7999999999999990E-002     2.0275006673564633E-010
  -9.6899999999999986E-002     2.9167263049245662E-010
  -9.5799999999999996E-002     3.1752812185148471E-011
  -9.4699999999999993E-002    -3.4510533319931369E-010
  -9.3599999999999989E-002    -3.9535871798612732E-010
  -9.2499999999999999E-002    -5.2329706540232834E-011
  -9.1399999999999995E-002     2.5030416628268881E-010
  -9.0299999999999991E-002     1.9362215997187349E-010
  -8.9200000000000002E-002     5.4075209587889361E-011
  -8.8099999999999984E-002     2.4755353322802875E-010
  -8.6999999999999994E-002     5.6479787513552537E-010
  -8.5899999999999990E-002     3.5876832060743880E-010
  -8.4799999999999986E-002    -4.5047296448608165E-010
  -8.3699999999999997E-002    -1.0953513651656976E-009
  -8.2599999999999993E-002    -9.6010410732816354E-010
  -8.1499999999999989E-002    -3.4732020037786526E-010
  -8.0399999999999999E-002     2.2505854124776903E-010
  -7.9299999999999995E-002     9.2577506771718276E-010
  -7.8199999999999992E-002     1.8414137992195379E-009
  -7.7100000000000002E-002     1.5221334193071812E-009
  -7.5999999999999984E-002    -2.3157995521216890E-009
  -7.4899999999999994E-002    -1.0041541820271505E-008
  -7.3799999999999991E-002    -1.9254585481576214E-008
  -7.2699999999999987E-002    -2.7822292025803108E-008
  -7.1599999999999997E-002    -3.6854995499879806E-008
  -7.0499999999999993E-002    -4.8887727643887047E-008
  -6.9399999999999989E-002    -6.3468462485616328E-008
  -6.8300000000000000E-002    -7.7072989768112166E-008
  -6.7199999999999996E-002    -8.8545029086617433E-008
  -6.6099999999999992E-002    -1.0255890003918466E-007
  -6.5000000000000002E-002    -1.2546375671718124E-007
  -6.3899999999999985E-002    -1.5878902104304871E-007
  -6.2799999999999995E-002    -1.9951434637732746E-007
  -6.1699999999999991E-002    -2.4643483698127966E-007
  -6.0599999999999994E-002    -3.0301038123070612E-007
  -5.9499999999999990E-002    -3.7302069699762797E-007
  -5.8399999999999994E-002    -4.5698175199504476E-007
  -5.7299999999999990E-002    -5.5577390867256327E-007
  -5.6199999999999986E-002    -6.7517800061978051E-007
  -5.5099999999999996E-002    -8.2239910170756048E-007
  -5.3999999999999992E-002    -9.9918884188809898E-007
  -5.2899999999999989E-002    -1.2042098660458578E-006
  -5.1799999999999985E-002    -1.4437712252401980E-006
  -5.0699999999999995E-002    -1.7342943010589806E-006
  -4.9599999999999991E-002    -2.0892609882139368E-006
  -4.8499999999999988E-002    -2.5078959424718050E-006
  -4.7399999999999998E-002    -2.9845682547602337E-006
  -4.6299999999999994E-002    -3.5290659070597030E-006
  -4.5199999999999990E-002    -4.1695607251313049E-006
  -4.4099999999999986E-002    -4.9321265578328166E-006
  -4.2999999999999997E-002    -5.8245891523256432E-006
  -4.1899999999999993E-002    -6.8469657890091185E-006
  -4.0799999999999989E-002    -8.0130439528147690E-006
  -3.9699999999999985E-002    -9.3523740360978991E-006
  -3.8599999999999995E-002    -1.0892672435147688E-005
  -3.7499999999999992E-002    -1.2651197721424978E-005
  -3.6399999999999988E-002    -1.4646824638475664E-005
  -3.5299999999999984E-002    -1.6909059922909364E-005
  -3.4199999999999994E-002    -1.9466646335786209E-005
  -3.3099999999999991E-002    -2.2335441826726310E-005
  -3.1999999999999987E-002    -2.5531537175993435E-005
  -3.0899999999999997E-002    -2.9093947887304239E-005
  -2.9799999999999993E-002    -3.3076910767704248E-005
  -2.8699999999999989E-002    -3.7513564166147262E-005
  -2.7599999999999986E-002    -4.2401206883369014E-005
  -2.6499999999999996E-002    -4.7735418775118887E-005
  -2.5399999999999992E-002    -5.3549112635664642E-005
  -2.4299999999999988E-002    -5.9899448388023302E-005
  -2.3199999999999985E-002    -6.6816559410654008E-005
  -2.2099999999999995E-002    -7.4284398579038680E-005
  -2.0999999999999991E-002    -8.2278289482928813E-005
  -1.9899999999999987E-002    -9.0801433543674648E-005
  -1.8799999999999983E-002    -9.9868113466072828E-005
  -1.7699999999999994E-002    -1.0946347174467519E-004
  -1.6599999999999990E-002    -1.1954084766330197E-004
  -1.5499999999999986E-002    -1.3005672371946275E-004
  -1.4399999999999996E-002    -1.4097704843152314E-004
  -1.3299999999999992E-002    -1.5224005619529635E-004
  -1.2199999999999989E-002    -1.6373740800190717E-004
  -1.1099999999999985E-002    -1.7535017104819417E-004
  -9.9999999999999950E-003    -1.8699372594710439E-004
  -8.8999999999999913E-003    -1.9859090389218181E-004
  -7.7999999999999875E-003    -2.1000392735004425E-004
  -6.6999999999999837E-003    -2.2102860384620726E-004
  -5.5999999999999939E-003    -2.3145832528825849E-004
  -4.4999999999999901E-003    -2.4114019470289350E-004
  -3.3999999999999864E-003    -2.4993289844132960E-004
  -2.2999999999999826E-003    -2.5763589655980468E-004
  -1.1999999999999927E-003    -2.6398999034427106E-004
  -9.9999999999988987E-005    -2.6875600451603532E-004
   1.0000000000000148E-003    -2.7175020659342408E-004
   2.1000000000000185E-003    -2.7278350898995996E-004
   3.2000000000000084E-003    -2.7161333127878606E-004
   4.3000000000000121E-003    -2.6799191255122423E-004
   5.4000000000000159E-003    -2.6174462982453406E-004
   6.5000000000000058E-003    -2.5275346706621349E-004
   7.6000000000000234E-003    -2.4087131896521896E-004
   8.7000000000000133E-003    -2.2590381558984518E-004
   9.8000000000000032E-003    -2.0770271657966077E-004
   1.0900000000000021E-002    -1.8624342919792980E-004
   1.2000000000000011E-002    -1.6157109348569065E-004
   1.3100000000000001E-002    -1.3369627413339913E-004
   1.4200000000000018E-002    -1.0261191346216947E-004
   1.5300000000000008E-002    -6.8391585955396295E-005
   1.6400000000000026E-002    -3.1237221264746040E-005
   1.7500000000000016E-002     8.5979499999666587E-006
   1.8600000000000005E-002     5.0891099817818031E-005
   1.9700000000000023E-002     9.5391813374590129E-005
   2.0800000000000013E-002     1.4173182717058808E-004
   2.1900000000000003E-002     1.8944141629617661E-004
   2.3000000000000020E-002     2.3806774697732180E-004
   2.4100000000000010E-002     2.8721615672111511E-004
   2.5200000000000000E-002     3.3643553615547717E-004
   2.6300000000000018E-002     3.8513683830387890E-004
   2.7400000000000008E-002     4.3267125147394836E-004
   2.8500000000000025E-002     4.7848082613199949E-004
   2.9600000000000015E-002     5.2210385911166668E-004
   3.0700000000000005E-002     5.6303566088899970E-004
   3.1800000000000023E-002     6.0066749574616551E-004
   3.2900000000000013E-002     6.3440552912652493E-004
   3.4000000000000002E-002     6.6379754571244121E-004
   3.5100000000000020E-002     6.8849109811708331E-004
   3.6200000000000010E-002     7.0810382021591067E-004
   3.7300000000000028E-002     7.2222278686240315E-004
   3.8400000000000017E-002     7.3055224493145943E-004
   3.9500000000000007E-002     7.3297804920002818E-004
   4.0600000000000025E-002     7.2945060674101114E-004
   4.1700000000000015E-002     7.1986939292401075E-004
   4.2800000000000005E-002     7.0416438393294811E-004
   4.3900000000000022E-002     6.8245962029322982E-004
   4.5000000000000012E-002     6.5506831742823124E-004
   4.6100000000000002E-002     6.2231672927737236E-004
   4.7200000000000020E-002     5.8445864124223590E-004
   4.8300000000000010E-002     5.4180389270186424E-004
   4.9400000000000027E-002     4.9486482748761773E-004
   5.0500000000000017E-002     4.4428257388062775E-004
   5.1600000000000007E-002     3.9063376607373357E-004
   5.2700000000000025E-002     3.3441011328250170E-004
   5.3800000000000014E-002     2.7619046159088612E-004
   5.4900000000000004E-002     2.1671346621587873E-004
   5.6000000000000022E-002     1.5673125744797289E-004
   5.7100000000000012E-002     9.6844218205660582E-005
   5.8200000000000002E-002     3.7551471905317158E-005
   5.9300000000000019E-002    -2.0554361981339753E-005
   6.0400000000000009E-002    -7.6762829849030823E-005
   6.1500000000000027E-002    -1.3044809747952968E-004
   6.2600000000000017E-002    -1.8120378081221133E-004
   6.3700000000000007E-002    -2.2872371482662857E-004
   6.4800000000000024E-002    -2.7260219212621450E-004
   6.5900000000000014E-002    -3.1239056261256337E-004
   6.7000000000000004E-002    -3.4780174610204995E-004
   6.8100000000000022E-002    -3.7876755231991410E-004
   6.9200000000000012E-002    -4.0524316136725247E-004
   7.0300000000000029E-002    -4.2707726242952049E-004
   7.1400000000000019E-002    -4.4415830052457750E-004
   7.2500000000000009E-002    -4.5659995521418750E-004
   7.3600000000000027E-002    -4.6467449283227324E-004
   7.4700000000000016E-002    -4.6857201959937811E-004
   7.5800000000000006E-002    -4.6835429384373128E-004
   7.6900000000000024E-002    -4.6417611883953214E-004
   7.8000000000000014E-002    -4.5642783516086638E-004
   7.9100000000000004E-002    -4.4558139052242041E-004
   8.0200000000000021E-002    -4.3194697354920208E-004
   8.1300000000000011E-002    -4.1570884059183300E-004
   8.2400000000000029E-002    -3.9716751780360937E-004
   8.3500000000000019E-002    -3.7681183312088251E-004
   8.4600000000000009E-002    -3.5510299494490027E-004
   8.5700000000000026E-002    -3.3230124972760677E-004
   8.6800000000000016E-002    -3.0859585967846215E-004
   8.7900000000000006E-002    -2.8432821272872388E-004
   8.9000000000000024E-002    -2.5995224132202566E-004
   9.0100000000000013E-002    -2.3578094260301441E-004
   9.1200000000000003E-002    -2.1191067935433239E-004
   9.2300000000000021E-002    -1.8844169971998781E-004
   9.3400000000000011E-002    -1.6566250997129828E-004
   9.4500000000000028E-002    -1.4390460273716599E-004
   9.5600000000000018E-002    -1.2329232413321733E-004
   9.6700000000000008E-002    -1.0376555292168632E-004
   9.7800000000000026E-002    -8.5338797362055629E-005
   9.8900000000000016E-002    -6.8204753915779293E-005
  0.10000000000000001         -5.2525898354360834E-005
  0.10110000000000002         -3.8242247683228925E-005
  0.10220000000000001         -2.5197756258421578E-005
  0.10330000000000003         -1.3386798855208326E-005
  0.10440000000000002         -2.9394891498668585E-006
  0.10550000000000001          6.1333153098530602E-006
  0.10660000000000003          1.4032385479367804E-005
  0.10770000000000002          2.0949924874003045E-005
  0.10880000000000001          2.6866731786867604E-005
  0.10990000000000003          3.1681443942943588E-005
  0.11100000000000002          3.5473007301334292E-005
  0.11210000000000001          3.8497873902088031E-005
  0.11320000000000002          4.0918985177995637E-005
  0.11430000000000001          4.2682833736762404E-005
  0.11540000000000003          4.3720781832234934E-005
  0.11650000000000002          4.4167401938466355E-005
  0.11760000000000001          4.4255899410927668E-005
  0.11870000000000003          4.4061049266019836E-005
  0.11980000000000002          4.3486059439601377E-005
  0.12090000000000001          4.2509571358095855E-005
  0.12200000000000003          4.1306833736598492E-005
  0.12310000000000001          4.0056322177406400E-005
  0.12420000000000003          3.8732763641746715E-005
  0.12530000000000002          3.7206562410574406E-005
  0.12640000000000001          3.5498171200742945E-005
  0.12750000000000003          3.3795258786994964E-005
  0.12860000000000002          3.2208594348048791E-005
  0.12970000000000001          3.0642222554888576E-005
  0.13080000000000003          2.8975389795959927E-005
  0.13190000000000002          2.7273175874142908E-005
  0.13300000000000001          2.5703307983349077E-005
  0.13410000000000000          2.4291277441079728E-005
  0.13520000000000004          2.2895521397003904E-005
  0.13630000000000003          2.1438103431137279E-005
  0.13740000000000002          2.0035404304508120E-005
  0.13850000000000001          1.8824921426130459E-005
  0.13960000000000000          1.7756643501343206E-005
  0.14070000000000005          1.6668684111209586E-005
  0.14180000000000004          1.5531062672380358E-005
  0.14290000000000003          1.4486870895780157E-005
  0.14400000000000002          1.3631286492454819E-005
  0.14510000000000001          1.2869636520917993E-005
  0.14620000000000000          1.2064137990819290E-005
  0.14730000000000004          1.1238300430704840E-005
  0.14840000000000003          1.0527577614993788E-005
  0.14950000000000002          9.9617054729606025E-006
  0.15060000000000001          9.4188872026279569E-006
  0.15170000000000000          8.8154683908214793E-006
  0.15280000000000005          8.2323404058115557E-006
  0.15390000000000004          7.7822887760703452E-006
  0.15500000000000003          7.4273830250604078E-006
  0.15610000000000002          7.0321229941328056E-006
  0.15720000000000001          6.5680837906256784E-006
  0.15830000000000000          6.1551436374429613E-006
  0.15940000000000004          5.8763330343936104E-006
  0.16050000000000003          5.6506341934436932E-006
  0.16160000000000002          5.3552525969280396E-006
  0.16270000000000001          5.0068852033291478E-006
  0.16380000000000000          4.7276189434342086E-006
  0.16490000000000005          4.5550336835731287E-006
  0.16600000000000004          4.3887130232178606E-006
  0.16710000000000003          4.1473608689557295E-006
  0.16820000000000002          3.8894004319445230E-006
  0.16930000000000001          3.7158195027586771E-006
  0.17040000000000000          3.6121939501754241E-006
  0.17150000000000004          3.4732074709609151E-006
  0.17260000000000003          3.2658088002790464E-006
  0.17370000000000002          3.0769808745390037E-006
  0.17480000000000001          2.9766845273115905E-006
  0.17590000000000000          2.9110133255016990E-006
  0.17700000000000005          2.7871678867086302E-006
  0.17810000000000004          2.6141942726098932E-006
  0.17920000000000003          2.4842443053785246E-006
  0.18030000000000002          2.4292826310556848E-006
  0.18140000000000001          2.3750214950268855E-006
  0.18250000000000000          2.2576964511245023E-006
  0.18360000000000004          2.1194246073719114E-006
  0.18470000000000003          2.0390677946124924E-006
  0.18580000000000002          2.0110917375859572E-006
  0.18690000000000001          1.9578935734898550E-006
  0.18800000000000000          1.8500413716537878E-006
  0.18910000000000005          1.7470929378760047E-006
  0.19020000000000004          1.7020156519720331E-006
  0.19130000000000003          1.6811233081170940E-006
  0.19240000000000002          1.6201366861423594E-006
  0.19350000000000001          1.5237027355397004E-006
  0.19460000000000005          1.4549481193171232E-006
  0.19570000000000004          1.4362075262397411E-006
  0.19680000000000003          1.4163806554279290E-006
  0.19790000000000002          1.3509780956155737E-006
  0.19900000000000001          1.2686487025348470E-006
  0.20010000000000000          1.2245806146893301E-006
  0.20120000000000005          1.2171888101875084E-006
  0.20230000000000004          1.1942269111386850E-006
  0.20340000000000003          1.1329977951390902E-006
  0.20450000000000002          1.0702570989451488E-006
  0.20560000000000000          1.0422777450003196E-006
  0.20670000000000005          1.0321623449272010E-006
  0.20780000000000004          1.0014152849180391E-006
  0.20890000000000003          9.5002820899026119E-007
