 -0.12000000000000000          0.0000000000000000
 -0.11889999999999999          0.0000000000000000
 -0.11780000000000000          0.0000000000000000
 -0.11670000000000000          1.2546758770826116E-011
 -0.11559999999999999          1.8168352239333885E-011
 -0.11449999999999999         -2.8160902429408274E-011
 -0.11340000000000000         -7.4961516161042852E-011
 -0.11230000000000000         -7.1864246324604419E-012
 -0.11119999999999999          9.8632817191468547E-011
 -0.11009999999999999          3.4899850370750940E-011
 -0.10900000000000000         -4.0868662620763274E-011
 -0.10790000000000000          3.0829419572775407E-010
 -0.10679999999999999          7.4258371673963097E-010
 -0.10569999999999999         -4.0189192251904871E-011
 -0.10460000000000000         -2.2186263937129524E-009
 -0.10349999999999999         -3.2006577388443702E-009
 -0.10239999999999999         -2.7628987986361153E-010
 -0.10130000000000000          4.7190171770239431E-009
 -0.10020000000000000          6.1720095700934507E-009
  -9.9099999999999994E-002     1.9703514375635223E-009
  -9.7999999999999990E-002    -2.6980129241849227E-009
  -9.6899999999999986E-002    -2.4106332485729354E-009
  -9.5799999999999996E-002    -3.5084032901089302E-010
  -9.4699999999999993E-002    -4.1651713189594375E-009
  -9.3599999999999989E-002    -1.2471407018210812E-008
  -9.2499999999999999E-002    -1.2972203755623468E-008
  -9.1399999999999995E-002     9.2077540037038830E-010
  -9.0299999999999991E-002     1.7741394131576271E-008
  -8.9200000000000002E-002     2.1626501478522187E-008
  -8.8099999999999984E-002     1.6275830461154328E-008
  -8.6999999999999994E-002     2.3412757954588415E-008
  -8.5899999999999990E-002     5.3338794714363758E-008
  -8.4799999999999986E-002     8.8167332989996794E-008
  -8.3699999999999997E-002     1.0448667353557539E-007
  -8.2599999999999993E-002     1.0566880348505947E-007
  -8.1499999999999989E-002     1.1758082507640211E-007
  -8.0399999999999999E-002     1.5362523697604047E-007
  -7.9299999999999995E-002     2.0025743197038537E-007
  -7.8199999999999992E-002     2.4293836986544193E-007
  -7.7100000000000002E-002     2.9085055075483979E-007
  -7.5999999999999984E-002     3.6206054687681899E-007
  -7.4899999999999994E-002     4.5507695745072851E-007
  -7.3799999999999991E-002     5.5578078672624542E-007
  -7.2699999999999987E-002     6.7041492002317682E-007
  -7.1599999999999997E-002     8.2784515598177677E-007
  -7.0499999999999993E-002     1.0399911616332247E-006
  -6.9399999999999989E-002     1.2819217545256834E-006
  -6.8300000000000000E-002     1.5320101738325320E-006
  -6.7199999999999996E-002     1.8184388181907707E-006
  -6.6099999999999992E-002     2.1972255126456730E-006
  -6.5000000000000002E-002     2.6851043912756722E-006
  -6.3899999999999985E-002     3.2458506211696658E-006
  -6.2799999999999995E-002     3.8575426515308209E-006
  -6.1699999999999991E-002     4.5664914978260640E-006
  -6.0599999999999994E-002     5.4460483625007328E-006
  -5.9499999999999990E-002     6.5167359935003333E-006
  -5.8399999999999994E-002     7.7443974078050815E-006
  -5.7299999999999990E-002     9.1200627139187418E-006
  -5.6199999999999986E-002     1.0704533451644238E-005
  -5.5099999999999996E-002     1.2574151696753688E-005
  -5.3999999999999992E-002     1.4752466086065397E-005
  -5.2899999999999989E-002     1.7229824152309448E-005
  -5.1799999999999985E-002     2.0034745830344036E-005
  -5.0699999999999995E-002     2.3242815586854704E-005
  -4.9599999999999991E-002     2.6911928216577508E-005
  -4.8499999999999988E-002     3.1053070415509865E-005
  -4.7399999999999998E-002     3.5688710340764374E-005
  -4.6299999999999994E-002     4.0903090848587453E-005
  -4.5199999999999990E-002     4.6792090870440006E-005
  -4.4099999999999986E-002     5.3380248573375866E-005
  -4.2999999999999997E-002     6.0640584706561640E-005
  -4.1899999999999993E-002     6.8603141698986292E-005
  -4.0799999999999989E-002     7.7392476669047028E-005
  -3.9699999999999985E-002     8.7124011770356447E-005
  -3.8599999999999995E-002     9.7799267678055912E-005
  -3.7499999999999992E-002     1.0935116733890027E-004
  -3.6399999999999988E-002     1.2177701137261465E-004
  -3.5299999999999984E-002     1.3516792387235910E-004
  -3.4199999999999994E-002     1.4959443069528788E-004
  -3.3099999999999991E-002     1.6501873324159533E-004
  -3.1999999999999987E-002     1.8135042046196759E-004
  -3.0899999999999997E-002     1.9854684069287032E-004
  -2.9799999999999993E-002     2.1659987396560609E-004
  -2.8699999999999989E-002     2.3543938004877418E-004
  -2.7599999999999986E-002     2.5491425185464323E-004
  -2.6499999999999996E-002     2.7488148771226406E-004
  -2.5399999999999992E-002     2.9525140416808426E-004
  -2.4299999999999988E-002     3.1590307480655611E-004
  -2.3199999999999985E-002     3.3658984466455877E-004
  -2.2099999999999995E-002     3.5699232830666006E-004
  -2.0999999999999991E-002     3.7685187999159098E-004
  -1.9899999999999987E-002     3.9598529110662639E-004
  -1.8799999999999983E-002     4.1415300802327693E-004
  -1.7699999999999994E-002     4.3097225716337562E-004
  -1.6599999999999990E-002     4.4600552064366639E-004
  -1.5499999999999986E-002     4.5889616012573242E-004
  -1.4399999999999996E-002     4.6935383579693735E-004
  -1.3299999999999992E-002     4.7703203745186329E-004
  -1.2199999999999989E-002     4.8148553469218314E-004
  -1.1099999999999985E-002     4.8228297964669764E-004
  -9.9999999999999950E-003     4.7909968998283148E-004
  -8.8999999999999913E-003     4.7165233991108835E-004
  -7.7999999999999875E-003     4.5959750423207879E-004
  -6.6999999999999837E-003     4.4255750253796577E-004
  -5.5999999999999939E-003     4.2025223956443369E-004
  -4.4999999999999901E-003     3.9255226147361100E-004
  -3.3999999999999864E-003     3.5936874337494373E-004
  -2.2999999999999826E-003     3.2057031057775021E-004
  -1.1999999999999927E-003     2.7605149080045521E-004
  -9.9999999999988987E-005     2.2586669365409762E-004
   1.0000000000000148E-003     1.7022495740093291E-004
   2.1000000000000185E-003     1.0937535262200981E-004
   3.2000000000000084E-003     4.3552670831559226E-005
   4.3000000000000121E-003    -2.6911007807939313E-005
   5.4000000000000159E-003    -1.0149510490009561E-004
   6.5000000000000058E-003    -1.7956677766051143E-004
   7.6000000000000234E-003    -2.6050026644952595E-004
   8.7000000000000133E-003    -3.4366903128102422E-004
   9.8000000000000032E-003    -4.2832514736801386E-004
   1.0900000000000021E-002    -5.1355536561459303E-004
   1.2000000000000011E-002    -5.9839250752702355E-004
   1.3100000000000001E-002    -6.8193988408893347E-004
   1.4200000000000018E-002    -7.6332723256200552E-004
   1.5300000000000008E-002    -8.4160448750481009E-004
   1.6400000000000026E-002    -9.1574311954900622E-004
   1.7500000000000016E-002    -9.8476151470094919E-004
   1.8600000000000005E-002    -1.0477987816557288E-003
   1.9700000000000023E-002    -1.1040490353479981E-003
   2.0800000000000013E-002    -1.1526903836056590E-003
   2.1900000000000003E-002    -1.1929428437724710E-003
   2.3000000000000020E-002    -1.2241876684129238E-003
   2.4100000000000010E-002    -1.2459785211831331E-003
   2.5200000000000000E-002    -1.2579439207911491E-003
   2.6300000000000018E-002    -1.2597476597875357E-003
   2.7400000000000008E-002    -1.2511697132140398E-003
   2.8500000000000025E-002    -1.2322067050263286E-003
   2.9600000000000015E-002    -1.2030414072796702E-003
   3.0700000000000005E-002    -1.1639421572908759E-003
   3.1800000000000023E-002    -1.1152458610013127E-003
   3.2900000000000013E-002    -1.0574255138635635E-003
   3.4000000000000002E-002    -9.9113117903470993E-004
   3.5100000000000020E-002    -9.1713236179202795E-004
   3.6200000000000010E-002    -8.3623715909197927E-004
   3.7300000000000028E-002    -7.4931816197931767E-004
   3.8400000000000017E-002    -6.5736676333472133E-004
   3.9500000000000007E-002    -5.6147959548979998E-004
   4.0600000000000025E-002    -4.6275314525701106E-004
   4.1700000000000015E-002    -3.6223250208422542E-004
   4.2800000000000005E-002    -2.6096310466527939E-004
   4.3900000000000022E-002    -1.6003465862013400E-004
   4.5000000000000012E-002    -6.0555787058547139E-005
   4.6100000000000002E-002     3.6442033888306469E-005
   4.7200000000000020E-002     1.3003029744140804E-004
   4.8300000000000010E-002     2.1936869597993791E-004
   4.9400000000000027E-002     3.0367090948857367E-004
   5.0500000000000017E-002     3.8222680450417101E-004
   5.1600000000000007E-002     4.5442834380082786E-004
   5.2700000000000025E-002     5.1978271221742034E-004
   5.3800000000000014E-002     5.7789881248027086E-004
   5.4900000000000004E-002     6.2848714878782630E-004
   5.6000000000000022E-002     6.7138695158064365E-004
   5.7100000000000012E-002     7.0655794115737081E-004
   5.8200000000000002E-002     7.3405168950557709E-004
   5.9300000000000019E-002     7.5399363413453102E-004
   6.0400000000000009E-002     7.6659320620819926E-004
   6.1500000000000027E-002     7.7214435441419482E-004
   6.2600000000000017E-002     7.7102932846173644E-004
   6.3700000000000007E-002     7.6369469752535224E-004
   6.4800000000000024E-002     7.5064139673486352E-004
   6.5900000000000014E-002     7.3240784695371985E-004
   6.7000000000000004E-002     7.0954469265416265E-004
   6.8100000000000022E-002     6.8260577972978354E-004
   6.9200000000000012E-002     6.5216561779379845E-004
   7.0300000000000029E-002     6.1882496811449528E-004
   7.1400000000000019E-002     5.8318459196016192E-004
   7.2500000000000009E-002     5.4580235155299306E-004
   7.3600000000000027E-002     5.0719321006909013E-004
   7.4700000000000016E-002     4.6785865561105311E-004
   7.5800000000000006E-002     4.2829196900129318E-004
   7.6900000000000024E-002     3.8893555756658316E-004
   7.8000000000000014E-002     3.5015330649912357E-004
   7.9100000000000004E-002     3.1226634746417403E-004
   8.0200000000000021E-002     2.7559994487091899E-004
   8.1300000000000011E-002     2.4045957252383232E-004
   8.2400000000000029E-002     2.0706153009086847E-004
   8.3500000000000019E-002     1.7552303324919194E-004
   8.4600000000000009E-002     1.4593759260606021E-004
   8.5700000000000026E-002     1.1842868116218597E-004
   8.6800000000000016E-002     9.3103248218540102E-005
   8.7900000000000006E-002     6.9977242674212903E-005
   8.9000000000000024E-002     4.8990918003255501E-005
   9.0100000000000013E-002     3.0097753551672213E-005
   9.1200000000000003E-002     1.3290350580064114E-005
   9.2300000000000021E-002    -1.4794096614423324E-006
   9.3400000000000011E-002    -1.4353005099110305E-005
   9.4500000000000028E-002    -2.5489389372523874E-005
   9.5600000000000018E-002    -3.4970249544130638E-005
   9.6700000000000008E-002    -4.2830735765164718E-005
   9.7800000000000026E-002    -4.9182515795109794E-005
   9.8900000000000016E-002    -5.4237963922787458E-005
  0.10000000000000001         -5.8187157264910638E-005
  0.10110000000000002         -6.1103273765183985E-005
  0.10220000000000001         -6.3014704210218042E-005
  0.10330000000000003         -6.4038249547593296E-005
  0.10440000000000002         -6.4366140577476472E-005
  0.10550000000000001         -6.4133084379136562E-005
  0.10660000000000003         -6.3369705458171666E-005
  0.10770000000000002         -6.2111699662636966E-005
  0.10880000000000001         -6.0490161558846012E-005
  0.10990000000000003         -5.8651654399000108E-005
  0.11100000000000002         -5.6631477491464466E-005
  0.11210000000000001         -5.4385131079470739E-005
  0.11320000000000002         -5.1944956794613972E-005
  0.11430000000000001         -4.9460071750218049E-005
  0.11540000000000003         -4.7047753469087183E-005
  0.11650000000000002         -4.4672149670077488E-005
  0.11760000000000001         -4.2239964386681095E-005
  0.11870000000000003         -3.9775099139660597E-005
  0.11980000000000002         -3.7411882658489048E-005
  0.12090000000000001         -3.5218559787608683E-005
  0.12200000000000003         -3.3120875741587952E-005
  0.12310000000000001         -3.1038474844535813E-005
  0.12420000000000003         -2.9022072340012528E-005
  0.12530000000000002         -2.7177504307474010E-005
  0.12640000000000001         -2.5499273760942742E-005
  0.12750000000000003         -2.3876305931480601E-005
  0.12860000000000002         -2.2266149244387634E-005
  0.12970000000000001         -2.0765439330716617E-005
  0.13080000000000003         -1.9460949260974303E-005
  0.13190000000000002         -1.8287781131220981E-005
  0.13300000000000001         -1.7118069081334397E-005
  0.13410000000000000         -1.5948566215229221E-005
  0.13520000000000004         -1.4899191228323616E-005
  0.13630000000000003         -1.4023202311364003E-005
  0.13740000000000002         -1.3220060282037593E-005
  0.13850000000000001         -1.2384147339616902E-005
  0.13960000000000000         -1.1561583050934132E-005
  0.14070000000000005         -1.0870744517887942E-005
  0.14180000000000004         -1.0310433026461396E-005
  0.14290000000000003         -9.7529909908189438E-006
  0.14400000000000002         -9.1345609689597040E-006
  0.14510000000000001         -8.5507481344393454E-006
  0.14620000000000000         -8.1073449109680951E-006
  0.14730000000000004         -7.7546083048218861E-006
  0.14840000000000003         -7.3584542406024411E-006
  0.14950000000000002         -6.8988642851763871E-006
  0.15060000000000001         -6.4930022745102178E-006
  0.15170000000000000         -6.2103617892717011E-006
  0.15280000000000005         -5.9661329032678623E-006
  0.15390000000000004         -5.6540930017945357E-006
  0.15500000000000003         -5.3092535381438211E-006
  0.15610000000000002         -5.0483272389101330E-006
  0.15720000000000001         -4.8829656407178845E-006
  0.15830000000000000         -4.6976156227174215E-006
  0.15940000000000004         -4.4272364903008565E-006
  0.16050000000000003         -4.1586436054785736E-006
  0.16160000000000002         -3.9971973819774576E-006
  0.16270000000000001         -3.9038609429553617E-006
  0.16380000000000000         -3.7529882774833823E-006
  0.16490000000000005         -3.5221096368331928E-006
  0.16600000000000004         -3.3231613087991718E-006
  0.16710000000000003         -3.2293839922203915E-006
  0.16820000000000002         -3.1649617540097097E-006
  0.16930000000000001         -3.0237022201617947E-006
  0.17040000000000000         -2.8309314075158909E-006
  0.17150000000000004         -2.7002549813914811E-006
  0.17260000000000003         -2.6562204311630921E-006
  0.17370000000000002         -2.5972569801524514E-006
  0.17480000000000001         -2.4534992917324416E-006
  0.17590000000000000         -2.2941890165384393E-006
  0.17700000000000005         -2.2202320906217210E-006
  0.17810000000000004         -2.2098054159869207E-006
  0.17920000000000003         -2.1529374407691648E-006
  0.18030000000000002         -2.0183676952001406E-006
  0.18140000000000001         -1.8965233721246477E-006
  0.18250000000000000         -1.8582243228593143E-006
  0.18360000000000004         -1.8494174582883716E-006
  0.18470000000000003         -1.7798463431972777E-006
  0.18580000000000002         -1.6624122736175195E-006
  0.18690000000000001         -1.5881453236943344E-006
  0.18800000000000000         -1.5816802942936192E-006
  0.18910000000000005         -1.5639534467482008E-006
  0.19020000000000004         -1.4773157772651757E-006
  0.19130000000000003         -1.3758958630205598E-006
  0.19240000000000002         -1.3413275610218989E-006
  0.19350000000000001         -1.3560635352405370E-006
  0.19460000000000005         -1.3297585610416718E-006
  0.19570000000000004         -1.2368973330012523E-006
  0.19680000000000003         -1.1544867675183923E-006
  0.19790000000000002         -1.1447657470853301E-006
  0.19900000000000001         -1.1632894256763393E-006
  0.20010000000000000         -1.1287143024674151E-006
  0.20120000000000005         -1.0437593118695077E-006
  0.20230000000000004         -9.8550412985787261E-007
  0.20340000000000003         -9.8711780083249323E-007
  0.20450000000000002         -9.9374028650345281E-007
  0.20560000000000000         -9.5181377446351689E-007
  0.20670000000000005         -8.8850890733738197E-007
  0.20780000000000004         -8.6283432665368309E-007
  0.20890000000000003         -8.7228670508920914E-007
