 -0.12000000000000000          0.0000000000000000
 -0.11889999999999999          0.0000000000000000
 -0.11780000000000000          0.0000000000000000
 -0.11670000000000000          0.0000000000000000
 -0.11559999999999999          0.0000000000000000
 -0.11449999999999999          0.0000000000000000
 -0.11340000000000000          0.0000000000000000
 -0.11230000000000000          4.5173359149350863E-021
 -0.11119999999999999          2.6953082492800867E-021
 -0.11009999999999999         -3.9686161236339454E-020
 -0.10900000000000000         -4.3154387373106517E-020
 -0.10790000000000000          1.2673964410309456E-019
 -0.10679999999999999          1.1275598782682371E-019
 -0.10569999999999999         -2.9436524907164261E-019
 -0.10460000000000000          7.7179818220561167E-019
 -0.10349999999999999          3.4095625911223783E-018
 -0.10239999999999999         -2.6647588278219753E-018
 -0.10130000000000000         -2.4008315091865690E-017
 -0.10020000000000000         -2.3006912044335518E-017
  -9.9099999999999994E-002     5.9794471114069716E-017
  -9.7999999999999990E-002     1.6465779187630744E-016
  -9.6899999999999986E-002     6.5371852199494262E-017
  -9.5799999999999996E-002    -3.2096624764263123E-016
  -9.4699999999999993E-002    -5.9947486292502225E-016
  -9.3599999999999989E-002    -2.6554649656033806E-016
  -9.2499999999999999E-002     5.2617861383982508E-016
  -9.1399999999999995E-002     1.2265285892170525E-015
  -9.0299999999999991E-002     1.9775506695374331E-015
  -8.9200000000000002E-002     2.6896696912607262E-015
  -8.8099999999999984E-002     1.9473920085108845E-016
  -8.6999999999999994E-002    -9.5672532328633202E-015
  -8.5899999999999990E-002    -2.1019364837538378E-014
  -8.4799999999999986E-002    -1.4576932190609945E-014
  -8.3699999999999997E-002     2.3028608303588514E-014
  -8.2599999999999993E-002     6.8656269092224470E-014
  -8.1499999999999989E-002     7.0093961830521717E-014
  -8.0399999999999999E-002     1.8027461508719582E-015
  -7.9299999999999995E-002    -9.8447549483175745E-014
  -7.8199999999999992E-002    -1.7167493013107993E-013
  -7.7100000000000002E-002    -1.9459237552473668E-013
  -7.5999999999999984E-002    -1.4046697019518689E-013
  -7.4899999999999994E-002     9.1882827301520420E-014
  -7.3799999999999991E-002     5.6259592253957158E-013
  -7.2699999999999987E-002     1.0080232005008072E-012
  -7.1599999999999997E-002     8.3523905023211165E-013
  -7.0499999999999993E-002    -2.9889740855992830E-013
  -6.9399999999999989E-002    -1.8545859292729006E-012
  -6.8300000000000000E-002    -2.6645751577403232E-012
  -6.7199999999999996E-002    -2.0365258958376931E-012
  -6.6099999999999992E-002    -3.4666467287926273E-013
  -6.5000000000000002E-002     1.7393230952733596E-012
  -6.3899999999999985E-002     4.1749255962064691E-012
  -6.2799999999999995E-002     6.7709874165822193E-012
  -6.1699999999999991E-002     7.5979587205177168E-012
  -6.0599999999999994E-002     3.6871334978261228E-012
  -5.9499999999999990E-002    -5.3345856378117507E-012
  -5.8399999999999994E-002    -1.5047052145944484E-011
  -5.7299999999999990E-002    -1.9570275955338445E-011
  -5.6199999999999986E-002    -1.7235568874895968E-011
  -5.5099999999999996E-002    -1.0806321983081180E-011
  -5.3999999999999992E-002    -1.1947993592761885E-012
  -5.2899999999999989E-002     1.5830857458265513E-011
  -5.1799999999999985E-002     4.2452204945808703E-011
  -5.0699999999999995E-002     6.8811435716131797E-011
  -4.9599999999999991E-002     7.5453990278084859E-011
  -4.8499999999999988E-002     4.9081107234005827E-011
  -4.7399999999999998E-002    -6.5035372920352330E-012
  -4.6299999999999994E-002    -7.7459073877239604E-011
  -4.5199999999999990E-002    -1.5275576636941679E-010
  -4.4099999999999986E-002    -2.2125683230012072E-010
  -4.2999999999999997E-002    -2.5614393939221713E-010
  -4.1899999999999993E-002    -2.1505962288781433E-010
  -4.0799999999999989E-002    -6.9064552687958525E-011
  -3.9699999999999985E-002     1.6694963467234203E-010
  -3.8599999999999995E-002     4.3755257750355270E-010
  -3.7499999999999992E-002     6.7744670984026811E-010
  -3.6399999999999988E-002     8.2886392194225778E-010
  -3.5299999999999984E-002     8.2946910451298095E-010
  -3.4199999999999994E-002     6.0446736505070930E-010
  -3.3099999999999991E-002     9.7094311757306428E-011
  -3.1999999999999987E-002    -6.8151995158416412E-010
  -3.0899999999999997E-002    -1.6310323092127987E-009
  -2.9799999999999993E-002    -2.5782607160351745E-009
  -2.8699999999999989E-002    -3.2951128492442194E-009
  -2.7599999999999986E-002    -3.5026823663741879E-009
  -2.6499999999999996E-002    -2.8971767207508492E-009
  -2.5399999999999992E-002    -1.2209846467214902E-009
  -2.4299999999999988E-002     1.6695297366808859E-009
  -2.3199999999999985E-002     5.8054956397768365E-009
  -2.2099999999999995E-002     1.1159300150609397E-008
  -2.0999999999999991E-002     1.7666984319930634E-008
  -1.9899999999999987E-002     2.5200607822739585E-008
  -1.8799999999999983E-002     3.3585795478074942E-008
  -1.7699999999999994E-002     4.2738850680734686E-008
  -1.6599999999999990E-002     5.2840029240996955E-008
  -1.5499999999999986E-002     6.4385261566712870E-008
  -1.4399999999999996E-002     7.8097265543419780E-008
  -1.3299999999999992E-002     9.4849148979392339E-008
  -1.2199999999999989E-002     1.1570791258463942E-007
  -1.1099999999999985E-002     1.4199838460626779E-007
  -9.9999999999999950E-003     1.7523119311135815E-007
  -8.8999999999999913E-003     2.1693182361559593E-007
  -7.7999999999999875E-003     2.6858714363697800E-007
  -6.6999999999999837E-003     3.3180509717567475E-007
  -5.5999999999999939E-003     4.0853205973689910E-007
  -4.4999999999999901E-003     5.0113510496885283E-007
  -3.3999999999999864E-003     6.1238216630954412E-007
  -2.2999999999999826E-003     7.4549939199641813E-007
  -1.1999999999999927E-003     9.0435401034483220E-007
  -9.9999999999988987E-005     1.0935958698610193E-006
   1.0000000000000148E-003     1.3186772775952704E-006
   2.1000000000000185E-003     1.5858481674513314E-006
   3.2000000000000084E-003     1.9022546666747076E-006
   4.3000000000000121E-003     2.2760314095648937E-006
   5.4000000000000159E-003     2.7162564038007986E-006
   6.5000000000000058E-003     3.2328562156180851E-006
   7.6000000000000234E-003     3.8367261367966421E-006
   8.7000000000000133E-003     4.5400679482554551E-006
   9.8000000000000032E-003     5.3566236601909623E-006
   1.0900000000000021E-002     6.3015054365678225E-006
   1.2000000000000011E-002     7.3909545790229458E-006
   1.3100000000000001E-002     8.6424224718939513E-006
   1.4200000000000018E-002     1.0074967576656491E-005
   1.5300000000000008E-002     1.1709555110428482E-005
   1.6400000000000026E-002     1.3568738722824492E-005
   1.7500000000000016E-002     1.5676221664762124E-005
   1.8600000000000005E-002     1.8056523913401179E-005
   1.9700000000000023E-002     2.0735044017783366E-005
   2.0800000000000013E-002     2.3737777155474760E-005
   2.1900000000000003E-002     2.7090914954897016E-005
   2.3000000000000020E-002     3.0820170650258660E-005
   2.4100000000000010E-002     3.4950637200381607E-005
   2.5200000000000000E-002     3.9506474422523752E-005
   2.6300000000000018E-002     4.4510310544865206E-005
   2.7400000000000008E-002     4.9982525524683297E-005
   2.8500000000000025E-002     5.5940538004506379E-005
   2.9600000000000015E-002     6.2398110458161682E-005
   3.0700000000000005E-002     6.9364337832666934E-005
   3.1800000000000023E-002     7.6842741691507399E-005
   3.2900000000000013E-002     8.4829582192469388E-005
   3.4000000000000002E-002     9.3312803073786199E-005
   3.5100000000000020E-002     1.0227136954199523E-004
   3.6200000000000010E-002     1.1167447519255802E-004
   3.7300000000000028E-002     1.2148078531026840E-004
   3.8400000000000017E-002     1.3163693074602634E-004
   3.9500000000000007E-002     1.4207705680746585E-004
   4.0600000000000025E-002     1.5272168093360960E-004
   4.1700000000000015E-002     1.6347876226063818E-004
   4.2800000000000005E-002     1.7424234829377383E-004
   4.3900000000000022E-002     1.8489143985789269E-004
   4.5000000000000012E-002     1.9529010751284659E-004
   4.6100000000000002E-002     2.0528840832412243E-004
   4.7200000000000020E-002     2.1472384105436504E-004
   4.8300000000000010E-002     2.2342069132719189E-004
   4.9400000000000027E-002     2.3119241814129055E-004
   5.0500000000000017E-002     2.3784440418239683E-004
   5.1600000000000007E-002     2.4317427596542984E-004
   5.2700000000000025E-002     2.4697612388990819E-004
   5.3800000000000014E-002     2.4904194287955761E-004
   5.4900000000000004E-002     2.4916516849771142E-004
   5.6000000000000022E-002     2.4714518804103136E-004
   5.7100000000000012E-002     2.4278934870380908E-004
   5.8200000000000002E-002     2.3592094657942653E-004
   5.9300000000000019E-002     2.2637762594968081E-004
   6.0400000000000009E-002     2.1401960111688823E-004
   6.1500000000000027E-002     1.9873229030054063E-004
   6.2600000000000017E-002     1.8043136515188962E-004
   6.3700000000000007E-002     1.5906500630080700E-004
   6.4800000000000024E-002     1.3461984053719789E-004
   6.5900000000000014E-002     1.0712603398133069E-004
   6.7000000000000004E-002     7.6657299359794706E-005
   6.8100000000000022E-002     4.3328433093847707E-005
   6.9200000000000012E-002     7.2998236646526493E-006
   7.0300000000000029E-002    -3.1215146009344608E-005
   7.1400000000000019E-002    -7.1953218139242381E-005
   7.2500000000000009E-002    -1.1460530367912725E-004
   7.3600000000000027E-002    -1.5881750732660294E-004
   7.4700000000000016E-002    -2.0419915381353348E-004
   7.5800000000000006E-002    -2.5031849509105086E-004
   7.6900000000000024E-002    -2.9671011725440621E-004
   7.8000000000000014E-002    -3.4287926973775029E-004
   7.9100000000000004E-002    -3.8830746780149639E-004
   8.0200000000000021E-002    -4.3246327550150454E-004
   8.1300000000000011E-002    -4.7480833018198609E-004
   8.2400000000000029E-002    -5.1481270929798484E-004
   8.3500000000000019E-002    -5.5195501772686839E-004
   8.4600000000000009E-002    -5.8572739362716675E-004
   8.5700000000000026E-002    -6.1564461793750525E-004
   8.6800000000000016E-002    -6.4125680364668369E-004
   8.7900000000000006E-002    -6.6216709092259407E-004
   8.9000000000000024E-002    -6.7803642014041543E-004
   9.0100000000000013E-002    -6.8857951555401087E-004
   9.1200000000000003E-002    -6.9356564199551940E-004
   9.2300000000000021E-002    -6.9283053744584322E-004
   9.3400000000000011E-002    -6.8628811277449131E-004
   9.4500000000000028E-002    -6.7393225617706776E-004
   9.5600000000000018E-002    -6.5583392279222608E-004
   9.6700000000000008E-002    -6.3213938847184181E-004
   9.7800000000000026E-002    -6.0306483646854758E-004
   9.8900000000000016E-002    -5.6889618281275034E-004
  0.10000000000000001         -5.2998686442151666E-004
  0.10110000000000002         -4.8675513244234025E-004
  0.10220000000000001         -4.3967942474409938E-004
  0.10330000000000003         -3.8928925641812384E-004
  0.10440000000000002         -3.3615267602726817E-004
  0.10550000000000001         -2.8085595113225281E-004
  0.10660000000000003         -2.2400598390959203E-004
  0.10770000000000002         -1.6622530529275537E-004
  0.10880000000000001         -1.0815107816597447E-004
  0.10990000000000003         -5.0415605073794723E-005
  0.11100000000000002          6.3786224018258508E-006
  0.11210000000000001          6.1664162785746157E-005
  0.11320000000000002          1.1490513134049252E-004
  0.11430000000000001          1.6559446521569043E-004
  0.11540000000000003          2.1327179274521768E-004
  0.11650000000000002          2.5752841611392796E-004
  0.11760000000000001          2.9802203061990440E-004
  0.11870000000000003          3.3447708119638264E-004
  0.11980000000000002          3.6668017855845392E-004
  0.12090000000000001          3.9447288145311177E-004
  0.12200000000000003          4.1776226134970784E-004
  0.12310000000000001          4.3650844600051641E-004
  0.12420000000000003          4.5073448563925922E-004
  0.12530000000000002          4.6052967081777751E-004
  0.12640000000000001          4.6603922965005040E-004
  0.12750000000000003          4.6745166764594615E-004
  0.12860000000000002          4.6498497249558568E-004
  0.12970000000000001          4.5888783643022180E-004
  0.13080000000000003          4.4944710680283606E-004
  0.13190000000000002          4.3698647641576827E-004
  0.13300000000000001          4.2184893391095102E-004
  0.13410000000000000          4.0437805000692606E-004
  0.13520000000000004          3.8491343730129302E-004
  0.13630000000000003          3.6379415541887283E-004
  0.13740000000000002          3.4136450267396867E-004
  0.13850000000000001          3.1796318944543600E-004
  0.13960000000000000          2.9391166754066944E-004
  0.14070000000000005          2.6951025938615203E-004
  0.14180000000000004          2.4503949680365622E-004
  0.14290000000000003          2.2075827291700989E-004
  0.14400000000000002          1.9689729379024357E-004
  0.14510000000000001          1.7365645908284932E-004
  0.14620000000000000          1.5121333126444370E-004
  0.14730000000000004          1.2972805416211486E-004
  0.14840000000000003          1.0933465091511607E-004
  0.14950000000000002          9.0130371972918510E-005
  0.15060000000000001          7.2180817369371653E-005
  0.15170000000000000          5.5533717386424541E-005
  0.15280000000000005          4.0227758290711790E-005
  0.15390000000000004          2.6280204110662453E-005
  0.15500000000000003          1.3679421499546152E-005
  0.15610000000000002          2.3941167910379590E-006
  0.15720000000000001         -7.6107044151285663E-006
  0.15830000000000000         -1.6375084669562057E-005
  0.15940000000000004         -2.3958071324159391E-005
  0.16050000000000003         -3.0436480301432312E-005
  0.16160000000000002         -3.5886590922018513E-005
  0.16270000000000001         -4.0373874071519822E-005
  0.16380000000000000         -4.3962350900983438E-005
  0.16490000000000005         -4.6734672650927678E-005
  0.16600000000000004         -4.8786645493237302E-005
  0.16710000000000003         -5.0203572754980996E-005
  0.16820000000000002         -5.1049319154117256E-005
  0.16930000000000001         -5.1383354730205610E-005
  0.17040000000000000         -5.1277555030537769E-005
  0.17150000000000004         -5.0809205276891589E-005
  0.17260000000000003         -5.0039481720887125E-005
  0.17370000000000002         -4.9011869123205543E-005
  0.17480000000000001         -4.7772144171176478E-005
  0.17590000000000000         -4.6375800593523309E-005
  0.17700000000000005         -4.4872344005852938E-005
  0.17810000000000004         -4.3288611777825281E-005
  0.17920000000000003         -4.1640989365987480E-005
  0.18030000000000002         -3.9958962588571012E-005
  0.18140000000000001         -3.8284269976429641E-005
  0.18250000000000000         -3.6643410567194223E-005
  0.18360000000000004         -3.5037188354181126E-005
  0.18470000000000003         -3.3461881685070693E-005
  0.18580000000000002         -3.1933701393427327E-005
  0.18690000000000001         -3.0478189728455618E-005
  0.18800000000000000         -2.9101569452905096E-005
  0.18910000000000005         -2.7788417355623096E-005
  0.19020000000000004         -2.6530211471254006E-005
  0.19130000000000003         -2.5341398213640787E-005
  0.19240000000000002         -2.4236798708443530E-005
  0.19350000000000001         -2.3205437173601240E-005
  0.19460000000000005         -2.2221705876290798E-005
  0.19570000000000004         -2.1278232452459633E-005
  0.19680000000000003         -2.0391595171531662E-005
  0.19790000000000002         -1.9570868971641175E-005
  0.19900000000000001         -1.8796223230310716E-005
  0.20010000000000000         -1.8040220311377198E-005
  0.20120000000000005         -1.7300113540841267E-005
  0.20230000000000004         -1.6592341125942767E-005
  0.20340000000000003         -1.5918983990559354E-005
  0.20450000000000002         -1.5257224731612951E-005
  0.20560000000000000         -1.4588592421205249E-005
  0.20670000000000005         -1.3921023310103919E-005
  0.20780000000000004         -1.3269554074213374E-005
  0.20890000000000003         -1.2625495401152875E-005
