 -0.12000000000000000          0.0000000000000000
 -0.11889999999999999          0.0000000000000000
 -0.11780000000000000          0.0000000000000000
 -0.11670000000000000          1.2546758770826171E-011
 -0.11559999999999999          1.3697683612368199E-011
 -0.11449999999999999         -3.8519888667654224E-011
 -0.11340000000000000         -6.0436974869127237E-011
 -0.11230000000000000          8.1728186718255154E-011
 -0.11119999999999999          2.1664804672472180E-010
 -0.11009999999999999         -3.4040430196835306E-011
 -0.10900000000000000         -4.8208020908546783E-010
 -0.10790000000000000         -2.7206761843423537E-010
 -0.10679999999999999          7.1667310974632632E-010
 -0.10569999999999999          1.0246076209696767E-009
 -0.10460000000000000         -4.2161252267192610E-010
 -0.10349999999999999         -1.8818471225756726E-009
 -0.10239999999999999         -6.0493443587716921E-010
 -0.10130000000000000          2.4258630659801536E-009
 -0.10020000000000000          2.5024666783224513E-009
  -9.9099999999999994E-002    -1.8537332779899920E-009
  -9.7999999999999990E-002    -4.8300980992621821E-009
  -9.6899999999999986E-002    -6.5602173693336919E-010
  -9.5799999999999996E-002     6.4044018976972108E-009
  -9.4699999999999993E-002     5.8166014227367859E-009
  -9.3599999999999989E-002    -3.7803569163941194E-009
  -9.2499999999999999E-002    -9.8755341682022217E-009
  -9.1399999999999995E-002    -2.5646789136857309E-009
  -9.0299999999999991E-002     9.5435046532088944E-009
  -8.9200000000000002E-002     9.3253760269363292E-009
  -8.8099999999999984E-002    -4.2170995584456167E-009
  -8.6999999999999994E-002    -1.2694473028318515E-008
  -8.5899999999999990E-002    -3.9121901274086039E-009
  -8.4799999999999986E-002     9.9854000623623324E-009
  -8.3699999999999997E-002     9.7388186404146737E-009
  -8.2599999999999993E-002    -2.9503444132216803E-009
  -8.1499999999999989E-002    -8.7991178787660415E-009
  -8.0399999999999999E-002    -8.1165529852702006E-010
  -7.9299999999999995E-002     5.8461222529617011E-009
  -7.8199999999999992E-002    -3.1177566084378480E-010
  -7.7100000000000002E-002    -7.3375550080355076E-009
  -7.5999999999999984E-002     2.8657952749324465E-012
  -7.4899999999999994E-002     1.1607120598000951E-008
  -7.3799999999999991E-002     4.7744808107101250E-009
  -7.2699999999999987E-002    -1.6707787153790913E-008
  -7.1599999999999997E-002    -2.0920413845714869E-008
  -7.0499999999999993E-002     5.0184132405212828E-009
  -6.9399999999999989E-002     2.8316039291099462E-008
  -6.8300000000000000E-002     1.2550985140081673E-008
  -6.7199999999999996E-002    -2.6888075765895194E-008
  -6.6099999999999992E-002    -3.8677207214731103E-008
  -6.5000000000000002E-002    -6.8535910280315595E-009
  -6.3899999999999985E-002     2.4599636105906295E-008
  -6.2799999999999995E-002     1.2651377723218685E-008
  -6.1699999999999991E-002    -2.5247464563446515E-008
  -6.0599999999999994E-002    -3.9288398312461569E-008
  -5.9499999999999990E-002    -1.9403875839426058E-008
  -5.8399999999999994E-002    -3.7958627352405880E-009
  -5.7299999999999990E-002    -1.5916073792249336E-008
  -5.6199999999999986E-002    -3.1356716334578771E-008
  -5.5099999999999996E-002    -2.4935145503938425E-008
  -5.3999999999999992E-002    -1.7689275821899430E-008
  -5.2899999999999989E-002    -4.2296882440940623E-008
  -5.1799999999999985E-002    -8.0345486708199177E-008
  -5.0699999999999995E-002    -7.9822015663908116E-008
  -4.9599999999999991E-002    -3.7832755594974918E-008
  -4.8499999999999988E-002    -1.9405339557447083E-008
  -4.7399999999999998E-002    -6.9055531071150462E-008
  -4.6299999999999994E-002    -1.3941517806867864E-007
  -4.5199999999999990E-002    -1.5005075226778907E-007
  -4.4099999999999986E-002    -1.0027529384612147E-007
  -4.2999999999999997E-002    -7.1728443629091010E-008
  -4.1899999999999993E-002    -1.1486556417135569E-007
  -4.0799999999999989E-002    -1.8234244691934739E-007
  -3.9699999999999985E-002    -2.0367075137523398E-007
  -3.8599999999999995E-002    -1.8472435669986018E-007
  -3.7499999999999992E-002    -1.8551264702176048E-007
  -3.6399999999999988E-002    -2.2221658468872430E-007
  -3.5299999999999984E-002    -2.4790261932131603E-007
  -3.4199999999999994E-002    -2.3904601675886191E-007
  -3.3099999999999991E-002    -2.4101203166528246E-007
  -3.1999999999999987E-002    -2.9320551675472012E-007
  -3.0899999999999997E-002    -3.5241089335602290E-007
  -2.9799999999999993E-002    -3.4708094176481970E-007
  -2.8699999999999989E-002    -2.9047112093380943E-007
  -2.7599999999999986E-002    -2.7529668500377737E-007
  -2.6499999999999996E-002    -3.4246212976525192E-007
  -2.5399999999999992E-002    -4.1518700299986059E-007
  -2.4299999999999988E-002    -4.0510445842283230E-007
  -2.3199999999999985E-002    -3.3586411518607788E-007
  -2.2099999999999995E-002    -3.0344040169418616E-007
  -2.0999999999999991E-002    -3.3756367656657500E-007
  -1.9899999999999987E-002    -3.6586914120539838E-007
  -1.8799999999999983E-002    -3.3225327911144996E-007
  -1.7699999999999994E-002    -2.7549148740011696E-007
  -1.6599999999999990E-002    -2.5858045660218086E-007
  -1.5499999999999986E-002    -2.6247346340798497E-007
  -1.4399999999999996E-002    -2.1626449608876292E-007
  -1.3299999999999992E-002    -1.2029801155195660E-007
  -1.2199999999999989E-002    -5.3006463218439994E-008
  -1.1099999999999985E-002    -5.2660489302257636E-008
  -9.9999999999999950E-003    -4.7641030675739651E-008
  -8.8999999999999913E-003     4.2543934597720882E-008
  -7.7999999999999875E-003     1.8382901600969292E-007
  -6.6999999999999837E-003     2.7469883434629698E-007
  -5.5999999999999939E-003     2.9077932595123658E-007
  -4.4999999999999901E-003     3.1666422728470414E-007
  -3.3999999999999864E-003     4.1788311477849962E-007
  -2.2999999999999826E-003     5.4846697139527244E-007
  -1.1999999999999927E-003     6.2459815808339125E-007
  -9.9999999999988987E-005     6.5479400745983124E-007
   1.0000000000000148E-003     7.1302201831721916E-007
   2.1000000000000185E-003     8.1651904793039358E-007
   3.2000000000000084E-003     9.0034512822968854E-007
   4.3000000000000121E-003     9.1829997472811807E-007
   5.4000000000000159E-003     9.2372846438586434E-007
   6.5000000000000058E-003     9.8285431704414665E-007
   7.6000000000000234E-003     1.0659842928360641E-006
   8.7000000000000133E-003     1.0900790812227372E-006
   9.8000000000000032E-003     1.0414074722573120E-006
   1.0900000000000021E-002     9.9793135177576436E-007
   1.2000000000000011E-002     1.0128705980602017E-006
   1.3100000000000001E-002     1.0356297934773215E-006
   1.4200000000000018E-002     9.9065607628246962E-007
   1.5300000000000008E-002     8.9023370719539912E-007
   1.6400000000000026E-002     8.1183975453262205E-007
   1.7500000000000016E-002     7.7675059628690208E-007
   1.8600000000000005E-002     7.2288412411521935E-007
   1.9700000000000023E-002     6.0668344303787267E-007
   2.0800000000000013E-002     4.7160565941275376E-007
   2.1900000000000003E-002     3.7870967162167941E-007
   2.3000000000000020E-002     3.1180744031121263E-007
   2.4100000000000010E-002     2.0694015745378913E-007
   2.5200000000000000E-002     5.5770456696546992E-008
   2.6300000000000018E-002    -7.9915722040613069E-008
   2.7400000000000008E-002    -1.6113816059329345E-007
   2.8500000000000025E-002    -2.2959437728854919E-007
   2.9600000000000015E-002    -3.4491526435043010E-007
   3.0700000000000005E-002    -4.8207454028734532E-007
   3.1800000000000023E-002    -5.7727157809556531E-007
   3.2900000000000013E-002    -6.1932644257525611E-007
   3.4000000000000002E-002    -6.6133662812771755E-007
   3.5100000000000020E-002    -7.3845939141442799E-007
   3.6200000000000010E-002    -8.1813334418302676E-007
   3.7300000000000028E-002    -8.4920213794289238E-007
   3.8400000000000017E-002    -8.4669454736321524E-007
   3.9500000000000007E-002    -8.5100094793263762E-007
   4.0600000000000025E-002    -8.7493481260050702E-007
   4.1700000000000015E-002    -8.7579661567380004E-007
   4.2800000000000005E-002    -8.3740673062507101E-007
   4.3900000000000022E-002    -7.9541848663219635E-007
   4.5000000000000012E-002    -7.7195443282110152E-007
   4.6100000000000002E-002    -7.4191865451209129E-007
   4.7200000000000020E-002    -6.7954965743402926E-007
   4.8300000000000010E-002    -5.9502411886556619E-007
   4.9400000000000027E-002    -5.3246066045158641E-007
   5.0500000000000017E-002    -4.8932628260423398E-007
   5.1600000000000007E-002    -4.3434977214903205E-007
   5.2700000000000025E-002    -3.5155886735053879E-007
   5.3800000000000014E-002    -2.6725035695530370E-007
   5.4900000000000004E-002    -2.0740853301468880E-007
   5.6000000000000022E-002    -1.5673562359060004E-007
   5.7100000000000012E-002    -9.1019373371242437E-008
   5.8200000000000002E-002    -1.8296375969430506E-008
   5.9300000000000019E-002     3.3441825309374797E-008
   6.0400000000000009E-002     6.1043472499448892E-008
   6.1500000000000027E-002     9.2987789912941918E-008
   6.2600000000000017E-002     1.4501800649256464E-007
   6.3700000000000007E-002     1.9315869792577840E-007
   6.4800000000000024E-002     2.0980863269001653E-007
   6.5900000000000014E-002     2.0993556404432242E-007
   6.7000000000000004E-002     2.2375647290612639E-007
   6.8100000000000022E-002     2.4689603606058397E-007
   6.9200000000000012E-002     2.5063553721374393E-007
   7.0300000000000029E-002     2.3579818275754895E-007
   7.1400000000000019E-002     2.3434320439751332E-007
   7.2500000000000009E-002     2.5250520252514522E-007
   7.3600000000000027E-002     2.5109602574985481E-007
   7.4700000000000016E-002     2.0567306080491389E-007
   7.5800000000000006E-002     1.5448826218313024E-007
   7.6900000000000024E-002     1.5013979748367569E-007
   7.8000000000000014E-002     1.8028859472016101E-007
   7.9100000000000004E-002     1.8111052213515790E-007
   8.0200000000000021E-002     1.2969421447921051E-007
   8.1300000000000011E-002     7.6693439155083184E-008
   8.2400000000000029E-002     6.9390885926281914E-008
   8.3500000000000019E-002     8.3819756469079786E-008
   8.4600000000000009E-002     6.8837522349065531E-008
   8.5700000000000026E-002     3.0775133552716608E-008
   8.6800000000000016E-002     1.7973349031359350E-008
   8.7900000000000006E-002     3.5210401705437309E-008
   8.9000000000000024E-002     2.8593069245657139E-008
   9.0100000000000013E-002    -2.4756950267585383E-008
   9.1200000000000003E-002    -6.5487881784058485E-008
   9.2300000000000021E-002    -3.7143159659081933E-008
   9.3400000000000011E-002     2.0755487994953351E-008
   9.4500000000000028E-002     2.0251089694042583E-008
   9.5600000000000018E-002    -4.4777561214479120E-008
   9.6700000000000008E-002    -8.7298261064485081E-008
   9.7800000000000026E-002    -5.3142422018508864E-008
   9.8900000000000016E-002    -8.9313439980069957E-010
  0.10000000000000001         -9.3718783844885739E-009
  0.10110000000000002         -5.8373814226831285E-008
  0.10220000000000001         -6.4502330587891393E-008
  0.10330000000000003         -1.6400448998900745E-008
  0.10440000000000002          5.8555840176312325E-009
  0.10550000000000001         -3.8316947836882691E-008
  0.10660000000000003         -7.9932775065607105E-008
  0.10770000000000002         -4.3711764874422008E-008
  0.10880000000000001          2.8300295440397936E-008
  0.10990000000000003          3.2667124116837498E-008
  0.11100000000000002         -3.8324813544963426E-008
  0.11210000000000001         -8.0807737390417143E-008
  0.11320000000000002         -3.2421606732697334E-008
  0.11430000000000001          3.3398126930678972E-008
  0.11540000000000003          2.2063987969974374E-008
  0.11650000000000002         -3.9045826127928354E-008
  0.11760000000000001         -4.6478522364191717E-008
  0.11870000000000003          1.4302607986827339E-008
  0.11980000000000002          4.5524920722052673E-008
  0.12090000000000001         -6.2110885324013225E-009
  0.12200000000000003         -6.1401081552521919E-008
  0.12310000000000001         -2.8320359390949202E-008
  0.12420000000000003          4.9854197214911037E-008
  0.12530000000000002          5.4875634702951733E-008
  0.12640000000000001         -2.4916159802060647E-008
  0.12750000000000003         -7.2284230157051517E-008
  0.12860000000000002         -1.6235883748562227E-008
  0.12970000000000001          6.0494933507004602E-008
  0.13080000000000003          4.7266279779012775E-008
  0.13190000000000002         -2.8826898201838374E-008
  0.13300000000000001         -4.8616485059947634E-008
  0.13410000000000000          1.3673490784063102E-008
  0.13520000000000004          5.3860354398685618E-008
  0.13630000000000003          3.8256660061996244E-009
  0.13740000000000002         -5.9153666853724972E-008
  0.13850000000000001         -3.2384566139860633E-008
  0.13960000000000000          4.9516309275070953E-008
  0.14070000000000005          6.3570702479858999E-008
  0.14180000000000004         -1.2995972298318845E-008
  0.14290000000000003         -6.6020973577002391E-008
  0.14400000000000002         -1.7645616523514611E-008
  0.14510000000000001          5.5918111030446160E-008
  0.14620000000000000          4.2510315267914112E-008
  0.14730000000000004         -3.4547326777105629E-008
  0.14840000000000003         -5.5648367691678301E-008
  0.14950000000000002          9.1823331160830176E-009
  0.15060000000000001          5.5708802904060799E-008
  0.15170000000000000          1.0001034667080797E-008
  0.15280000000000005         -5.5398604814630600E-008
  0.15390000000000004         -3.4148357030975181E-008
  0.15500000000000003          4.6626876581964969E-008
  0.15610000000000002          6.4744149597115358E-008
  0.15720000000000001         -1.0717801757212354E-008
  0.15830000000000000         -7.0431390497563487E-008
  0.15940000000000004         -2.9059423312108108E-008
  0.16050000000000003          4.8470639057993691E-008
  0.16160000000000002          4.8341881608846696E-008
  0.16270000000000001         -2.1494644286692595E-008
  0.16380000000000000         -5.0468045742493355E-008
  0.16490000000000005          2.1054065157934936E-009
  0.16600000000000004          4.9037218730061861E-008
  0.16710000000000003          1.5956574728191325E-008
  0.16820000000000002         -4.2631718599752389E-008
  0.16930000000000001         -3.1312030301935005E-008
  0.17040000000000000          3.4469611165375998E-008
  0.17150000000000004          5.1002068346404947E-008
  0.17260000000000003         -1.1854669246248846E-008
  0.17370000000000002         -6.1439259013697474E-008
  0.17480000000000001         -2.2418602085851120E-008
  0.17590000000000000          4.8419344977900208E-008
  0.17700000000000005          4.7618520682134496E-008
  0.17810000000000004         -2.0333057904055181E-008
  0.17920000000000003         -5.3062862548359990E-008
  0.18030000000000002         -5.7971658584687765E-009
  0.18140000000000001          4.5736936016282058E-008
  0.18250000000000000          2.4721805047533052E-008
  0.18360000000000004         -3.2137709382596950E-008
  0.18470000000000003         -3.6741333531155027E-008
  0.18580000000000002          1.4231021694398866E-008
  0.18690000000000001          3.8861109885601069E-008
  0.18800000000000000         -3.5938896303459465E-010
  0.18910000000000005         -4.0304527715307890E-008
  0.19020000000000004         -1.7818029718342603E-008
  0.19130000000000003          3.2558105544921286E-008
  0.19240000000000002          3.3731346604781072E-008
  0.19350000000000001         -1.4546530202608987E-008
  0.19460000000000005         -3.7126824281586735E-008
  0.19570000000000004         -2.1872716138368422E-010
  0.19680000000000003          3.7803367547439259E-008
  0.19790000000000002          1.7461699641784729E-008
  0.19900000000000001         -3.0969239617207528E-008
  0.20010000000000000         -3.4750478050683199E-008
  0.20120000000000005          1.1212691219952247E-008
  0.20230000000000004          3.8828563475589829E-008
  0.20340000000000003          1.0163900832082556E-008
  0.20450000000000002         -2.8891419034949405E-008
  0.20560000000000000         -2.1312187570288830E-008
  0.20670000000000005          1.7164103027766475E-008
  0.20780000000000004          2.7329866369995758E-008
  0.20890000000000003         -2.7388367129792507E-009
