 -0.12000000000000000          0.0000000000000000
 -0.11889999999999999          0.0000000000000000
 -0.11780000000000000          0.0000000000000000
 -0.11670000000000000          1.2546763107634806E-011
 -0.11559999999999999          1.3697700959602876E-011
 -0.11449999999999999         -3.8519902545441909E-011
 -0.11340000000000000         -6.0436954052445202E-011
 -0.11230000000000000          8.1728214473830718E-011
 -0.11119999999999999          2.1664796345799431E-010
 -0.11009999999999999         -3.4040759794295994E-011
 -0.10900000000000000         -4.8208037561892070E-010
 -0.10790000000000000         -2.7206722985617660E-010
 -0.10679999999999999          7.1667310974632414E-010
 -0.10569999999999999          1.0246065107466507E-009
 -0.10460000000000000         -4.2161371616167287E-010
 -0.10349999999999999         -1.8818466784864540E-009
 -0.10239999999999999         -6.0493354769874941E-010
 -0.10130000000000000          2.4258617337125088E-009
 -0.10020000000000000          2.5024637917425707E-009
  -9.9099999999999994E-002    -1.8537332779899884E-009
  -9.7999999999999990E-002    -4.8300936583700604E-009
  -9.6899999999999986E-002    -6.5601940546500259E-010
  -9.5799999999999996E-002     6.4043996772511491E-009
  -9.4699999999999993E-002     5.8165956495770388E-009
  -9.3599999999999989E-002    -3.7803524755020135E-009
  -9.2499999999999999E-002    -9.8755270627748359E-009
  -9.1399999999999995E-002    -2.5646860191130827E-009
  -9.0299999999999991E-002     9.5434868896404623E-009
  -8.9200000000000002E-002     9.3253831323636405E-009
  -8.8099999999999984E-002    -4.2171075520514023E-009
  -8.6999999999999994E-002    -1.2694485462816374E-008
  -8.5899999999999990E-002    -3.9121834660704735E-009
  -8.4799999999999986E-002     9.9854222668227521E-009
  -8.3699999999999997E-002     9.7388213049498518E-009
  -8.2599999999999993E-002    -2.9503661735930109E-009
  -8.1499999999999989E-002    -8.7991205433013420E-009
  -8.0399999999999999E-002    -8.1164175380621373E-010
  -7.9299999999999995E-002     5.8460307705843206E-009
  -7.8199999999999992E-002    -3.1213504003702042E-010
  -7.7100000000000002E-002    -7.3377641740535182E-009
  -7.5999999999999984E-002     3.2789255251935989E-012
  -7.4899999999999994E-002     1.1607506067434770E-008
  -7.3799999999999991E-002     4.7743484721252116E-009
  -7.2699999999999987E-002    -1.6708332495340983E-008
  -7.1599999999999997E-002    -2.0920532861623542E-008
  -7.0499999999999993E-002     5.0186446109989902E-009
  -6.9399999999999989E-002     2.8316412326034879E-008
  -6.8300000000000000E-002     1.2550120942478316E-008
  -6.7199999999999996E-002    -2.6888352877563193E-008
  -6.6099999999999992E-002    -3.8675548097444334E-008
  -6.5000000000000002E-002    -6.8520726870247017E-009
  -6.3899999999999985E-002     2.4598005410325641E-008
  -6.2799999999999995E-002     1.2651734770940948E-008
  -6.1699999999999991E-002    -2.5250569635204556E-008
  -6.0599999999999994E-002    -3.9295542819672846E-008
  -5.9499999999999990E-002    -1.9401673156949073E-008
  -5.8399999999999994E-002    -3.7859200219259037E-009
  -5.7299999999999990E-002    -1.5912236861481688E-008
  -5.6199999999999986E-002    -3.1360599450636073E-008
  -5.5099999999999996E-002    -2.4935095765954429E-008
  -5.3999999999999992E-002    -1.7690746645371291E-008
  -5.2899999999999989E-002    -4.2310588810323679E-008
  -5.1799999999999985E-002    -8.0367520638446877E-008
  -5.0699999999999995E-002    -7.9825447585335496E-008
  -4.9599999999999991E-002    -3.7793551399545322E-008
  -4.8499999999999988E-002    -1.9380308913241606E-008
  -4.7399999999999998E-002    -6.9089495013940905E-008
  -4.6299999999999994E-002    -1.3942364773811278E-007
  -4.5199999999999990E-002    -1.5000385644725611E-007
  -4.4099999999999986E-002    -1.0021871332810406E-007
  -4.2999999999999997E-002    -7.1726951489381463E-008
  -4.1899999999999993E-002    -1.1493416707253346E-007
  -4.0799999999999989E-002    -1.8242640464904980E-007
  -3.9699999999999985E-002    -2.0364343811252184E-007
  -3.8599999999999995E-002    -1.8454896633102180E-007
  -3.7499999999999992E-002    -1.8552093195012276E-007
  -3.6399999999999988E-002    -2.2236095276184642E-007
  -3.5299999999999984E-002    -2.4798339381959522E-007
  -3.4199999999999994E-002    -2.3907654167487635E-007
  -3.3099999999999991E-002    -2.4110025265144941E-007
  -3.1999999999999987E-002    -2.9336445095395902E-007
  -3.0899999999999997E-002    -3.5236976714259072E-007
  -2.9799999999999993E-002    -3.4694565442805470E-007
  -2.8699999999999989E-002    -2.9047819793959206E-007
  -2.7599999999999986E-002    -2.7532240665095742E-007
  -2.6499999999999996E-002    -3.4196472142866696E-007
  -2.5399999999999992E-002    -4.1495584923723072E-007
  -2.4299999999999988E-002    -4.0547652702116466E-007
  -2.3199999999999985E-002    -3.3612096217439102E-007
  -2.2099999999999995E-002    -3.0307813858598820E-007
  -2.0999999999999991E-002    -3.3677972055556893E-007
  -1.9899999999999987E-002    -3.6613323572964873E-007
  -1.8799999999999983E-002    -3.3350855233038601E-007
  -1.7699999999999994E-002    -2.7636201593850274E-007
  -1.6599999999999990E-002    -2.5762258815120731E-007
  -1.5499999999999986E-002    -2.6010707188106608E-007
  -1.4399999999999996E-002    -2.1540155614729883E-007
  -1.3299999999999992E-002    -1.2160798235072434E-007
  -1.2199999999999989E-002    -5.5118526631758868E-008
  -1.1099999999999985E-002    -5.2502571179502411E-008
  -9.9999999999999950E-003    -4.5828240757828098E-008
  -8.8999999999999913E-003     4.3485833600698243E-008
  -7.7999999999999875E-003     1.8244801935907162E-007
  -6.6999999999999837E-003     2.7469735641716397E-007
  -5.5999999999999939E-003     2.9026847414570511E-007
  -4.4999999999999901E-003     3.1495716257268214E-007
  -3.3999999999999864E-003     4.1630073610576801E-007
  -2.2999999999999826E-003     5.4747869171478669E-007
  -1.1999999999999927E-003     6.2430837033389253E-007
  -9.9999999999988987E-005     6.5541860294615617E-007
   1.0000000000000148E-003     7.1393787948181853E-007
   2.1000000000000185E-003     8.1884627434192225E-007
   3.2000000000000084E-003     9.0158846433041617E-007
   4.3000000000000121E-003     9.1954620984324720E-007
   5.4000000000000159E-003     9.2326041567503125E-007
   6.5000000000000058E-003     9.7998940873367246E-007
   7.6000000000000234E-003     1.0632469411575585E-006
   8.7000000000000133E-003     1.0883300092245918E-006
   9.8000000000000032E-003     1.0410655022496940E-006
   1.0900000000000021E-002     9.9981809853488812E-007
   1.2000000000000011E-002     1.0149899480893509E-006
   1.3100000000000001E-002     1.0376143109169789E-006
   1.4200000000000018E-002     9.9279702681087656E-007
   1.5300000000000008E-002     8.9198272235080367E-007
   1.6400000000000026E-002     8.1128945339514758E-007
   1.7500000000000016E-002     7.7331014836090617E-007
   1.8600000000000005E-002     7.1874615059641656E-007
   1.9700000000000023E-002     6.0438048876676476E-007
   2.0800000000000013E-002     4.7162347982521169E-007
   2.1900000000000003E-002     3.8023244997020811E-007
   2.3000000000000020E-002     3.1346033324552991E-007
   2.4100000000000010E-002     2.0830462688081752E-007
   2.5200000000000000E-002     5.7642953521508389E-008
   2.6300000000000018E-002    -7.5936092969186575E-008
   2.7400000000000008E-002    -1.5815123788343044E-007
   2.8500000000000025E-002    -2.3135218896186416E-007
   2.9600000000000015E-002    -3.4810912552529771E-007
   3.0700000000000005E-002    -4.8360982418671483E-007
   3.1800000000000023E-002    -5.7730630942387506E-007
   3.2900000000000013E-002    -6.1940033901919378E-007
   3.4000000000000002E-002    -6.6336394866084447E-007
   3.5100000000000020E-002    -7.3949843226728262E-007
   3.6200000000000010E-002    -8.1536416018934688E-007
   3.7300000000000028E-002    -8.4769214936386561E-007
   3.8400000000000017E-002    -8.4682346823683474E-007
   3.9500000000000007E-002    -8.5462079368880950E-007
   4.0600000000000025E-002    -8.7435375917266356E-007
   4.1700000000000015E-002    -8.7235071077884641E-007
   4.2800000000000005E-002    -8.3603009670696338E-007
   4.3900000000000022E-002    -7.9954253351388616E-007
   4.5000000000000012E-002    -7.7604079251614166E-007
   4.6100000000000002E-002    -7.4180269393764320E-007
   4.7200000000000020E-002    -6.7536473125073826E-007
   4.8300000000000010E-002    -5.9379817685112357E-007
   4.9400000000000027E-002    -5.3368364660855150E-007
   5.0500000000000017E-002    -4.8994348844644264E-007
   5.1600000000000007E-002    -4.3258327764306159E-007
   5.2700000000000025E-002    -3.4846942753574695E-007
   5.3800000000000014E-002    -2.6599553848427604E-007
   5.4900000000000004E-002    -2.0773759956682625E-007
   5.6000000000000022E-002    -1.5656033269806358E-007
   5.7100000000000012E-002    -8.8796490160802932E-008
   5.8200000000000002E-002    -1.9664335937363830E-008
   5.9300000000000019E-002     2.4561771283515554E-008
   6.0400000000000009E-002     5.0637538606679300E-008
   6.1500000000000027E-002     9.4560029140211554E-008
   6.2600000000000017E-002     1.5786780238613574E-007
   6.3700000000000007E-002     2.0086210383851721E-007
   6.4800000000000024E-002     2.0403338396590698E-007
   6.5900000000000014E-002     2.0089512986487534E-007
   6.7000000000000004E-002     2.2652639586340229E-007
   6.8100000000000022E-002     2.5990030394495989E-007
   6.9200000000000012E-002     2.5797393732318596E-007
   7.0300000000000029E-002     2.2717107128755742E-007
   7.1400000000000019E-002     2.1845177400336979E-007
   7.2500000000000009E-002     2.4462340775244229E-007
   7.3600000000000027E-002     2.5506648171358393E-007
   7.4700000000000016E-002     2.1365222835356690E-007
   7.5800000000000006E-002     1.6112602452267311E-007
   7.6900000000000024E-002     1.5663727026549168E-007
   7.8000000000000014E-002     1.8518414890422719E-007
   7.9100000000000004E-002     1.7836242705016048E-007
   8.0200000000000021E-002     1.1853976644715658E-007
   8.1300000000000011E-002     6.7963355832034722E-008
   8.2400000000000029E-002     7.3681242440670758E-008
   8.3500000000000019E-002     9.5030245006455516E-008
   8.4600000000000009E-002     7.0391656947776937E-008
   8.5700000000000026E-002     1.6500163013688507E-008
   8.6800000000000016E-002     4.0573677750899151E-009
   8.7900000000000006E-002     3.9951036256979933E-008
   8.9000000000000024E-002     4.8545896191853899E-008
   9.0100000000000013E-002    -1.0004447048572729E-008
   9.1200000000000003E-002    -6.7956626992327074E-008
   9.2300000000000021E-002    -4.7580819284576137E-008
   9.3400000000000011E-002     1.5947087206313881E-008
   9.4500000000000028E-002     2.1030327701510032E-008
   9.5600000000000018E-002    -4.8161155064008199E-008
   9.6700000000000008E-002    -9.3549942903337069E-008
   9.7800000000000026E-002    -5.2216819312889129E-008
   9.8900000000000016E-002     8.6356255479813626E-009
  0.10000000000000001         -3.4086131694976984E-009
  0.10110000000000002         -6.5147986560987192E-008
  0.10220000000000001         -7.4134064220743312E-008
  0.10330000000000003         -1.3929062347983745E-008
  0.10440000000000002          1.8637942744703651E-008
  0.10550000000000001         -3.3587838288440253E-008
  0.10660000000000003         -9.0688907050662237E-008
  0.10770000000000002         -5.6470543796649508E-008
  0.10880000000000001          2.8753511571721901E-008
  0.10990000000000003          4.2340477790503428E-008
  0.11100000000000002         -3.4495620582219999E-008
  0.11210000000000001         -8.5048498021933483E-008
  0.11320000000000002         -3.2967740537515056E-008
  0.11430000000000001          4.2214534090589950E-008
  0.11540000000000003          2.8175335842206550E-008
  0.11650000000000002         -4.6344304394096980E-008
  0.11760000000000001         -5.8804626945629934E-008
  0.11870000000000003          1.3598319803520553E-008
  0.11980000000000002          5.6337455589527963E-008
  0.12090000000000001         -2.2486581485736679E-009
  0.12200000000000003         -7.2661805461393669E-008
  0.12310000000000001         -4.0288860247983393E-008
  0.12420000000000003          5.4375433933273598E-008
  0.12530000000000002          7.1184963701398374E-008
  0.12640000000000001         -1.6414974268741389E-008
  0.12750000000000003         -7.8338644016184844E-008
  0.12860000000000002         -2.4118840258324781E-008
  0.12970000000000001          6.1320662325670128E-008
  0.13080000000000003          4.9740489060923210E-008
  0.13190000000000002         -3.4831014517067160E-008
  0.13300000000000001         -5.7533334540948999E-008
  0.13410000000000000          1.5565927213856412E-008
  0.13520000000000004          6.5480342925638979E-008
  0.13630000000000003          9.3871390660638099E-009
  0.13740000000000002         -6.6062604275884951E-008
  0.13850000000000001         -3.8238397337408969E-008
  0.13960000000000000          5.7544934151110283E-008
  0.14070000000000005          7.6365516576970549E-008
  0.14180000000000004         -1.4985410246026731E-008
  0.14290000000000003         -8.4015681522942032E-008
  0.14400000000000002         -3.1712918513449040E-008
  0.14510000000000001          6.0227556275549432E-008
  0.14620000000000000          5.6100947887216535E-008
  0.14730000000000004         -2.9049155969573803E-008
  0.14840000000000003         -5.9720733247559110E-008
  0.14950000000000002          7.7498345518733913E-009
  0.15060000000000001          6.1026227626825857E-008
  0.15170000000000000          1.2473566179949103E-008
  0.15280000000000005         -6.1107392923531734E-008
  0.15390000000000004         -3.9055539247101478E-008
  0.15500000000000003          5.1104247944522285E-008
  0.15610000000000002          7.0865695533939288E-008
  0.15720000000000001         -1.6272888814228281E-008
  0.15830000000000000         -8.4414104151164793E-008
  0.15940000000000004         -3.3037917290812402E-008
  0.16050000000000003          6.2163962866179645E-008
  0.16160000000000002          6.4416276757128799E-008
  0.16270000000000001         -2.1077985579154301E-008
  0.16380000000000000         -6.2758182650668459E-008
  0.16490000000000005         -5.4371795954466506E-009
  0.16600000000000004          5.3046889547658793E-008
  0.16710000000000003          2.1135104333325216E-008
  0.16820000000000002         -4.5198156328751793E-008
  0.16930000000000001         -3.6064040642713735E-008
  0.17040000000000000          3.6253464230640020E-008
  0.17150000000000004          5.5902827256204546E-008
  0.17260000000000003         -1.3320709868480662E-008
  0.17370000000000002         -6.7785968838052213E-008
  0.17480000000000001         -2.1970331331999660E-008
  0.17590000000000000          5.8791485457732051E-008
  0.17700000000000005          5.5722818359527082E-008
  0.17810000000000004         -2.5174053064347390E-008
  0.17920000000000003         -6.4709290370501549E-008
  0.18030000000000002         -1.0469865863171890E-008
  0.18140000000000001          4.9968118531751315E-008
  0.18250000000000000          2.7543276104324832E-008
  0.18360000000000004         -3.5587195412745132E-008
  0.18470000000000003         -3.8681172043197876E-008
  0.18580000000000002          2.0288325686124153E-008
  0.18690000000000001          4.5954937633041482E-008
  0.18800000000000000         -2.7660762569325925E-009
  0.18910000000000005         -4.9310600047647313E-008
  0.19020000000000004         -2.0156146973704381E-008
  0.19130000000000003          4.1234706316117808E-008
  0.19240000000000002          4.2158756485832782E-008
  0.19350000000000001         -1.7679880670584680E-008
  0.19460000000000005         -4.8115005313320580E-008
  0.19570000000000004         -6.8849015377736578E-009
  0.19680000000000003          3.9858509381929252E-008
  0.19790000000000002          2.2656406528653861E-008
  0.19900000000000001         -2.6912013950664004E-008
  0.20010000000000000         -3.0293676900328137E-008
  0.20120000000000005          1.5585101209580898E-008
  0.20230000000000004          3.7157935395271124E-008
  0.20340000000000003          7.7086198535525341E-010
  0.20450000000000002         -3.6541262460332291E-008
  0.20560000000000000         -1.7113096717480403E-008
  0.20670000000000005          2.8780165806097102E-008
  0.20780000000000004          3.1050905846541355E-008
  0.20890000000000003         -1.3086186356758844E-008
