 -0.12000000000000000          0.0000000000000000
 -0.11889999999999999          0.0000000000000000
 -0.11780000000000000          0.0000000000000000
 -0.11670000000000000          0.0000000000000000
 -0.11559999999999999          0.0000000000000000
 -0.11449999999999999          0.0000000000000000
 -0.11340000000000000         -1.0370384665327475E-019
 -0.11230000000000000         -4.6410028092447451E-020
 -0.11119999999999999          8.2720785781445364E-019
 -0.11009999999999999          8.0862017887219799E-019
 -0.10900000000000000         -2.4883391943427375E-018
 -0.10790000000000000         -2.5798832727339811E-018
 -0.10679999999999999          4.4458087607999679E-018
 -0.10569999999999999         -8.2915864955182573E-018
 -0.10460000000000000         -4.1711799997848099E-017
 -0.10349999999999999          3.4793562448197544E-017
 -0.10239999999999999          2.8669137706934119E-016
 -0.10130000000000000          2.5638866750220019E-016
 -0.10020000000000000         -6.8406079064769836E-016
  -9.9099999999999994E-002    -1.7782990859483046E-015
  -9.7999999999999990E-002    -6.4952434571238435E-016
  -9.6899999999999986E-002     3.2767221807395537E-015
  -9.5799999999999996E-002     5.7871620297018748E-015
  -9.4699999999999993E-002     2.2170159893304068E-015
  -9.3599999999999989E-002    -5.0691072128424604E-015
  -9.2499999999999999E-002    -9.9055149933163777E-015
  -9.1399999999999995E-002    -1.3656577530342471E-014
  -9.0299999999999991E-002    -1.9275630625068679E-014
  -8.9200000000000002E-002    -7.1703287160855209E-015
  -8.8099999999999984E-002     5.4147797492543406E-014
  -8.6999999999999994E-002     1.3642902183409050E-013
  -8.5899999999999990E-002     1.1752880298750851E-013
  -8.4799999999999986E-002    -9.3426182317789958E-014
  -8.3699999999999997E-002    -3.7053048346571971E-013
  -8.2599999999999993E-002    -4.1808901176179636E-013
  -8.1499999999999989E-002    -1.0171678495145275E-013
  -8.0399999999999999E-002     3.5628206114524108E-013
  -7.9299999999999995E-002     6.6289036976599491E-013
  -7.8199999999999992E-002     8.2279614978947313E-013
  -7.7100000000000002E-002     9.0005525818850907E-013
  -7.5999999999999984E-002     4.4932625870887366E-013
  -7.4899999999999994E-002    -1.1745850602914998E-012
  -7.3799999999999991E-002    -3.4557829688142139E-012
  -7.2699999999999987E-002    -4.2359796226243418E-012
  -7.1599999999999997E-002    -1.7172245613331083E-012
  -7.0499999999999993E-002     2.9525628903598333E-012
  -6.9399999999999989E-002     6.3249418723321238E-012
  -6.8300000000000000E-002     6.5535125069737798E-012
  -6.7199999999999996E-002     5.3395456459104373E-012
  -6.6099999999999992E-002     4.4603552622202169E-012
  -6.5000000000000002E-002     1.5831623121839722E-012
  -6.3899999999999985E-002    -7.2067555915988901E-012
  -6.2799999999999995E-002    -1.9912869964056057E-011
  -6.1699999999999991E-002    -2.7178299541463780E-011
  -6.0599999999999994E-002    -2.1546939579786262E-011
  -5.9499999999999990E-002    -6.1066620510308312E-012
  -5.8399999999999994E-002     1.0584685038173003E-011
  -5.7299999999999990E-002     2.7202136376747177E-011
  -5.6199999999999986E-002     5.0021028985547389E-011
  -5.5099999999999996E-002     7.6653121350300779E-011
  -5.3999999999999992E-002     8.5816340145150605E-011
  -5.2899999999999989E-002     5.3101561342527859E-011
  -5.1799999999999985E-002    -2.2090643550520817E-011
  -5.0699999999999995E-002    -1.1234507074631139E-010
  -4.9599999999999991E-002    -1.8649749800037085E-010
  -4.8499999999999988E-002    -2.2949629696622509E-010
  -4.7399999999999998E-002    -2.3298887819045433E-010
  -4.6299999999999994E-002    -1.7724244294470282E-010
  -4.5199999999999990E-002    -3.9997567757854569E-011
  -4.4099999999999986E-002     1.7328596890742176E-010
  -4.2999999999999997E-002     4.1959846708294890E-010
  -4.1899999999999993E-002     6.4424476864388680E-010
  -4.0799999999999989E-002     8.0668860480415105E-010
  -3.9699999999999985E-002     8.7561663475455020E-010
  -3.8599999999999995E-002     8.1776396765320669E-010
  -3.7499999999999992E-002     6.2022126323668658E-010
  -3.6399999999999988E-002     3.2891758761088852E-010
  -3.5299999999999984E-002     4.5460964853694108E-011
  -3.4199999999999994E-002    -1.2486804645828187E-010
  -3.3099999999999991E-002    -1.0976084624525484E-010
  -3.1999999999999987E-002     1.4637042966558766E-010
  -3.0899999999999997E-002     6.9391237200733258E-010
  -2.9799999999999993E-002     1.5184141721746869E-009
  -2.8699999999999989E-002     2.4583957092261244E-009
  -2.7599999999999986E-002     3.2189553245132174E-009
  -2.6499999999999996E-002     3.4918057334465402E-009
  -2.5399999999999992E-002     3.0425377772758111E-009
  -2.4299999999999988E-002     1.6652537127015421E-009
  -2.3199999999999985E-002    -8.9587731677553961E-010
  -2.2099999999999995E-002    -4.8898733950863971E-009
  -2.0999999999999991E-002    -1.0389016757983427E-008
  -1.9899999999999987E-002    -1.7221678305645582E-008
  -1.8799999999999983E-002    -2.5130878711365767E-008
  -1.7699999999999994E-002    -3.4010344762691602E-008
  -1.6599999999999990E-002    -4.3996124077239074E-008
  -1.5499999999999986E-002    -5.5407515020533538E-008
  -1.4399999999999996E-002    -6.8721135448868154E-008
  -1.3299999999999992E-002    -8.4656349486067484E-008
  -1.2199999999999989E-002    -1.0424486873716887E-007
  -1.1099999999999985E-002    -1.2877298161129147E-007
  -9.9999999999999950E-003    -1.5969024502737739E-007
  -8.8999999999999913E-003    -1.9860688382777880E-007
  -7.7999999999999875E-003    -2.4732437964303244E-007
  -6.6999999999999837E-003    -3.0777562187722651E-007
  -5.5999999999999939E-003    -3.8194346529962786E-007
  -4.4999999999999901E-003    -4.7200015274029283E-007
  -3.3999999999999864E-003    -5.8066370911546983E-007
  -2.2999999999999826E-003    -7.1144313551485538E-007
  -1.1999999999999927E-003    -8.6852105596335605E-007
  -9.9999999999988987E-005    -1.0565537422735360E-006
   1.0000000000000148E-003    -1.2807652183255414E-006
   2.1000000000000185E-003    -1.5473514167752001E-006
   3.2000000000000084E-003    -1.8637214225236676E-006
   4.3000000000000121E-003    -2.2382826045941329E-006
   5.4000000000000159E-003    -2.6801260446518427E-006
   6.5000000000000058E-003    -3.1991312425816432E-006
   7.6000000000000234E-003    -3.8063894862716552E-006
   8.7000000000000133E-003    -4.5145025069359690E-006
   9.8000000000000032E-003    -5.3374342314782552E-006
   1.0900000000000021E-002    -6.2903172874939628E-006
   1.2000000000000011E-002    -7.3894366323656868E-006
   1.3100000000000001E-002    -8.6525278675253503E-006
   1.4200000000000018E-002    -1.0098975508299191E-005
   1.5300000000000008E-002    -1.1749647455872037E-005
   1.6400000000000026E-002    -1.3626869986183010E-005
   1.7500000000000016E-002    -1.5754301784909330E-005
   1.8600000000000005E-002    -1.8156702935812064E-005
   1.9700000000000023E-002    -2.0859421056229621E-005
   2.0800000000000013E-002    -2.3887872885097750E-005
   2.1900000000000003E-002    -2.7267622499493882E-005
   2.3000000000000020E-002    -3.1024468626128510E-005
   2.4100000000000010E-002    -3.5183649742975831E-005
   2.5200000000000000E-002    -3.9768823626218364E-005
   2.6300000000000018E-002    -4.4801294279750437E-005
   2.7400000000000008E-002    -5.0299884605919942E-005
   2.8500000000000025E-002    -5.6281300203409046E-005
   2.9600000000000015E-002    -6.2758968851994723E-005
   3.0700000000000005E-002    -6.9741065090056509E-005
   3.1800000000000023E-002    -7.7229728049132973E-005
   3.2900000000000013E-002    -8.5220330220181495E-005
   3.4000000000000002E-002    -9.3699993158224970E-005
   3.5100000000000020E-002    -1.0264714364893734E-004
   3.6200000000000010E-002    -1.1202986934222281E-004
   3.7300000000000028E-002    -1.2180607882328331E-004
   3.8400000000000017E-002    -1.3192140613682568E-004
   3.9500000000000007E-002    -1.4230977103579789E-004
   4.0600000000000025E-002    -1.5289221482817084E-004
   4.1700000000000015E-002    -1.6357611457351595E-004
   4.2800000000000005E-002    -1.7425423720851541E-004
   4.3900000000000022E-002    -1.8480620929040015E-004
   4.5000000000000012E-002    -1.9509729463607073E-004
   4.6100000000000002E-002    -2.0498043159022927E-004
   4.7200000000000020E-002    -2.1429485059343278E-004
   4.8300000000000010E-002    -2.2286640887614340E-004
   4.9400000000000027E-002    -2.3051101015880704E-004
   5.0500000000000017E-002    -2.3703597253188491E-004
   5.1600000000000007E-002    -2.4224193475674838E-004
   5.2700000000000025E-002    -2.4592582485638559E-004
   5.3800000000000014E-002    -2.4788413429632783E-004
   5.4900000000000004E-002    -2.4791448959149420E-004
   5.6000000000000022E-002    -2.4581950856372714E-004
   5.7100000000000012E-002    -2.4140832829289138E-004
   5.8200000000000002E-002    -2.3450456501450390E-004
   5.9300000000000019E-002    -2.2495035955216736E-004
   6.0400000000000009E-002    -2.1261061192490160E-004
   6.1500000000000027E-002    -1.9737311231438071E-004
   6.2600000000000017E-002    -1.7915399803314358E-004
   6.3700000000000007E-002    -1.5790108591318130E-004
   6.4800000000000024E-002    -1.3360130833461881E-004
   6.5900000000000014E-002    -1.0628070594975725E-004
   6.7000000000000004E-002    -7.6011718192603439E-005
   6.8100000000000022E-002    -4.2912077333312482E-005
   6.9200000000000012E-002    -7.1408126132155303E-006
   7.0300000000000029E-002     3.1098294130060822E-005
   7.1400000000000019E-002     7.1551803557667881E-005
   7.2500000000000009E-002     1.1391403677407652E-004
   7.3600000000000027E-002     1.5783404523972422E-004
   7.4700000000000016E-002     2.0292314002290368E-004
   7.5800000000000006E-002     2.4876007228158414E-004
   7.6900000000000024E-002     2.9488975997082889E-004
   7.8000000000000014E-002     3.4082427737303078E-004
   7.9100000000000004E-002     3.8605034933425486E-004
   8.0200000000000021E-002     4.3003950850106776E-004
   8.1300000000000011E-002     4.7225964954122901E-004
   8.2400000000000029E-002     5.1218492444604635E-004
   8.3500000000000019E-002     5.4929690668359399E-004
   8.4600000000000009E-002     5.8309000451117754E-004
   8.5700000000000026E-002     6.1308202566578984E-004
   8.6800000000000016E-002     6.3882663380354643E-004
   8.7900000000000006E-002     6.5992231247946620E-004
   8.9000000000000024E-002     6.7601975752040744E-004
   9.0100000000000013E-002     6.8682903656736016E-004
   9.1200000000000003E-002     6.9212372181937099E-004
   9.2300000000000021E-002     6.9173821248114109E-004
   9.3400000000000011E-002     6.8557308986783028E-004
   9.4500000000000028E-002     6.7360483808442950E-004
   9.5600000000000018E-002     6.5589725272729993E-004
   9.6700000000000008E-002     6.3259567832574248E-004
   9.7800000000000026E-002     6.0391385341063142E-004
   9.8900000000000016E-002     5.7012325851246715E-004
  0.10000000000000001          5.3156370995566249E-004
  0.10110000000000002          4.8864417476579547E-004
  0.10220000000000001          4.4184274156577885E-004
  0.10330000000000003          3.9168531657196581E-004
  0.10440000000000002          3.3873028587549925E-004
  0.10550000000000001          2.8356138500384986E-004
  0.10660000000000003          2.2678473033010960E-004
  0.10770000000000002          1.6902503557503223E-004
  0.10880000000000001          1.1091516353189945E-004
  0.10990000000000003          5.3084691899130121E-005
  0.11100000000000002         -3.8575703911192250E-006
  0.11210000000000001         -5.9328038332751021E-005
  0.11320000000000002         -1.1278423335170373E-004
  0.11430000000000001         -1.6372704703826457E-004
  0.11540000000000003         -2.1169539832044393E-004
  0.11650000000000002         -2.5627113063819706E-004
  0.11760000000000001         -2.9708750662393868E-004
  0.11870000000000003         -3.3386267023161054E-004
  0.11980000000000002         -3.6638361052609980E-004
  0.12090000000000001         -3.9449645555578172E-004
  0.12200000000000003         -4.1809136746451259E-004
  0.12310000000000001         -4.3711587204597890E-004
  0.12420000000000003         -4.5159144792705774E-004
  0.12530000000000002         -4.6161140198819339E-004
  0.12640000000000001         -4.6731662587262690E-004
  0.12750000000000003         -4.6888325596228242E-004
  0.12860000000000002         -4.6652636956423521E-004
  0.12970000000000001         -4.6050635864958167E-004
  0.13080000000000003         -4.5111798681318760E-004
  0.13190000000000002         -4.3867842759937048E-004
  0.13300000000000001         -4.2351844604127109E-004
  0.13410000000000000         -4.0598426130600274E-004
  0.13520000000000004         -3.8643227890133858E-004
  0.13630000000000003         -3.6521413130685687E-004
  0.13740000000000002         -3.4266823786310852E-004
  0.13850000000000001         -3.1912722624838352E-004
  0.13960000000000000         -2.9492206522263587E-004
  0.14070000000000005         -2.7036867686547339E-004
  0.14180000000000004         -2.4574826238676906E-004
  0.14290000000000003         -2.2130765137262642E-004
  0.14400000000000002         -1.9727702601812780E-004
  0.14510000000000001         -1.7387795378454030E-004
  0.14620000000000000         -1.5130660904105753E-004
  0.14730000000000004         -1.2971329852007329E-004
  0.14840000000000003         -1.0920828208327293E-004
  0.14950000000000002         -8.9886598289012909E-005
  0.15060000000000001         -7.1837523137219250E-005
  0.15170000000000000         -5.5127678933786228E-005
  0.15280000000000005         -3.9781523810233921E-005
  0.15390000000000004         -2.5793593522394076E-005
  0.15500000000000003         -1.3152987776265945E-005
  0.15610000000000002         -1.8475603837941890E-006
  0.15720000000000001          8.1535345088923350E-006
  0.15830000000000000          1.6908281395444646E-005
  0.15940000000000004          2.4483571905875579E-005
  0.16050000000000003          3.0940973374526948E-005
  0.16160000000000002          3.6345420085126534E-005
  0.16270000000000001          4.0778606489766389E-005
  0.16380000000000000          4.4332646211842075E-005
  0.16490000000000005          4.7087054554140195E-005
  0.16600000000000004          4.9106827646028250E-005
  0.16710000000000003          5.0464048399589956E-005
  0.16820000000000002          5.1249346142867580E-005
  0.16930000000000001          5.1551356591517106E-005
  0.17040000000000000          5.1430841267574579E-005
  0.17150000000000004          5.0930248107761145E-005
  0.17260000000000003          5.0105143600376323E-005
  0.17370000000000002          4.9032631068257615E-005
  0.17480000000000001          4.7780231398064643E-005
  0.17590000000000000          4.6381839638343081E-005
  0.17700000000000005          4.4854368752567098E-005
  0.17810000000000004          4.3231502786511555E-005
  0.17920000000000003          4.1564901039237157E-005
  0.18030000000000002          3.9894264773465693E-005
  0.18140000000000001          3.8230449717957526E-005
  0.18250000000000000          3.6576610000338405E-005
  0.18360000000000004          3.4951008274219930E-005
  0.18470000000000003          3.3378848456777632E-005
  0.18580000000000002          3.1868712540017441E-005
  0.18690000000000001          3.0414661523536779E-005
  0.18800000000000000          2.9020560759818181E-005
  0.18910000000000005          2.7705051252269186E-005
  0.19020000000000004          2.6476551283849403E-005
  0.19130000000000003          2.5317240215372294E-005
  0.19240000000000002          2.4205060981330462E-005
  0.19350000000000001          2.3145092200138606E-005
  0.19460000000000005          2.2160736989462748E-005
  0.19570000000000004          2.1255771571304649E-005
  0.19680000000000003          2.0401888832566328E-005
  0.19790000000000002          1.9571140001062304E-005
  0.19900000000000001          1.8767354049487039E-005
  0.20010000000000000          1.8010723579209298E-005
  0.20120000000000005          1.7300208128290251E-005
  0.20230000000000004          1.6609772501396947E-005
  0.20340000000000003          1.5921646991046146E-005
  0.20450000000000002          1.5244398127833847E-005
  0.20560000000000000          1.4589693819289096E-005
  0.20670000000000005          1.3945483260613400E-005
  0.20780000000000004          1.3288361515151337E-005
  0.20890000000000003          1.2615777450264432E-005
