 -0.12000000000000000          0.0000000000000000
 -0.11889999999999999          0.0000000000000000
 -0.11780000000000000          0.0000000000000000
 -0.11670000000000000          0.0000000000000000
 -0.11559999999999999          0.0000000000000000
 -0.11449999999999999          0.0000000000000000
 -0.11340000000000000          0.0000000000000000
 -0.11230000000000000          0.0000000000000000
 -0.11119999999999999          0.0000000000000000
 -0.11009999999999999          0.0000000000000000
 -0.10900000000000000          0.0000000000000000
 -0.10790000000000000          1.9595432523687732E-030
 -0.10679999999999999         -4.4594332340252284E-030
 -0.10569999999999999         -3.0723162715125408E-029
 -0.10460000000000000          6.4259049817531154E-029
 -0.10349999999999999          2.9027110565194017E-028
 -0.10239999999999999         -4.6664849218265238E-028
 -0.10130000000000000         -2.0752601967062056E-027
 -0.10020000000000000          2.0507589011397001E-027
  -9.9099999999999994E-002     1.1726655401051467E-026
  -9.7999999999999990E-002    -4.6992274642180567E-027
  -9.6899999999999986E-002    -5.2944313372246699E-026
  -9.5799999999999996E-002    -4.7410336255208704E-027
  -9.4699999999999993E-002     1.9614094566376166E-025
  -9.3599999999999989E-002     9.7819991005545694E-026
  -9.2499999999999999E-002    -6.3135772574548981E-025
  -9.1399999999999995E-002    -5.6938224923338515E-025
  -9.0299999999999991E-002     1.8606528877715550E-024
  -8.9200000000000002E-002     2.6774700373974679E-024
  -8.8099999999999984E-002    -4.7387990814807067E-024
  -8.6999999999999994E-002    -1.1244357078704264E-023
  -8.5899999999999990E-002     7.5621547438025067E-024
  -8.4799999999999986E-002     3.8791159007968534E-023
  -8.3699999999999997E-002     7.0802459276902324E-024
  -8.2599999999999993E-002    -9.9121287819670190E-023
  -8.1499999999999989E-002    -9.3908829434993557E-023
  -8.0399999999999999E-002     1.6725464253464446E-022
  -7.9299999999999995E-002     3.3376313624892020E-022
  -7.8199999999999992E-002    -1.3471221168455623E-022
  -7.7100000000000002E-002    -7.7046118530150035E-022
  -7.5999999999999984E-002    -1.3724085798458787E-022
  -7.4899999999999994E-002     1.5122238885500989E-021
  -7.3799999999999991E-002     9.2447238047219654E-022
  -7.2699999999999987E-002    -3.0605325215808650E-021
  -7.1599999999999997E-002    -3.8644601904641678E-021
  -7.0499999999999993E-002     5.0086921040047385E-021
  -6.9399999999999989E-002     1.3157948271390373E-020
  -6.8300000000000000E-002    -6.3023720878305216E-022
  -6.7199999999999996E-002    -2.9442792739008911E-020
  -6.6099999999999992E-002    -2.4788625479562355E-020
  -6.5000000000000002E-002     3.5229418724654578E-020
  -6.3899999999999985E-002     7.4170965544505722E-020
  -6.2799999999999995E-002    -1.9725767585719598E-021
  -6.1699999999999991E-002    -1.1983210437690858E-019
  -6.0599999999999994E-002    -6.7404964175945805E-020
  -5.9499999999999990E-002     1.5570139577298694E-019
  -5.8399999999999994E-002     1.7527884801695058E-019
  -5.7299999999999990E-002    -2.2764499011008611E-019
  -5.6199999999999986E-002    -4.9464237407934652E-019
  -5.5099999999999996E-002     1.4487183087116907E-019
  -5.3999999999999992E-002     1.1741776062426178E-018
  -5.2899999999999989E-002     7.8315542371475303E-019
  -5.1799999999999985E-002    -1.4747772121934960E-018
  -5.0699999999999995E-002    -2.7673527984260085E-018
  -4.9599999999999991E-002    -1.2244617605833515E-019
  -4.8499999999999988E-002     4.1183519445279882E-018
  -4.7399999999999998E-002     3.5006601987779964E-018
  -4.6299999999999994E-002    -3.0219788433045317E-018
  -4.5199999999999990E-002    -6.4421533345053528E-018
  -4.4099999999999986E-002     6.6818977797785876E-019
  -4.2999999999999997E-002     9.3955963349519565E-018
  -4.1899999999999993E-002     2.9375270114853178E-018
  -4.0799999999999989E-002    -1.5048134223652459E-017
  -3.9699999999999985E-002    -1.5278623138256684E-017
  -3.8599999999999995E-002     1.5953023491671168E-017
  -3.7499999999999992E-002     4.0582149213786481E-017
  -3.6399999999999988E-002     8.1810420784566707E-018
  -3.5299999999999984E-002    -5.9321562031705799E-017
  -3.4199999999999994E-002    -6.6168923437750360E-017
  -3.3099999999999991E-002     3.0272186602537795E-017
  -3.1999999999999987E-002     1.2268947986178420E-016
  -3.0899999999999997E-002     6.5905595452827779E-017
  -2.9799999999999993E-002    -1.0320169358263100E-016
  -2.8699999999999989E-002    -1.6215474334272198E-016
  -2.7599999999999986E-002    -6.7920508370128601E-019
  -2.6499999999999996E-002     1.6911945851663066E-016
  -2.5399999999999992E-002     7.0319318704847427E-017
  -2.4299999999999988E-002    -1.8748902233906527E-016
  -2.3199999999999985E-002    -1.6164981906192981E-016
  -2.2099999999999995E-002     2.7198807624508861E-016
  -2.0999999999999991E-002     5.5430492518855536E-016
  -1.9899999999999987E-002     9.0517454606836659E-017
  -1.8799999999999983E-002    -7.8513511466118588E-016
  -1.7699999999999994E-002    -9.7994501629359047E-016
  -1.6599999999999990E-002    -4.5194756463565929E-017
  -1.5499999999999986E-002     1.0111626273228845E-015
  -1.4399999999999996E-002     8.9487760327995949E-016
  -1.3299999999999992E-002    -1.5432710011890817E-016
  -1.2199999999999989E-002    -5.3301845782846276E-016
  -1.1099999999999985E-002     4.2854361416910444E-016
  -9.9999999999999950E-003     1.1795826351484301E-015
  -8.8999999999999913E-003    -8.5421737483379291E-017
  -7.7999999999999875E-003    -2.5303307236626939E-015
  -6.6999999999999837E-003    -3.1041032188362317E-015
  -5.5999999999999939E-003    -3.7227182735121225E-016
  -4.4999999999999901E-003     3.1982829064173060E-015
  -3.3999999999999864E-003     3.9518872725565098E-015
  -2.2999999999999826E-003     1.4796227750104663E-015
  -1.1999999999999927E-003    -1.1478275817141032E-015
  -9.9999999999988987E-005    -1.6265529216894599E-015
   1.0000000000000148E-003    -1.1457467394000546E-015
   2.1000000000000185E-003    -1.7994289580922735E-015
   3.2000000000000084E-003    -2.7296221178003434E-015
   4.3000000000000121E-003    -1.0008791179476253E-015
   5.4000000000000159E-003     3.7845228795414798E-015
   6.5000000000000058E-003     7.7370022281281203E-015
   7.6000000000000234E-003     6.4879928550953467E-015
   8.7000000000000133E-003    -5.3704853471238032E-016
   9.8000000000000032E-003    -1.0280454974451441E-014
   1.0900000000000021E-002    -1.8457154546598110E-014
   1.2000000000000011E-002    -2.0110340937006324E-014
   1.3100000000000001E-002    -9.9626888702230958E-015
   1.4200000000000018E-002     1.2965771339879754E-014
   1.5300000000000008E-002     3.9893842352853315E-014
   1.6400000000000026E-002     5.4866457514443634E-014
   1.7500000000000016E-002     4.6515698600866837E-014
   1.8600000000000005E-002     1.6272815817823354E-014
   1.9700000000000023E-002    -2.6391108875621801E-014
   2.0800000000000013E-002    -7.2520304648590606E-014
   2.1900000000000003E-002    -1.1166880544170518E-013
   2.3000000000000020E-002    -1.2290818048651259E-013
   2.4100000000000010E-002    -8.0422003962982852E-014
   2.5200000000000000E-002     1.9468286574855775E-014
   2.6300000000000018E-002     1.3892093855480403E-013
   2.7400000000000008E-002     2.1481911572935469E-013
   2.8500000000000025E-002     2.0296898927199547E-013
   2.9600000000000015E-002     1.0812320683966162E-013
   3.0700000000000005E-002    -2.6726503429548402E-014
   3.1800000000000023E-002    -1.4960718753252722E-013
   3.2900000000000013E-002    -2.1340245651320366E-013
   3.4000000000000002E-002    -1.7955886885863415E-013
   3.5100000000000020E-002    -3.2127322720579277E-014
   3.6200000000000010E-002     1.8034032112698023E-013
   3.7300000000000028E-002     3.4181728628124297E-013
   3.8400000000000017E-002     3.1374539468179141E-013
   3.9500000000000007E-002     1.9502738792952397E-014
   4.0600000000000025E-002    -5.1251467262855566E-013
   4.1700000000000015E-002    -1.1313631238449307E-012
   4.2800000000000005E-002    -1.6243410696364924E-012
   4.3900000000000022E-002    -1.7672903071530577E-012
   4.5000000000000012E-002    -1.4448008761602793E-012
   4.6100000000000002E-002    -7.0401985022977565E-013
   4.7200000000000020E-002     2.0497129384414170E-013
   4.8300000000000010E-002     8.6550802332399646E-013
   4.9400000000000027E-002     8.8306624382653021E-013
   5.0500000000000017E-002    -3.2776766598161672E-014
   5.1600000000000007E-002    -1.7935332038976348E-012
   5.2700000000000025E-002    -3.9843415025608842E-012
   5.3800000000000014E-002    -5.9438348340434821E-012
   5.4900000000000004E-002    -6.8614098777675103E-012
   5.6000000000000022E-002    -6.7006881813991281E-012
   5.7100000000000012E-002    -5.5246653606066953E-012
   5.8200000000000002E-002    -3.9942988153129910E-012
   5.9300000000000019E-002    -3.1741965826614926E-012
   6.0400000000000009E-002    -3.9416391157953701E-012
   6.1500000000000027E-002    -7.0834779014594673E-012
   6.2600000000000017E-002    -1.2705341119467750E-011
   6.3700000000000007E-002    -1.9838467674171412E-011
   6.4800000000000024E-002    -2.6803963562582744E-011
   6.5900000000000014E-002    -3.1904815595007463E-011
   6.7000000000000004E-002    -3.3726826886848471E-011
   6.8100000000000022E-002    -3.2989767168034589E-011
   6.9200000000000012E-002    -2.9944290103056659E-011
   7.0300000000000029E-002    -3.0152727537036128E-011
   7.1400000000000019E-002    -3.3905003804513001E-011
   7.2500000000000009E-002    -4.4208095517639379E-011
   7.3600000000000027E-002    -5.8285751225461979E-011
   7.4700000000000016E-002    -7.8943705739131786E-011
   7.5800000000000006E-002    -1.0013945228593002E-010
   7.6900000000000024E-002    -1.1598678267832341E-010
   7.8000000000000014E-002    -1.2809665828061867E-010
   7.9100000000000004E-002    -1.3572662438399163E-010
   8.0200000000000021E-002    -1.3355913597301594E-010
   8.1300000000000011E-002    -1.3610712557010629E-010
   8.2400000000000029E-002    -1.3499387718773903E-010
   8.3500000000000019E-002    -1.4630283096117580E-010
   8.4600000000000009E-002    -1.7479129255093540E-010
   8.5700000000000026E-002    -2.2571476632204934E-010
   8.6800000000000016E-002    -2.8510441230089612E-010
   8.7900000000000006E-002    -3.2310029651760885E-010
   8.9000000000000024E-002    -3.6092395738762661E-010
   9.0100000000000013E-002    -3.6636241262932856E-010
   9.1200000000000003E-002    -3.7673378305846938E-010
   9.2300000000000021E-002    -3.6569364203486998E-010
   9.3400000000000011E-002    -3.4445260532756095E-010
   9.4500000000000028E-002    -3.3634797724779730E-010
   9.5600000000000018E-002    -3.9307215815576058E-010
   9.6700000000000008E-002    -4.4432760248902525E-010
   9.7800000000000026E-002    -4.9559856218905907E-010
   9.8900000000000016E-002    -5.3767262864212739E-010
  0.10000000000000001         -5.8113514000979194E-010
  0.10110000000000002         -6.1769950265855300E-010
  0.10220000000000001         -5.5942578347512040E-010
  0.10330000000000003         -4.8823239895412485E-010
  0.10440000000000002         -4.5356282618591592E-010
  0.10550000000000001         -3.2701680252600340E-010
  0.10660000000000003         -3.6079386700471616E-010
  0.10770000000000002         -1.8709070404021588E-010
  0.10880000000000001         -1.3314602198555292E-010
  0.10990000000000003         -1.5045491241760800E-010
  0.11100000000000002         -2.0402050882051270E-010
  0.11210000000000001         -1.4032101869343450E-010
  0.11320000000000002         -1.5172982315014849E-010
  0.11430000000000001          2.3365167439726164E-011
  0.11540000000000003          5.0427528819341205E-010
  0.11650000000000002          8.9774704337131084E-010
  0.11760000000000001          7.5804074128882348E-010
  0.11870000000000003          7.9364836924611382E-010
  0.11980000000000002          1.0414431539373936E-009
  0.12090000000000001          7.8985717966162383E-010
  0.12200000000000003          1.1875784799997291E-009
  0.12310000000000001          1.4360682643044242E-009
  0.12420000000000003          1.3670942156096544E-009
  0.12530000000000002          2.0473507333917951E-009
  0.12640000000000001          1.7180984412945577E-009
  0.12750000000000003          1.6835118854530151E-009
  0.12860000000000002          1.5312016099500170E-009
  0.12970000000000001          2.0687724866519375E-009
  0.13080000000000003          2.0945065681843289E-009
  0.13190000000000002          2.8583633238099537E-009
  0.13300000000000001          2.5721027530067886E-009
  0.13410000000000000          2.8439344212927153E-009
  0.13520000000000004          2.9299838111285226E-009
  0.13630000000000003          2.7338773467278088E-009
  0.13740000000000002          1.8532864132225768E-009
  0.13850000000000001          9.6157881657177313E-010
  0.13960000000000000          1.1217020645659659E-009
  0.14070000000000005          1.1104499542113899E-009
  0.14180000000000004          1.6642964784097103E-009
  0.14290000000000003          1.3118525155064731E-009
  0.14400000000000002          1.1616606565567622E-009
  0.14510000000000001          6.1835037090673950E-010
  0.14620000000000000          3.2430777507919117E-010
  0.14730000000000004         -3.0214693594321496E-012
  0.14840000000000003         -3.5604624804008722E-010
  0.14950000000000002         -9.9709351886190234E-010
  0.15060000000000001         -1.3171709278836374E-009
  0.15170000000000000         -1.5080237059095225E-009
  0.15280000000000005         -1.5692629418140314E-009
  0.15390000000000004         -1.7234617066819169E-009
  0.15500000000000003         -2.1864476895672169E-009
  0.15610000000000002         -2.7002888813854042E-009
  0.15720000000000001         -2.9267588352865914E-009
  0.15830000000000000         -3.0627249625325703E-009
  0.15940000000000004         -3.1485867246772159E-009
  0.16050000000000003         -3.2323175247483960E-009
  0.16160000000000002         -3.7529752638931768E-009
  0.16270000000000001         -3.7927407880999908E-009
  0.16380000000000000         -3.5760256977823701E-009
  0.16490000000000005         -3.6018552584948793E-009
  0.16600000000000004         -2.8915645433613690E-009
  0.16710000000000003         -2.7289115411832654E-009
  0.16820000000000002         -3.4771880930151156E-009
  0.16930000000000001         -3.2895495216678228E-009
  0.17040000000000000         -2.5939987935430509E-009
  0.17150000000000004         -1.9320920419119147E-009
  0.17260000000000003         -1.9036940079875109E-010
  0.17370000000000002         -4.9685196928939135E-011
  0.17480000000000001         -1.4143487492290774E-009
  0.17590000000000000         -3.1504339137455872E-009
  0.17700000000000005         -2.3372681567934706E-009
  0.17810000000000004         -5.7383792162468694E-011
  0.17920000000000003          8.2857060101915181E-010
  0.18030000000000002          2.1026527186052135E-009
  0.18140000000000001          1.6262797775112858E-009
  0.18250000000000000          7.0288252995709399E-010
  0.18360000000000004         -4.8286971643385357E-011
  0.18470000000000003          1.5618583093512939E-009
  0.18580000000000002          2.3880410982002331E-009
  0.18690000000000001          2.4393471687034207E-009
  0.18800000000000000          1.7231241988824308E-009
  0.18910000000000005          6.5286825945420901E-010
  0.19020000000000004          1.0365532876477346E-009
  0.19130000000000003          2.3626012257693674E-009
  0.19240000000000002          3.3388547482360309E-009
  0.19350000000000001          3.3286065015403210E-009
  0.19460000000000005          2.0061390326731043E-009
  0.19570000000000004          6.7317856844439916E-010
  0.19680000000000003          3.4620434297139013E-010
  0.19790000000000002          1.5249470575184887E-009
  0.19900000000000001          2.8056577061619237E-009
  0.20010000000000000          3.0094693403981410E-009
  0.20120000000000005          1.9457202515837935E-009
  0.20230000000000004          5.9584259748390878E-010
  0.20340000000000003          1.5971296507544253E-010
  0.20450000000000002          7.2931888306371206E-010
  0.20560000000000000          1.6509146272269959E-009
  0.20670000000000005          1.8056116601883332E-009
  0.20780000000000004          8.9318941132177088E-010
  0.20890000000000003         -3.6366273881149880E-010
