 -0.12000000000000000          0.0000000000000000
 -0.11889999999999999          0.0000000000000000
 -0.11780000000000000          0.0000000000000000
 -0.11670000000000000          0.0000000000000000
 -0.11559999999999999          0.0000000000000000
 -0.11449999999999999          0.0000000000000000
 -0.11340000000000000          0.0000000000000000
 -0.11230000000000000          0.0000000000000000
 -0.11119999999999999          0.0000000000000000
 -0.11009999999999999          0.0000000000000000
 -0.10900000000000000          0.0000000000000000
 -0.10790000000000000          0.0000000000000000
 -0.10679999999999999          0.0000000000000000
 -0.10569999999999999          0.0000000000000000
 -0.10460000000000000          0.0000000000000000
 -0.10349999999999999          0.0000000000000000
 -0.10239999999999999         -7.7628852066973351E-040
 -0.10130000000000000          1.2037619039640334E-038
 -0.10020000000000000         -5.2273270001614526E-038
  -9.9099999999999994E-002    -1.2016727361095409E-037
  -9.7999999999999990E-002     1.4416764872107667E-036
  -9.6899999999999986E-002    -5.6586086642662788E-037
  -9.5799999999999996E-002    -2.0509660100064119E-035
  -9.4699999999999993E-002     2.4620668910928458E-035
  -9.3599999999999989E-002     2.2016182671436023E-034
  -9.2499999999999999E-002    -3.1638983761246220E-034
  -9.1399999999999995E-002    -2.0285770498369151E-033
  -9.0299999999999991E-002     2.5908949763619110E-033
  -8.9200000000000002E-002     1.6717771924167122E-032
  -8.8099999999999984E-002    -1.4096972004178307E-032
  -8.6999999999999994E-002    -1.2283499841092713E-031
  -8.5899999999999990E-002     3.2413119433140157E-032
  -8.4799999999999986E-002     7.8670655321437278E-031
  -8.3699999999999997E-002     3.0523690351587480E-031
  -8.2599999999999993E-002    -4.2466258744924763E-030
  -8.1499999999999989E-002    -4.8053264904552533E-030
  -8.0399999999999999E-002     1.8242324173800831E-029
  -7.9299999999999995E-002     3.9089005170492530E-029
  -7.8199999999999992E-002    -5.3446524016407716E-029
  -7.7100000000000002E-002    -2.2873528466458611E-028
  -7.5999999999999984E-002     2.4204786614504970E-029
  -7.4899999999999994E-002     1.0079725105464893E-027
  -7.3799999999999991E-002     8.9808539978506736E-028
  -7.2699999999999987E-002    -3.1538502990410557E-027
  -7.1599999999999997E-002    -6.7883206527498237E-027
  -7.0499999999999993E-002     4.7750039482519503E-027
  -6.9399999999999989E-002     3.0179950852081834E-026
  -6.8300000000000000E-002     1.6038797909466910E-026
  -6.7199999999999996E-002    -8.7276704769895498E-026
  -6.6099999999999992E-002    -1.5318638469073289E-025
  -6.5000000000000002E-002     1.1245203575759372E-025
  -6.3899999999999985E-002     6.2342208086180589E-025
  -6.2799999999999995E-002     3.8030962053992020E-025
  -6.1699999999999991E-002    -1.4533805684849562E-024
  -6.0599999999999994E-002    -2.8792358078344883E-024
  -5.9499999999999990E-002     7.3283772936544572E-025
  -5.8399999999999994E-002     9.0653007997085568E-024
  -5.7299999999999990E-002     9.1766390501496399E-024
  -5.6199999999999986E-002    -1.3046604479990292E-023
  -5.5099999999999996E-002    -4.0613661201857017E-023
  -5.3999999999999992E-002    -1.7967873794166313E-023
  -5.2899999999999989E-002     7.9035690104167293E-023
  -5.1799999999999985E-002     1.4618989804180676E-022
  -5.0699999999999995E-002     1.4285530450377748E-024
  -4.9599999999999991E-002    -3.3984806848388403E-022
  -4.8499999999999988E-002    -4.5569901982138934E-022
  -4.7399999999999998E-002     1.4392962853261855E-022
  -4.6299999999999994E-002     1.1893594021322226E-021
  -4.5199999999999990E-002     1.3399091008943579E-021
  -4.4099999999999986E-002    -5.9760855859146689E-022
  -4.2999999999999997E-002    -3.6053054739035845E-021
  -4.1899999999999993E-002    -4.0787561107683047E-021
  -4.0799999999999989E-002     1.0823464444800300E-021
  -3.9699999999999985E-002     9.7922246759202626E-021
  -3.8599999999999995E-002     1.3379933982555056E-020
  -3.7499999999999992E-002     2.0967693649349873E-021
  -3.6399999999999988E-002    -2.3854767648558397E-020
  -3.5299999999999984E-002    -4.5041984450384116E-020
  -3.4199999999999994E-002    -2.7373238545189520E-020
  -3.3099999999999991E-002     4.8706585203275828E-020
  -3.1999999999999987E-002     1.4315315635343701E-019
  -3.0899999999999997E-002     1.4252327124167495E-019
  -2.9799999999999993E-002    -5.9845224848504438E-020
  -2.8699999999999989E-002    -3.9918198322857650E-019
  -2.7599999999999986E-002    -5.4727685873307308E-019
  -2.6499999999999996E-002    -1.0872978959279841E-019
  -2.5399999999999992E-002     8.9826137996305160E-019
  -2.4299999999999988E-002     1.6947365311902280E-018
  -2.3199999999999985E-002     1.1032712705442660E-018
  -2.2099999999999995E-002    -1.3130599903193523E-018
  -2.0999999999999991E-002    -4.1931476834665644E-018
  -1.9899999999999987E-002    -4.6717601761540341E-018
  -1.8799999999999983E-002    -4.6956887535163915E-019
  -1.7699999999999994E-002     7.4136409815922378E-018
  -1.6599999999999990E-002     1.3667333207646265E-017
  -1.5499999999999986E-002     1.1010005563652313E-017
  -1.4399999999999996E-002    -4.4063001332025976E-018
  -1.3299999999999992E-002    -2.7288645394732530E-017
  -1.2199999999999989E-002    -4.1693780695384243E-017
  -1.1099999999999985E-002    -2.7849238930749518E-017
  -9.9999999999999950E-003     2.2653965657487717E-017
  -8.8999999999999913E-003     9.0908069144418900E-017
  -7.7999999999999875E-003     1.2812932397239833E-016
  -6.6999999999999837E-003     7.8215095141355998E-017
  -5.5999999999999939E-003    -7.8100884659819576E-017
  -4.4999999999999901E-003    -2.8202303438988792E-016
  -3.3999999999999864E-003    -3.9418073157863876E-016
  -2.2999999999999826E-003    -2.5544681980441261E-016
  -1.1999999999999927E-003     1.9819584966460465E-016
  -9.9999999999988987E-005     8.2038836122811385E-016
   1.0000000000000148E-003     1.2260338160967376E-015
   2.1000000000000185E-003     9.3140928726209021E-016
   3.2000000000000084E-003    -3.2856442434707792E-016
   4.3000000000000121E-003    -2.2346488859516364E-015
   5.4000000000000159E-003    -3.7320915401064386E-015
   6.5000000000000058E-003    -3.3638287196945810E-015
   7.6000000000000234E-003    -1.4157901603471454E-016
   8.7000000000000133E-003     5.3883793416510239E-015
   9.8000000000000032E-003     1.0584992118109569E-014
   1.0900000000000021E-002     1.1377679431468033E-014
   1.2000000000000011E-002     4.3759750699065830E-015
   1.3100000000000001E-002    -1.0276205410155066E-014
   1.4200000000000018E-002    -2.6907175557197745E-014
   1.5300000000000008E-002    -3.5058141421373881E-014
   1.6400000000000026E-002    -2.3954411926805676E-014
   1.7500000000000016E-002     1.0305092621788227E-014
   1.8600000000000005E-002     5.8214467046815294E-014
   1.9700000000000023E-002     9.5679547455502362E-014
   2.0800000000000013E-002     9.1814292171692180E-014
   2.1900000000000003E-002     2.5410947760047542E-014
   2.3000000000000020E-002    -9.5925864636563912E-014
   2.4100000000000010E-002    -2.2482261549400945E-013
   2.5200000000000000E-002    -2.8272149161720495E-013
   2.6300000000000018E-002    -1.9297147972434370E-013
   2.7400000000000008E-002     6.9551135684076115E-014
   2.8500000000000025E-002     4.3491162819535301E-013
   2.9600000000000015E-002     7.3104803460788403E-013
   3.0700000000000005E-002     7.3607618481311143E-013
   3.1800000000000023E-002     2.8770315665428703E-013
   3.2900000000000013E-002    -5.8783143283558381E-013
   3.4000000000000002E-002    -1.5938621950040144E-012
   3.5100000000000020E-002    -2.1983758129867637E-012
   3.6200000000000010E-002    -1.8216112212393609E-012
   3.7300000000000028E-002    -1.4305500143849126E-013
   3.8400000000000017E-002     2.5855563350052346E-012
   3.9500000000000007E-002     5.3884119388669660E-012
   4.0600000000000025E-002     6.7307097395552518E-012
   4.1700000000000015E-002     5.0587953964731369E-012
   4.2800000000000005E-002    -3.9369080369854037E-013
   4.3900000000000022E-002    -8.8233647818625194E-012
   4.5000000000000012E-002    -1.7495435655767722E-011
   4.6100000000000002E-002    -2.2156977641518694E-011
   4.7200000000000020E-002    -1.8351993535947742E-011
   4.8300000000000010E-002    -3.3971742519761650E-012
   4.9400000000000027E-002     2.1605680786129788E-011
   5.0500000000000017E-002     5.0578784216437356E-011
   5.1600000000000007E-002     7.2895800506955766E-011
   5.2700000000000025E-002     7.5821814105037078E-011
   5.3800000000000014E-002     4.8689805659529739E-011
   5.4900000000000004E-002    -1.2193017429051878E-011
   5.6000000000000022E-002    -9.9452411583822453E-011
   5.7100000000000012E-002    -1.9302408282850791E-010
   5.8200000000000002E-002    -2.6222651827723098E-010
   5.9300000000000019E-002    -2.7184574036276388E-010
   6.0400000000000009E-002    -1.9138356177617055E-010
   6.1500000000000027E-002    -5.5579096013003149E-012
   6.2600000000000017E-002     2.7648894285192682E-010
   6.3700000000000007E-002     6.1579275012491053E-010
   6.4800000000000024E-002     9.4383789672747298E-010
   6.5900000000000014E-002     1.1691387857837299E-009
   6.7000000000000004E-002     1.1894151219493665E-009
   6.8100000000000022E-002     9.0723534240666481E-010
   6.9200000000000012E-002     2.4600360637450081E-010
   7.0300000000000029E-002    -8.3733686651044081E-010
   7.1400000000000019E-002    -2.3464317155941217E-009
   7.2500000000000009E-002    -4.2489758378394527E-009
   7.3600000000000027E-002    -6.4904059904336009E-009
   7.4700000000000016E-002    -9.0165492849791917E-009
   7.5800000000000006E-002    -1.1801544630429817E-008
   7.6900000000000024E-002    -1.4875490172983064E-008
   7.8000000000000014E-002    -1.8345845731460031E-008
   7.9100000000000004E-002    -2.2407338207131033E-008
   8.0200000000000021E-002    -2.7337524244330780E-008
   8.1300000000000011E-002    -3.3480645811323484E-008
   8.2400000000000029E-002    -4.1224868851941210E-008
   8.3500000000000019E-002    -5.0980954569013193E-008
   8.4600000000000009E-002    -6.3173935416216409E-008
   8.5700000000000026E-002    -7.8250394608403440E-008
   8.6800000000000016E-002    -9.6705981889044779E-008
   8.7900000000000006E-002    -1.1912573683048322E-007
   8.9000000000000024E-002    -1.4622871447045327E-007
   9.0100000000000013E-002    -1.7890479853122088E-007
   9.1200000000000003E-002    -2.1824007490067743E-007
   9.2300000000000021E-002    -2.6552388021627849E-007
   9.3400000000000011E-002    -3.2224676260739216E-007
   9.4500000000000028E-002    -3.9009398733469425E-007
   9.5600000000000018E-002    -4.7095761601667618E-007
   9.6700000000000008E-002    -5.6695932926231762E-007
   9.7800000000000026E-002    -6.8049797619096353E-007
   9.8900000000000016E-002    -8.1430977161289775E-007
  0.10000000000000001         -9.7151985301024979E-007
  0.10110000000000002         -1.1556946901691845E-006
  0.10220000000000001         -1.3708569213122246E-006
  0.10330000000000003         -1.6215003597608302E-006
  0.10440000000000002         -1.9125827748212032E-006
  0.10550000000000001         -2.2495091798191424E-006
  0.10660000000000003         -2.6381308089185040E-006
  0.10770000000000002         -3.0847502330288989E-006
  0.10880000000000001         -3.5961668345407816E-006
  0.10990000000000003         -4.1796697587415110E-006
  0.11100000000000002         -4.8430629249196500E-006
  0.11210000000000001         -5.5945861276995856E-006
  0.11320000000000002         -6.4429359554196708E-006
  0.11430000000000001         -7.3971268648165278E-006
  0.11540000000000003         -8.4664125097333454E-006
  0.11650000000000002         -9.6601097538950853E-006
  0.11760000000000001         -1.0987495443259832E-005
  0.11870000000000003         -1.2457668162824120E-005
  0.11980000000000002         -1.4079307220526971E-005
  0.12090000000000001         -1.5860427083680406E-005
  0.12200000000000003         -1.7808317352319136E-005
  0.12310000000000001         -1.9929068002966233E-005
  0.12420000000000003         -2.2227415684028529E-005
  0.12530000000000002         -2.4706387193873525E-005
  0.12640000000000001         -2.7366917493054643E-005
  0.12750000000000003         -3.0207746021915227E-005
  0.12860000000000002         -3.3224721846636385E-005
  0.12970000000000001         -3.6410696338862181E-005
  0.13080000000000003         -3.9755050238454714E-005
  0.13190000000000002         -4.3243606342002749E-005
  0.13300000000000001         -4.6857738198013976E-005
  0.13410000000000000         -5.0574297347338870E-005
  0.13520000000000004         -5.4365296819014475E-005
  0.13630000000000003         -5.8198394981445745E-005
  0.13740000000000002         -6.2036080635152757E-005
  0.13850000000000001         -6.5835709392558783E-005
  0.13960000000000000         -6.9549751060549170E-005
  0.14070000000000005         -7.3125695053022355E-005
  0.14180000000000004         -7.6506483310367912E-005
  0.14290000000000003         -7.9631259723100811E-005
  0.14400000000000002         -8.2435086369514465E-005
  0.14510000000000001         -8.4848543338011950E-005
  0.14620000000000000         -8.6801534052938223E-005
  0.14730000000000004         -8.8221502664964646E-005
  0.14840000000000003         -8.9035893324762583E-005
  0.14950000000000002         -8.9172775915358216E-005
  0.15060000000000001         -8.8561551820021123E-005
  0.15170000000000000         -8.7135020294226706E-005
  0.15280000000000005         -8.4830862761009485E-005
  0.15390000000000004         -8.1592785136308521E-005
  0.15500000000000003         -7.7371551014948636E-005
  0.15610000000000002         -7.2126778832171112E-005
  0.15720000000000001         -6.5828375227283686E-005
  0.15830000000000000         -5.8458441344555467E-005
  0.15940000000000004         -5.0012273277388886E-005
  0.16050000000000003         -4.0499689930584282E-005
  0.16160000000000002         -2.9945671485620551E-005
  0.16270000000000001         -1.8389266188023612E-005
  0.16380000000000000         -5.8870268730970565E-006
  0.16490000000000005          7.4863260124402586E-006
  0.16600000000000004          2.1641335479216650E-005
  0.16710000000000003          3.6471508792601526E-005
  0.16820000000000002          5.1855386118404567E-005
  0.16930000000000001          6.7656204919330776E-005
  0.17040000000000000          8.3724742580670863E-005
  0.17150000000000004          9.9899625638499856E-005
  0.17260000000000003          1.1600844300119206E-004
  0.17370000000000002          1.3187256990931928E-004
  0.17480000000000001          1.4730976545251906E-004
  0.17590000000000000          1.6213492199312896E-004
  0.17700000000000005          1.7616237164475024E-004
  0.17810000000000004          1.8920996808446944E-004
  0.17920000000000003          2.0110174955334514E-004
  0.18030000000000002          2.1167143131606281E-004
  0.18140000000000001          2.2076617460697889E-004
  0.18250000000000000          2.2824815823696554E-004
  0.18360000000000004          2.3399665951728821E-004
  0.18470000000000003          2.3791100829839706E-004
  0.18580000000000002          2.3991210036911070E-004
  0.18690000000000001          2.3994513321667910E-004
  0.18800000000000000          2.3798012989573181E-004
  0.18910000000000005          2.3401428188662976E-004
  0.19020000000000004          2.2807066852692515E-004
  0.19130000000000003          2.2019675816409290E-004
  0.19240000000000002          2.1046660549473017E-004
  0.19350000000000001          1.9897830497939140E-004
  0.19460000000000005          1.8585525685921311E-004
  0.19570000000000004          1.7124027363024652E-004
  0.19680000000000003          1.5529780648648739E-004
  0.19790000000000002          1.3820514141116291E-004
  0.19900000000000001          1.2015589163638651E-004
  0.20010000000000000          1.0135264892596751E-004
  0.20120000000000005          8.2005608419422060E-005
  0.20230000000000004          6.2328959756996483E-005
  0.20340000000000003          4.2540326830931008E-005
  0.20450000000000002          2.2850550521980040E-005
  0.20560000000000000          3.4669376418605680E-006
  0.20670000000000005         -1.5413990695378743E-005
  0.20780000000000004         -3.3606826036702842E-005
  0.20890000000000003         -5.0939972425112501E-005
