 -0.12000000000000000          0.0000000000000000
 -0.11889999999999999          0.0000000000000000
 -0.11780000000000000          0.0000000000000000
 -0.11670000000000000          0.0000000000000000
 -0.11559999999999999          0.0000000000000000
 -0.11449999999999999          0.0000000000000000
 -0.11340000000000000          0.0000000000000000
 -0.11230000000000000          0.0000000000000000
 -0.11119999999999999          0.0000000000000000
 -0.11009999999999999          0.0000000000000000
 -0.10900000000000000          0.0000000000000000
 -0.10790000000000000          0.0000000000000000
 -0.10679999999999999          0.0000000000000000
 -0.10569999999999999          0.0000000000000000
 -0.10460000000000000          0.0000000000000000
 -0.10349999999999999          0.0000000000000000
 -0.10239999999999999          1.2766613737139105E-039
 -0.10130000000000000         -1.9186273090470173E-038
 -0.10020000000000000          7.7817567733760903E-038
  -9.9099999999999994E-002     2.3085993109948722E-037
  -9.7999999999999990E-002    -2.3180823573288545E-036
  -9.6899999999999986E-002     1.2028331233418790E-037
  -9.5799999999999996E-002     3.4851315374483975E-035
  -9.4699999999999993E-002    -3.1063063849796524E-035
  -9.3599999999999989E-002    -3.9044591283764420E-034
  -9.2499999999999999E-002     4.4235969229629121E-034
  -9.1399999999999995E-002     3.7066374799639631E-033
  -9.0299999999999991E-002    -3.6974039718382541E-033
  -8.9200000000000002E-002    -3.1138425114051977E-032
  -8.8099999999999984E-002     1.8877047782768151E-032
  -8.6999999999999994E-002     2.3176234699908352E-031
  -8.5899999999999990E-002    -1.5813647791071852E-032
  -8.4799999999999986E-002    -1.4998319560842217E-030
  -8.3699999999999997E-002    -8.3818135679733269E-031
  -8.2599999999999993E-002     8.1725595868037885E-030
  -8.1499999999999989E-002     1.0656436702294698E-029
  -8.0399999999999999E-002    -3.5342779529902161E-029
  -7.9299999999999995E-002    -8.3639911552080804E-029
  -7.8199999999999992E-002     1.0256870938043416E-028
  -7.7100000000000002E-002     4.8924990600726851E-028
  -7.5999999999999984E-002    -1.8458160735255878E-029
  -7.4899999999999994E-002    -2.1878808761341936E-027
  -7.3799999999999991E-002    -2.0646985894841805E-027
  -7.2699999999999987E-002     7.0269926766659785E-027
  -7.1599999999999997E-002     1.5547773596053629E-026
  -7.0499999999999993E-002    -1.1227673915479955E-026
  -6.9399999999999989E-002    -7.1161274878313397E-026
  -6.8300000000000000E-002    -3.5715757602566996E-026
  -6.7199999999999996E-002     2.1690048598604137E-025
  -6.6099999999999992E-002     3.6787559495182661E-025
  -6.5000000000000002E-002    -3.2414883776019962E-025
  -6.3899999999999985E-002    -1.5971682178318531E-024
  -6.2799999999999995E-002    -8.0030027581523485E-025
  -6.1699999999999991E-002     4.1233278310750102E-024
  -6.0599999999999994E-002     7.3580740610391153E-024
  -5.9499999999999990E-002    -3.6587396394282210E-024
  -5.8399999999999994E-002    -2.6110459770255956E-023
  -5.7299999999999990E-002    -2.1189897275451013E-023
  -5.6199999999999986E-002     4.7535912489727774E-023
  -5.5099999999999996E-002     1.1690399860444122E-022
  -5.3999999999999992E-002     1.7467325772585476E-023
  -5.2899999999999989E-002    -2.8513143916385526E-022
  -5.1799999999999985E-002    -4.0361463632635308E-022
  -5.0699999999999995E-002     2.0385918955386708E-022
  -4.9599999999999991E-002     1.2484837318067449E-021
  -4.8499999999999988E-002     1.1123677894730022E-021
  -4.7399999999999998E-002    -1.4838036913810102E-021
  -4.6299999999999994E-002    -4.4647263394037901E-021
  -4.5199999999999990E-002    -2.5258511323416141E-021
  -4.4099999999999986E-002     6.3875173668061063E-021
  -4.2999999999999997E-002     1.3827070340079716E-020
  -4.1899999999999993E-002     5.2616272139966186E-021
  -4.0799999999999989E-002    -2.0818927558783555E-020
  -3.9699999999999985E-002    -3.8786783265947033E-020
  -3.8599999999999995E-002    -1.3625520998365208E-020
  -3.7499999999999992E-002     5.3746609600258497E-020
  -3.6399999999999988E-002     1.0212788017825370E-019
  -3.5299999999999984E-002     5.2514423911458461E-020
  -3.4199999999999994E-002    -1.0379753131999492E-019
  -3.3099999999999991E-002    -2.5564673405562534E-019
  -3.1999999999999987E-002    -2.2517942319800695E-019
  -3.0899999999999997E-002     9.4254943129035912E-020
  -2.9799999999999993E-002     5.8873251439602831E-019
  -2.8699999999999989E-002     8.5428778651548495E-019
  -2.7599999999999986E-002     3.4697804608368379E-019
  -2.6499999999999996E-002    -1.1131516327684822E-018
  -2.5399999999999992E-002    -2.6784966434352560E-018
  -2.4299999999999988E-002    -2.4453187714547734E-018
  -2.3199999999999985E-002     1.0944713095976206E-018
  -2.2099999999999995E-002     6.6298939686431445E-018
  -2.0999999999999991E-002     9.1416833197614541E-018
  -1.9899999999999987E-002     3.0897530596134515E-018
  -1.8799999999999983E-002    -1.1339915797621125E-017
  -1.7699999999999994E-002    -2.4515193173264709E-017
  -1.6599999999999990E-002    -2.1833055073977841E-017
  -1.5499999999999986E-002     4.4463406379338394E-018
  -1.4399999999999996E-002     4.4554816454470404E-017
  -1.3299999999999992E-002     7.1257315049702959E-017
  -1.2199999999999989E-002     5.3101180368919282E-017
  -1.1099999999999985E-002    -2.4462817751239076E-017
  -9.9999999999999950E-003    -1.3876208885461216E-016
  -8.8999999999999913E-003    -2.2124491317859464E-016
  -7.7999999999999875E-003    -1.7593297830945445E-016
  -6.6999999999999837E-003     6.2253910685761382E-017
  -5.5999999999999939E-003     4.4271386657173805E-016
  -4.4999999999999901E-003     7.4575972931688566E-016
  -3.3999999999999864E-003     6.4074373748335025E-016
  -2.2999999999999826E-003    -1.0890671194529493E-016
  -1.1999999999999927E-003    -1.3684631473313770E-015
  -9.9999999999988987E-005    -2.4684852482936316E-015
   1.0000000000000148E-003    -2.3659131582711617E-015
   2.1000000000000185E-003    -2.2081124554449024E-016
   3.2000000000000084E-003     3.7787469618741527E-015
   4.3000000000000121E-003     7.8174618877878063E-015
   5.4000000000000159E-003     8.7108944528597500E-015
   6.5000000000000058E-003     3.4190370566471954E-015
   7.6000000000000234E-003    -8.5064579688422411E-015
   8.7000000000000133E-003    -2.2798521967862251E-014
   9.8000000000000032E-003    -3.0460927698391579E-014
   1.0900000000000021E-002    -2.1164022818336362E-014
   1.2000000000000011E-002     1.0285394870599828E-014
   1.3100000000000001E-002     5.6970622880694877E-014
   1.4200000000000018E-002     9.6729665022190353E-014
   1.5300000000000008E-002     9.7258667590936765E-014
   1.6400000000000026E-002     3.1205168115298887E-014
   1.7500000000000016E-002    -1.0240782831114070E-013
   1.8600000000000005E-002    -2.6050247571053620E-013
   1.9700000000000023E-002    -3.5581092109118750E-013
   2.0800000000000013E-002    -2.8496481433229470E-013
   2.1900000000000003E-002     1.6266039554245319E-014
   2.3000000000000020E-002     5.0909883947403145E-013
   2.4100000000000010E-002     1.0130900025134837E-012
   2.5200000000000000E-002     1.2298692880080564E-012
   2.6300000000000018E-002     8.4987496640903659E-013
   2.7400000000000008E-002    -2.7420158700032504E-013
   2.8500000000000025E-002    -1.9502158134926395E-012
   2.9600000000000015E-002    -3.5632480039488046E-012
   3.0700000000000005E-002    -4.1808518452812748E-012
   3.1800000000000023E-002    -2.8850728230056522E-012
   3.2900000000000013E-002     7.3310276035506994E-013
   3.4000000000000002E-002     6.0950996853825767E-012
   3.5100000000000020E-002     1.1422337901911828E-011
   3.6200000000000010E-002     1.4019349917071544E-011
   3.7300000000000028E-002     1.1140574573964557E-011
   3.8400000000000017E-002     1.2862208043432077E-012
   3.9500000000000007E-002    -1.4497663486379153E-011
   4.0600000000000025E-002    -3.1919730747453912E-011
   4.1700000000000015E-002    -4.3917307290808338E-011
   4.2800000000000005E-002    -4.2567949165572827E-011
   4.3900000000000022E-002    -2.2160814849847554E-011
   4.5000000000000012E-002     1.7460265872015768E-011
   4.6100000000000002E-002     6.8601443969917852E-011
   4.7200000000000020E-002     1.1579947417628134E-010
   4.8300000000000010E-002     1.3905927798152362E-010
   4.9400000000000027E-002     1.1998894933196169E-010
   5.0500000000000017E-002     4.9327136125709714E-011
   5.1600000000000007E-002    -6.6642392992921629E-011
   5.2700000000000025E-002    -2.0359290642257832E-010
   5.3800000000000014E-002    -3.2268965277637562E-010
   5.4900000000000004E-002    -3.8060998797107004E-010
   5.6000000000000022E-002    -3.4424374462105334E-010
   5.7100000000000012E-002    -2.0606294448555218E-010
   5.8200000000000002E-002     5.1636190982751184E-012
   5.9300000000000019E-002     2.2340373995177742E-010
   6.0400000000000009E-002     3.5714406432241219E-010
   6.1500000000000027E-002     3.1334729255760863E-010
   6.2600000000000017E-002     2.8923759221033407E-011
   6.3700000000000007E-002    -4.9822945769051330E-010
   6.4800000000000024E-002    -1.1879300876316279E-009
   6.5900000000000014E-002    -1.8740990981314098E-009
   6.7000000000000004E-002    -2.3228425849453060E-009
   6.8100000000000022E-002    -2.2705610724926828E-009
   6.9200000000000012E-002    -1.4743254395099825E-009
   7.0300000000000029E-002     2.3803786719511777E-010
   7.1400000000000019E-002     2.9322277939058949E-009
   7.2500000000000009E-002     6.5584324637768532E-009
   7.3600000000000027E-002     1.0974763320348302E-008
   7.4700000000000016E-002     1.6001090230588488E-008
   7.5800000000000006E-002     2.1492539303835656E-008
   7.6900000000000024E-002     2.7415762104965324E-008
   7.8000000000000014E-002     3.3909792307440512E-008
   7.9100000000000004E-002     4.1316827292803282E-008
   8.0200000000000021E-002     5.0177206389889761E-008
   8.1300000000000011E-002     6.1192004352506046E-008
   8.2400000000000029E-002     7.5165992541315063E-008
   8.3500000000000019E-002     9.2952070929186448E-008
   8.4600000000000009E-002     1.1541654743041363E-007
   8.5700000000000026E-002     1.4344109899866453E-007
   8.6800000000000016E-002     1.7796435258787824E-007
   8.7900000000000006E-002     2.2005984590123262E-007
   8.9000000000000024E-002     2.7102848321192141E-007
   9.0100000000000013E-002     3.3248562658627634E-007
   9.1200000000000003E-002     4.0642666476742306E-007
   9.2300000000000021E-002     4.9525755230206414E-007
   9.3400000000000011E-002     6.0180246919117053E-007
   9.4500000000000028E-002     7.2929833550006151E-007
   9.5600000000000018E-002     8.8139779563789489E-007
   9.6700000000000008E-002     1.0621902220009360E-006
   9.7800000000000026E-002     1.2762542382915854E-006
   9.8900000000000016E-002     1.5287431551769259E-006
  0.10000000000000001          1.8254843325848924E-006
  0.10110000000000002          2.1730904791184003E-006
  0.10220000000000001          2.5790320705709746E-006
  0.10330000000000003          3.0516764581989264E-006
  0.10440000000000002          3.6002827528136550E-006
  0.10550000000000001          4.2350047806394286E-006
  0.10660000000000003          4.9668224164634012E-006
  0.10770000000000002          5.8075906963495072E-006
  0.10880000000000001          6.7699925239139702E-006
  0.10990000000000003          7.8675275290152058E-006
  0.11100000000000002          9.1145029728068039E-006
  0.11210000000000001          1.0525994184718002E-005
  0.11320000000000002          1.2117771802877542E-005
  0.11430000000000001          1.3906187632528599E-005
  0.11540000000000003          1.5907962733763270E-005
  0.11650000000000002          1.8139897292712703E-005
  0.11760000000000001          2.0618612325051799E-005
  0.11870000000000003          2.3360284103546292E-005
  0.11980000000000002          2.6380048439023085E-005
  0.12090000000000001          2.9691867894143797E-005
  0.12200000000000003          3.3307955163763836E-005
  0.12310000000000001          3.7238205550238490E-005
  0.12420000000000003          4.1489798604743555E-005
  0.12530000000000002          4.6066445065662265E-005
  0.12640000000000001          5.0967872084584087E-005
  0.12750000000000003          5.6189048336818814E-005
  0.12860000000000002          6.1719940276816487E-005
  0.12970000000000001          6.7544358898885548E-005
  0.13080000000000003          7.3639617767184973E-005
  0.13190000000000002          7.9976089182309806E-005
  0.13300000000000001          8.6516141891479492E-005
  0.13410000000000000          9.3213799118530005E-005
  0.13520000000000004          1.0001441114582121E-004
  0.13630000000000003          1.0685433517210186E-004
  0.13740000000000002          1.1366060061845928E-004
  0.13850000000000001          1.2035121471853927E-004
  0.13960000000000000          1.2683386739809066E-004
  0.14070000000000005          1.3300862337928265E-004
  0.14180000000000004          1.3876653974875808E-004
  0.14290000000000003          1.4399197243619710E-004
  0.14400000000000002          1.4856252528261393E-004
  0.14510000000000001          1.5235051978379488E-004
  0.14620000000000000          1.5522420289926231E-004
  0.14730000000000004          1.5704963880125433E-004
  0.14840000000000003          1.5769294986966997E-004
  0.14950000000000002          1.5702254313509911E-004
  0.15060000000000001          1.5491133672185242E-004
  0.15170000000000000          1.5123846242204309E-004
  0.15280000000000005          1.4589252532459795E-004
  0.15390000000000004          1.3877550372853875E-004
  0.15500000000000003          1.2980298197362572E-004
  0.15610000000000002          1.1890998575836420E-004
  0.15720000000000001          1.0605080751702189E-004
  0.15830000000000000          9.1202251496724784E-005
  0.15940000000000004          7.4366442277096212E-005
  0.16050000000000003          5.5574717407580465E-005
  0.16160000000000002          3.4886459616245702E-005
  0.16270000000000001          1.2390712072374299E-005
  0.16380000000000000         -1.1792242730734870E-005
  0.16490000000000005         -3.7511435948545113E-005
  0.16600000000000004         -6.4585598011035472E-005
  0.16710000000000003         -9.2802336439490318E-005
  0.16820000000000002         -1.2191836867714301E-004
  0.16930000000000001         -1.5166452794801444E-004
  0.17040000000000000         -1.8174950673710555E-004
  0.17150000000000004         -2.1186178491916507E-004
  0.17260000000000003         -2.4167324590962380E-004
  0.17370000000000002         -2.7084289467893541E-004
  0.17480000000000001         -2.9902000096626580E-004
  0.17590000000000000         -3.2585259759798646E-004
  0.17700000000000005         -3.5099219530820847E-004
  0.17810000000000004         -3.7409950164146721E-004
  0.17920000000000003         -3.9485012530349195E-004
  0.18030000000000002         -4.1293862159363925E-004
  0.18140000000000001         -4.2808358557522297E-004
  0.18250000000000000         -4.4003454968333244E-004
  0.18360000000000004         -4.4857745524495840E-004
  0.18470000000000003         -4.5353962923400104E-004
  0.18580000000000002         -4.5479193795472383E-004
  0.18690000000000001         -4.5225009671412408E-004
  0.18800000000000000         -4.4587670709006488E-004
  0.18910000000000005         -4.3568594264797866E-004
  0.19020000000000004         -4.2174165719188750E-004
  0.19130000000000003         -4.0416035335510969E-004
  0.19240000000000002         -3.8310451782308519E-004
  0.19350000000000001         -3.5878460039384663E-004
  0.19460000000000005         -3.3145467750728130E-004
  0.19570000000000004         -3.0140642775222659E-004
  0.19680000000000003         -2.6896753115579486E-004
  0.19790000000000002         -2.3449676518794149E-004
  0.19900000000000001         -1.9837752915918827E-004
  0.20010000000000000         -1.6101033543236554E-004
  0.20120000000000005         -1.2280802184250206E-004
  0.20230000000000004         -8.4187580796424299E-005
  0.20340000000000003         -4.5564429456135258E-005
  0.20450000000000002         -7.3485207394696772E-006
  0.20560000000000000          3.0063380108913407E-005
  0.20670000000000005          6.6293381678406149E-005
  0.20780000000000004          1.0098858183482662E-004
  0.20890000000000003          1.3382828910835087E-004
