 -0.12000000000000000          0.0000000000000000
 -0.11889999999999999          0.0000000000000000
 -0.11780000000000000          0.0000000000000000
 -0.11670000000000000          1.2546763107634806E-011
 -0.11559999999999999          1.3697700959602876E-011
 -0.11449999999999999         -3.8519899075994957E-011
 -0.11340000000000000         -6.0436960991339106E-011
 -0.11230000000000000          8.1728193657149006E-011
 -0.11119999999999999          2.1664800509135773E-010
 -0.11009999999999999         -3.4040627955311820E-011
 -0.10900000000000000         -4.8208026459661824E-010
 -0.10790000000000000         -2.7206722985617660E-010
 -0.10679999999999999          7.1667305423517291E-010
 -0.10569999999999999          1.0246067327912556E-009
 -0.10460000000000000         -4.2161399371742903E-010
 -0.10349999999999999         -1.8818457903080343E-009
 -0.10239999999999999         -6.0493299258723709E-010
 -0.10130000000000000          2.4258621778017186E-009
 -0.10020000000000000          2.5024646799209904E-009
  -9.9099999999999994E-002    -1.8537322787892663E-009
  -9.7999999999999990E-002    -4.8300927701916407E-009
  -9.6899999999999986E-002    -6.5602101528838830E-010
  -9.5799999999999996E-002     6.4043961245374703E-009
  -9.4699999999999993E-002     5.8165943173094092E-009
  -9.3599999999999989E-002    -3.7803489227883347E-009
  -9.2499999999999999E-002    -9.8755199573474783E-009
  -9.1399999999999995E-002    -2.5646873513807122E-009
  -9.0299999999999991E-002     9.5434860014620426E-009
  -8.9200000000000002E-002     9.3253911259694178E-009
  -8.8099999999999984E-002    -4.2171008907132546E-009
  -8.6999999999999994E-002    -1.2694500561849509E-008
  -8.5899999999999990E-002    -3.9121981210143986E-009
  -8.4799999999999986E-002     9.9854498003537628E-009
  -8.3699999999999997E-002     9.7388017650246184E-009
  -8.2599999999999993E-002    -2.9504250154133160E-009
  -8.1499999999999989E-002    -8.7991169905876632E-009
  -8.0399999999999999E-002    -8.1162376819321480E-010
  -7.9299999999999995E-002     5.8461289142996975E-009
  -7.8199999999999992E-002    -3.1175370618363729E-010
  -7.7100000000000002E-002    -7.3375461262514818E-009
  -7.5999999999999984E-002     2.9361114234349728E-012
  -7.4899999999999994E-002     1.1606531735708359E-008
  -7.3799999999999991E-002     4.7741703923520618E-009
  -7.2699999999999987E-002    -1.6707506489410662E-008
  -7.1599999999999997E-002    -2.0919909360372912E-008
  -7.0499999999999993E-002     5.0182911159879495E-009
  -6.9399999999999989E-002     2.8315179534388335E-008
  -6.8300000000000000E-002     1.2550592565219176E-008
  -6.7199999999999996E-002    -2.6887068571568307E-008
  -6.6099999999999992E-002    -3.8678017233451101E-008
  -6.5000000000000002E-002    -6.8549805831707999E-009
  -6.3899999999999985E-002     2.4598538317377461E-008
  -6.2799999999999995E-002     1.2649672420650404E-008
  -6.1699999999999991E-002    -2.5247350876611563E-008
  -6.0599999999999994E-002    -3.9289304254452873E-008
  -5.9499999999999990E-002    -1.9404540196887865E-008
  -5.8399999999999994E-002    -3.7851615175554798E-009
  -5.7299999999999990E-002    -1.5914070061739949E-008
  -5.6199999999999986E-002    -3.1370063879876398E-008
  -5.5099999999999996E-002    -2.4950928434464004E-008
  -5.3999999999999992E-002    -1.7680585884249922E-008
  -5.2899999999999989E-002    -4.2269284961093945E-008
  -5.1799999999999985E-002    -8.0350289977104694E-008
  -5.0699999999999995E-002    -7.9858999413318088E-008
  -4.9599999999999991E-002    -3.7854572809692399E-008
  -4.8499999999999988E-002    -1.9368410875131303E-008
  -4.7399999999999998E-002    -6.9017112025449023E-008
  -4.6299999999999994E-002    -1.3942089083229803E-007
  -4.5199999999999990E-002    -1.5015965004749887E-007
  -4.4099999999999986E-002    -1.0031222785755745E-007
  -4.2999999999999997E-002    -7.1648656785328058E-008
  -4.1899999999999993E-002    -1.1474275396494704E-007
  -4.0799999999999989E-002    -1.8235064658256306E-007
  -3.9699999999999985E-002    -2.0376380405195960E-007
  -3.8599999999999995E-002    -1.8462780815298174E-007
  -3.7499999999999992E-002    -1.8543566682183155E-007
  -3.6399999999999988E-002    -2.2216505612959736E-007
  -3.5299999999999984E-002    -2.4793467900963151E-007
  -3.4199999999999994E-002    -2.3927677261781355E-007
  -3.3099999999999991E-002    -2.4132992848535650E-007
  -3.1999999999999987E-002    -2.9321847705432447E-007
  -3.0899999999999997E-002    -3.5212940474593779E-007
  -2.9799999999999993E-002    -3.4677808002925303E-007
  -2.8699999999999989E-002    -2.9073592600070697E-007
  -2.7599999999999986E-002    -2.7549214109967579E-007
  -2.6499999999999996E-002    -3.4193556075479137E-007
  -2.5399999999999992E-002    -4.1471568579254381E-007
  -2.4299999999999988E-002    -4.0556636804467416E-007
  -2.3199999999999985E-002    -3.3646080055405037E-007
  -2.2099999999999995E-002    -3.0308575560411555E-007
  -2.0999999999999991E-002    -3.3707641478031292E-007
  -1.9899999999999987E-002    -3.6641472433984745E-007
  -1.8799999999999983E-002    -3.3328356607853493E-007
  -1.7699999999999994E-002    -2.7538712288333045E-007
  -1.6599999999999990E-002    -2.5737406872394786E-007
  -1.5499999999999986E-002    -2.6167643341068469E-007
  -1.4399999999999996E-002    -2.1713104558784835E-007
  -1.3299999999999992E-002    -1.2131165760820295E-007
  -1.2199999999999989E-002    -5.2989097554245745E-008
  -1.1099999999999985E-002    -5.1781647414372856E-008
  -9.9999999999999950E-003    -4.7722195972710324E-008
  -8.8999999999999913E-003     4.0748510343746602E-008
  -7.7999999999999875E-003     1.8306967319858813E-007
  -6.6999999999999837E-003     2.7559363502405176E-007
  -5.5999999999999939E-003     2.9155168590477842E-007
  -4.4999999999999901E-003     3.1554262136523903E-007
  -3.3999999999999864E-003     4.1604567968533956E-007
  -2.2999999999999826E-003     5.4923930292716250E-007
  -1.1999999999999927E-003     6.2646608967042994E-007
  -9.9999999999988987E-005     6.5484482547617517E-007
   1.0000000000000148E-003     7.1177146310219541E-007
   2.1000000000000185E-003     8.1832894238687004E-007
   3.2000000000000084E-003     9.0274625108577311E-007
   4.3000000000000121E-003     9.1852604100495228E-007
   5.4000000000000159E-003     9.2000868789909873E-007
   6.5000000000000058E-003     9.7765496320789680E-007
   7.6000000000000234E-003     1.0665291938494192E-006
   8.7000000000000133E-003     1.0926570439551142E-006
   9.8000000000000032E-003     1.0413089057692559E-006
   1.0900000000000021E-002     9.9427529676177073E-007
   1.2000000000000011E-002     1.0119969147126540E-006
   1.3100000000000001E-002     1.0403574606243637E-006
   1.4200000000000018E-002     9.9666397090913961E-007
   1.5300000000000008E-002     8.9186977447752724E-007
   1.6400000000000026E-002     8.0811855696083512E-007
   1.7500000000000016E-002     7.7285329780352185E-007
   1.8600000000000005E-002     7.2287434704776388E-007
   1.9700000000000023E-002     6.0794070577685488E-007
   2.0800000000000013E-002     4.7028484573274909E-007
   2.1900000000000003E-002     3.7585209611279424E-007
   2.3000000000000020E-002     3.1201747674458602E-007
   2.4100000000000010E-002     2.1036854036537989E-007
   2.5200000000000000E-002     5.7986678569932337E-008
   2.6300000000000018E-002    -8.0619543041393626E-008
   2.7400000000000008E-002    -1.6280165482385200E-007
   2.8500000000000025E-002    -2.2989939907347434E-007
   2.9600000000000015E-002    -3.4180698094132822E-007
   3.0700000000000005E-002    -4.8081091108542751E-007
   3.1800000000000023E-002    -5.7864531299856026E-007
   3.2900000000000013E-002    -6.1779041971021798E-007
   3.4000000000000002E-002    -6.5952099248534068E-007
   3.5100000000000020E-002    -7.4053599519174895E-007
   3.6200000000000010E-002    -8.2357178143865895E-007
   3.7300000000000028E-002    -8.5397681459653541E-007
   3.8400000000000017E-002    -8.4436288716460695E-007
   3.9500000000000007E-002    -8.4755214402321144E-007
   4.0600000000000025E-002    -8.7256267988777836E-007
   4.1700000000000015E-002    -8.7766306933190208E-007
   4.2800000000000005E-002    -8.3970792275067652E-007
   4.3900000000000022E-002    -7.9203056202459265E-007
   4.5000000000000012E-002    -7.6883026167706703E-007
   4.6100000000000002E-002    -7.4401407346158521E-007
   4.7200000000000020E-002    -6.8322748347782181E-007
   4.8300000000000010E-002    -5.9506180605239933E-007
   4.9400000000000027E-002    -5.2978566600359045E-007
   5.0500000000000017E-002    -4.8687439857530990E-007
   5.1600000000000007E-002    -4.3480912381710368E-007
   5.2700000000000025E-002    -3.5161389178028912E-007
   5.3800000000000014E-002    -2.6374647177362931E-007
   5.4900000000000004E-002    -2.0250917032171856E-007
   5.6000000000000022E-002    -1.5818321230653964E-007
   5.7100000000000012E-002    -9.8373412527053006E-008
   5.8200000000000002E-002    -2.2555235901222659E-008
   5.9300000000000019E-002     3.4689406902543851E-008
   6.0400000000000009E-002     6.3609711276058079E-008
   6.1500000000000027E-002     9.1511878963501658E-008
   6.2600000000000017E-002     1.4347983778861817E-007
   6.3700000000000007E-002     1.9628947711680667E-007
   6.4800000000000024E-002     2.1478406608821388E-007
   6.5900000000000014E-002     2.0988700555335527E-007
   6.7000000000000004E-002     2.1823579743340815E-007
   6.8100000000000022E-002     2.4401180098720943E-007
   6.9200000000000012E-002     2.5579288376320619E-007
   7.0300000000000029E-002     2.4168500090127054E-007
   7.1400000000000019E-002     2.3091735101843369E-007
   7.2500000000000009E-002     2.4206613602473226E-007
   7.3600000000000027E-002     2.4645481744300923E-007
   7.4700000000000016E-002     2.1238588487904053E-007
   7.5800000000000006E-002     1.6378091061142186E-007
   7.6900000000000024E-002     1.5170088829563610E-007
   7.8000000000000014E-002     1.7575410993231344E-007
   7.9100000000000004E-002     1.7830454623890546E-007
   8.0200000000000021E-002     1.3097401563300082E-007
   8.1300000000000011E-002     7.7104502338443126E-008
   8.2400000000000029E-002     6.6240126272987254E-008
   8.3500000000000019E-002     8.1157750742022472E-008
   8.4600000000000009E-002     7.0165974364044814E-008
   8.5700000000000026E-002     3.1500064778811065E-008
   8.6800000000000016E-002     1.4192720776406986E-008
   8.7900000000000006E-002     3.0461052347163786E-008
   8.9000000000000024E-002     3.1745564399443538E-008
   9.0100000000000013E-002    -1.2082139733138320E-008
   9.1200000000000003E-002    -5.5254730568776722E-008
   9.2300000000000021E-002    -3.8415691960835829E-008
   9.3400000000000011E-002     1.2457412879030016E-008
   9.4500000000000028E-002     1.5394155283843247E-008
   9.5600000000000018E-002    -4.3873367161495480E-008
   9.6700000000000008E-002    -8.7520774627591891E-008
   9.7800000000000026E-002    -5.8482399367676408E-008
   9.8900000000000016E-002    -5.2647570747410555E-009
  0.10000000000000001         -6.0278320113127393E-009
  0.10110000000000002         -5.0870138323944047E-008
  0.10220000000000001         -6.2061737082785839E-008
  0.10330000000000003         -2.0848458959221716E-008
  0.10440000000000002          2.8294770970660466E-009
  0.10550000000000001         -3.5058338454518889E-008
  0.10660000000000003         -7.5887946593411471E-008
  0.10770000000000002         -4.5951882299277713E-008
  0.10880000000000001          2.1348137480003970E-008
  0.10990000000000003          2.8762313419861130E-008
  0.11100000000000002         -3.6030918693086278E-008
  0.11210000000000001         -7.6185244779480854E-008
  0.11320000000000002         -2.9941400470079316E-008
  0.11430000000000001          3.5539848397547757E-008
  0.11540000000000003          2.6192468638441824E-008
  0.11650000000000002         -3.6041281958887339E-008
  0.11760000000000001         -5.0285823505191729E-008
  0.11870000000000003          5.3580415659837399E-009
  0.11980000000000002          3.9916134397799397E-008
  0.12090000000000001         -4.0845642423903428E-009
  0.12200000000000003         -5.7340621140156145E-008
  0.12310000000000001         -2.9379643606830541E-008
  0.12420000000000003          4.5941035864416335E-008
  0.12530000000000002          5.6529891878653871E-008
  0.12640000000000001         -1.6399125613020260E-008
  0.12750000000000003         -6.5376354996260488E-008
  0.12860000000000002         -1.7847602507004012E-008
  0.12970000000000001          5.3553208090306725E-008
  0.13080000000000003          4.2945764278101706E-008
  0.13190000000000002         -2.8405013452470484E-008
  0.13300000000000001         -4.8365151883444923E-008
  0.13410000000000000          1.0921377580075387E-008
  0.13520000000000004          5.1410083301561826E-008
  0.13630000000000003          5.7715934254076728E-009
  0.13740000000000002         -5.4456492648569110E-008
  0.13850000000000001         -2.9329909168041013E-008
  0.13960000000000000          5.0022421760331781E-008
  0.14070000000000005          6.3728123222972499E-008
  0.14180000000000004         -1.2970004625856291E-008
  0.14290000000000003         -6.8649050888325291E-008
  0.14400000000000002         -2.2608620753317155E-008
  0.14510000000000001          5.3462365201539797E-008
  0.14620000000000000          4.5894744005181565E-008
  0.14730000000000004         -2.9361212128264924E-008
  0.14840000000000003         -5.5367678442053148E-008
  0.14950000000000002          3.9699652454316947E-009
  0.15060000000000001          5.2024834218400429E-008
  0.15170000000000000          1.3262835274474583E-008
  0.15280000000000005         -4.8207148495293950E-008
  0.15390000000000004         -3.0472513401491597E-008
  0.15500000000000003          4.3451709785813364E-008
  0.15610000000000002          5.8041262462893428E-008
  0.15720000000000001         -1.5460379643172928E-008
  0.15830000000000000         -7.0825599607360346E-008
  0.15940000000000004         -2.6028200039718286E-008
  0.16050000000000003          5.2568381647688511E-008
  0.16160000000000002          5.1188408178859390E-008
  0.16270000000000001         -2.1427096541515311E-008
  0.16380000000000000         -5.2433389186035129E-008
  0.16490000000000005          7.4529521443267299E-010
  0.16600000000000004          5.0218702085658151E-008
  0.16710000000000003          1.8295152059977227E-008
  0.16820000000000002         -4.2393217825065221E-008
  0.16930000000000001         -3.4348282440532785E-008
  0.17040000000000000          3.0639281334288171E-008
  0.17150000000000004          4.9779760757928671E-008
  0.17260000000000003         -9.8095007672327483E-009
  0.17370000000000002         -5.8213647236016186E-008
  0.17480000000000001         -2.0416319301830299E-008
  0.17590000000000000          4.8370313976420221E-008
  0.17700000000000005          4.6475708614934774E-008
  0.17810000000000004         -2.0928007771203738E-008
  0.17920000000000003         -5.2567102670764143E-008
  0.18030000000000002         -5.4971724949837153E-009
  0.18140000000000001          4.3926593917831269E-008
  0.18250000000000000          2.1150116324974988E-008
  0.18360000000000004         -3.4126685477531282E-008
  0.18470000000000003         -3.4211893762403633E-008
  0.18580000000000002          1.9715765020578147E-008
  0.18690000000000001          4.2145249068425983E-008
  0.18800000000000000         -2.1108286230031581E-009
  0.18910000000000005         -4.4021117417969435E-008
  0.19020000000000004         -1.8364332277087669E-008
  0.19130000000000003          3.5865497238773969E-008
  0.19240000000000002          3.6453130292102287E-008
  0.19350000000000001         -1.6329758878441680E-008
  0.19460000000000005         -4.2327766180960680E-008
  0.19570000000000004         -4.6616586146797090E-009
  0.19680000000000003          3.6896381061524153E-008
  0.19790000000000002          2.0165845882047506E-008
  0.19900000000000001         -2.5809535841858633E-008
  0.20010000000000000         -2.9250978528239102E-008
  0.20120000000000005          1.3439235502232805E-008
  0.20230000000000004          3.5335556702875692E-008
  0.20340000000000003          3.7400362806749854E-009
  0.20450000000000002         -3.1572252368050613E-008
  0.20560000000000000         -1.7396745377595835E-008
  0.20670000000000005          2.2208801908618625E-008
  0.20780000000000004          2.5972406447749563E-008
  0.20890000000000003         -1.0201061328984906E-008
