 -0.12000000000000000          0.0000000000000000
 -0.11889999999999999          0.0000000000000000
 -0.11780000000000000          0.0000000000000000
 -0.11670000000000000          0.0000000000000000
 -0.11559999999999999          0.0000000000000000
 -0.11449999999999999          0.0000000000000000
 -0.11340000000000000          0.0000000000000000
 -0.11230000000000000          4.5173342993479524E-021
 -0.11119999999999999         -2.1335524469542795E-021
 -0.11009999999999999         -5.0255102852892041E-020
 -0.10900000000000000          6.3249452732136612E-021
 -0.10790000000000000          3.2296858596705518E-019
 -0.10679999999999999          1.0674420069350169E-019
 -0.10569999999999999         -1.4623041557368089E-018
 -0.10460000000000000         -1.2596240193508501E-018
 -0.10349999999999999          4.7662452952132099E-018
 -0.10239999999999999          7.2483595418561796E-018
 -0.10130000000000000         -1.0592429901184519E-017
 -0.10020000000000000         -2.7792517501785532E-017
  -9.9099999999999994E-002     1.2570506604651976E-017
  -9.7999999999999990E-002     7.9820447569529512E-017
  -9.6899999999999986E-002     1.2145703865172306E-017
  -9.5799999999999996E-002    -1.8955659005864361E-016
  -9.4699999999999993E-002    -1.2843982772201603E-016
  -9.3599999999999989E-002     3.9215253765621794E-016
  -9.2499999999999999E-002     5.3948963072680801E-016
  -9.1399999999999995E-002    -6.0574232439955284E-016
  -9.0299999999999991E-002    -1.6980224912843439E-015
  -8.9200000000000002E-002     1.2997177945135404E-016
  -8.8099999999999984E-002     3.8443708394626797E-015
  -8.6999999999999994E-002     2.7951517629734883E-015
  -8.5899999999999990E-002    -5.4412854430530011E-015
  -8.4799999999999986E-002    -9.5917146973470771E-015
  -8.3699999999999997E-002     2.5228037771351554E-015
  -8.2599999999999993E-002     1.8417171203355918E-014
  -8.1499999999999989E-002     8.2132498908536397E-015
  -8.0399999999999999E-002    -2.5318109560896682E-014
  -7.9299999999999995E-002    -2.8646776248884842E-014
  -7.8199999999999992E-002     2.6885445773968883E-014
  -7.7100000000000002E-002     6.7104409865164499E-014
  -7.5999999999999984E-002    -4.8577809628319851E-015
  -7.4899999999999994E-002    -1.2584723573568629E-013
  -7.3799999999999991E-002    -8.8558683769470598E-014
  -7.2699999999999987E-002     1.4607466711918926E-013
  -7.1599999999999997E-002     2.6607234753124598E-013
  -7.0499999999999993E-002    -1.4646117841741677E-014
  -6.9399999999999989E-002    -4.1285155632717063E-013
  -6.8300000000000000E-002    -2.8991468514066865E-013
  -6.7199999999999996E-002     3.7689369312109144E-013
  -6.6099999999999992E-002     6.6022865343254300E-013
  -6.5000000000000002E-002    -1.0487668540689818E-013
  -6.3899999999999985E-002    -1.0222490172059895E-012
  -6.2799999999999995E-002    -5.2547029227856257E-013
  -6.1699999999999991E-002     1.1612640102992566E-012
  -6.0599999999999994E-002     1.6429093328829136E-012
  -5.9499999999999990E-002    -4.3080087565837422E-013
  -5.8399999999999994E-002    -2.6582705221073200E-012
  -5.7299999999999990E-002    -1.4798744911795336E-012
  -5.6199999999999986E-002     2.3741757258083362E-012
  -5.5099999999999996E-002     3.6569935447927637E-012
  -5.3999999999999992E-002    -3.4668505588010545E-013
  -5.2899999999999989E-002    -4.7691690006901322E-012
  -5.1799999999999985E-002    -2.8353851384832485E-012
  -5.0699999999999995E-002     3.9462556486458134E-012
  -4.9599999999999991E-002     6.1617815884373872E-012
  -4.8499999999999988E-002    -6.3208515027959877E-013
  -4.7399999999999998E-002    -7.9608351161164492E-012
  -4.6299999999999994E-002    -4.8449248085669083E-012
  -4.5199999999999990E-002     5.9953214268104738E-012
  -4.4099999999999986E-002     1.0003482417419995E-011
  -4.2999999999999997E-002     7.0887479913794849E-013
  -4.1899999999999993E-002    -9.9523132790491076E-012
  -4.0799999999999989E-002    -7.5308717595312658E-012
  -3.9699999999999985E-002     4.1721062368771378E-012
  -3.8599999999999995E-002     8.2176687329904574E-012
  -3.7499999999999992E-002    -6.3667154230964695E-013
  -3.6399999999999988E-002    -8.0509418576291125E-012
  -3.5299999999999984E-002    -1.8632578119293086E-012
  -3.4199999999999994E-002     9.1507773580801199E-012
  -3.3099999999999991E-002     8.9036009467968746E-012
  -3.1999999999999987E-002    -8.5883877050038637E-013
  -3.0899999999999997E-002    -4.3735670467170973E-012
  -2.9799999999999993E-002     6.2668381768660186E-013
  -2.8699999999999989E-002    -1.9748141923819906E-012
  -2.7599999999999986E-002    -1.6758339507760844E-011
  -2.6499999999999996E-002    -2.0913309278780545E-011
  -2.5399999999999992E-002     2.9897291239922019E-012
  -2.4299999999999988E-002     3.0760637093063536E-011
  -2.3199999999999985E-002     2.1633680957755530E-011
  -2.2099999999999995E-002    -1.9669084069806608E-011
  -2.0999999999999991E-002    -3.8397233309561685E-011
  -1.9899999999999987E-002    -5.0696907609448782E-012
  -1.8799999999999983E-002     3.2660273791007555E-011
  -1.7699999999999994E-002     9.1828203027666255E-012
  -1.6599999999999990E-002    -5.9783566985771586E-011
  -1.5499999999999986E-002    -8.4287854473785728E-011
  -1.4399999999999996E-002    -1.9608981105534440E-011
  -1.3299999999999992E-002     6.4446149805608144E-011
  -1.2199999999999989E-002     6.8684911924687952E-011
  -1.1099999999999985E-002    -7.3318105059394512E-012
  -9.9999999999999950E-003    -7.1613742713694251E-011
  -8.8999999999999913E-003    -6.8400000940993522E-011
  -7.7999999999999875E-003    -4.3035214281061940E-011
  -6.6999999999999837E-003    -6.0729747619614471E-011
  -5.5999999999999939E-003    -1.0967160513075669E-010
  -4.4999999999999901E-003    -1.3067037729630471E-010
  -3.3999999999999864E-003    -1.1168321822907501E-010
  -2.2999999999999826E-003    -9.1580576455640994E-011
  -1.1999999999999927E-003    -7.9659764895545493E-011
  -9.9999999999988987E-005    -4.8349539649716888E-011
   1.0000000000000148E-003    -2.2994384174523930E-011
   2.1000000000000185E-003    -9.7062871629027825E-011
   3.2000000000000084E-003    -3.0081057089681451E-010
   4.3000000000000121E-003    -4.9762677312159553E-010
   5.4000000000000159E-003    -5.2279341966610104E-010
   6.5000000000000058E-003    -3.9740810642285851E-010
   7.6000000000000234E-003    -3.2854596820897086E-010
   8.7000000000000133E-003    -4.4705467105998764E-010
   9.8000000000000032E-003    -6.1350718949526595E-010
   1.0900000000000021E-002    -6.1500227133137741E-010
   1.2000000000000011E-002    -4.6991549540464916E-010
   1.3100000000000001E-002    -4.5676479265566172E-010
   1.4200000000000018E-002    -7.4797390503533734E-010
   1.5300000000000008E-002    -1.1727622206691990E-009
   1.6400000000000026E-002    -1.4654074620423785E-009
   1.7500000000000016E-002    -1.5425449806372171E-009
   1.8600000000000005E-002    -1.5442510603591586E-009
   1.9700000000000023E-002    -1.5701511202337315E-009
   2.0800000000000013E-002    -1.6008607772732830E-009
   2.1900000000000003E-002    -1.6383762124760892E-009
   2.3000000000000020E-002    -1.7124642814891899E-009
   2.4100000000000010E-002    -1.8671313384288624E-009
   2.5200000000000000E-002    -2.1531458838097706E-009
   2.6300000000000018E-002    -2.3721085096184424E-009
   2.7400000000000008E-002    -2.5473116949115138E-009
   2.8500000000000025E-002    -2.8490376724477073E-009
   2.9600000000000015E-002    -3.2202098765310438E-009
   3.0700000000000005E-002    -3.4963383299668749E-009
   3.1800000000000023E-002    -3.4462148690295180E-009
   3.2900000000000013E-002    -3.0948303919586806E-009
   3.4000000000000002E-002    -2.8462689982688971E-009
   3.5100000000000020E-002    -2.8931987916536173E-009
   3.6200000000000010E-002    -3.0299667219679804E-009
   3.7300000000000028E-002    -2.7886124520648536E-009
   3.8400000000000017E-002    -2.5871780273689637E-009
   3.9500000000000007E-002    -2.6790292206868571E-009
   4.0600000000000025E-002    -2.9953370894730824E-009
   4.1700000000000015E-002    -2.5975139816836190E-009
   4.2800000000000005E-002    -2.0433723602053533E-009
   4.3900000000000022E-002    -1.8092393139212959E-009
   4.5000000000000012E-002    -1.7523552608977866E-009
   4.6100000000000002E-002    -5.8197391350489625E-010
   4.7200000000000020E-002     8.4452095316933651E-010
   4.8300000000000010E-002     1.9647616866791395E-009
   4.9400000000000027E-002     2.0513188925264103E-009
   5.0500000000000017E-002     2.1987101028742018E-009
   5.1600000000000007E-002     3.0114017945948035E-009
   5.2700000000000025E-002     4.4613881478028361E-009
   5.3800000000000014E-002     5.1157988956163081E-009
   5.4900000000000004E-002     6.0475882079913390E-009
   5.6000000000000022E-002     7.3008390444329052E-009
   5.7100000000000012E-002     8.7829921113780074E-009
   5.8200000000000002E-002     9.0888763182306320E-009
   5.9300000000000019E-002     9.7243919583434035E-009
   6.0400000000000009E-002     1.0700490271631224E-008
   6.1500000000000027E-002     1.1150484979793873E-008
   6.2600000000000017E-002     1.2999786136447256E-008
   6.3700000000000007E-002     1.5368806671745006E-008
   6.4800000000000024E-002     1.6368320032711381E-008
   6.5900000000000014E-002     1.4373158663261165E-008
   6.7000000000000004E-002     1.2226696988193453E-008
   6.8100000000000022E-002     1.1940090693940419E-008
   6.9200000000000012E-002     1.4370557188669864E-008
   7.0300000000000029E-002     1.7072373736937152E-008
   7.1400000000000019E-002     1.6148078429978341E-008
   7.2500000000000009E-002     1.0595039512395488E-008
   7.3600000000000027E-002     7.1431460746396169E-009
   7.4700000000000016E-002     8.7447915575467050E-009
   7.5800000000000006E-002     1.3186729930225738E-008
   7.6900000000000024E-002     1.3589288805349042E-008
   7.8000000000000014E-002     8.7029459194809533E-009
   7.9100000000000004E-002     2.5945596782150915E-009
   8.0200000000000021E-002    -9.1444912753146923E-010
   8.1300000000000011E-002    -1.9881458701576094E-009
   8.2400000000000029E-002    -1.9386541261212642E-009
   8.3500000000000019E-002    -1.2277892036394178E-009
   8.4600000000000009E-002    -1.3895351536064027E-009
   8.5700000000000026E-002    -5.1602238038128689E-009
   8.6800000000000016E-002    -1.2948524918954263E-008
   8.7900000000000006E-002    -1.9365863579423603E-008
   8.9000000000000024E-002    -1.8152526592984941E-008
   9.0100000000000013E-002    -1.1290443246991799E-008
   9.1200000000000003E-002    -7.8010504722669793E-009
   9.2300000000000021E-002    -1.3829943412702050E-008
   9.3400000000000011E-002    -2.4219154681759392E-008
   9.4500000000000028E-002    -2.8709598254295088E-008
   9.5600000000000018E-002    -2.4822822908276976E-008
   9.6700000000000008E-002    -1.6825783433205288E-008
   9.7800000000000026E-002    -1.3161971068598177E-008
   9.8900000000000016E-002    -1.6302486471886368E-008
  0.10000000000000001         -2.3235148916000981E-008
  0.10110000000000002         -2.7478760600274654E-008
  0.10220000000000001         -2.6185107415699349E-008
  0.10330000000000003         -1.6988666473594094E-008
  0.10440000000000002         -6.1338738532867865E-009
  0.10550000000000001         -3.6860590135745497E-009
  0.10660000000000003         -1.0120255744539008E-008
  0.10770000000000002         -2.0041106552071142E-008
  0.10880000000000001         -2.2284403655703500E-008
  0.10990000000000003         -1.1350422823852568E-008
  0.11100000000000002          3.5305749435110556E-009
  0.11210000000000001          1.0392283478211084E-008
  0.11320000000000002          4.5222394717825409E-009
  0.11430000000000001         -6.2695533209478072E-009
  0.11540000000000003         -9.1814165159576078E-009
  0.11650000000000002          8.2653334176896465E-010
  0.11760000000000001          1.3165307954920991E-008
  0.11870000000000003          2.0401483169507628E-008
  0.11980000000000002          1.7078951586313451E-008
  0.12090000000000001          6.5615317623723968E-009
  0.12200000000000003         -1.8028902815103720E-009
  0.12310000000000001          3.8738573460150860E-010
  0.12420000000000003          1.2283987160799370E-008
  0.12530000000000002          2.5268722225746387E-008
  0.12640000000000001          2.6159712618323283E-008
  0.12750000000000003          1.4407626203194468E-008
  0.12860000000000002          1.8863910433708497E-009
  0.12970000000000001          2.9369461723716128E-011
  0.13080000000000003          9.7424042166949221E-009
  0.13190000000000002          2.0110913823145893E-008
  0.13300000000000001          2.0726192317965797E-008
  0.13410000000000000          1.1251184872662634E-008
  0.13520000000000004          6.6653055297294372E-010
  0.13630000000000003         -2.8751090397349799E-009
  0.13740000000000002          2.2384594178248562E-009
  0.13850000000000001          1.0901795022277838E-008
  0.13960000000000000          1.5464964420175420E-008
  0.14070000000000005          1.1187434090231818E-008
  0.14180000000000004          4.9256123485497127E-011
  0.14290000000000003         -8.8853422397505710E-009
  0.14400000000000002         -7.9036484024186393E-009
  0.14510000000000001          1.4519212498953493E-009
  0.14620000000000000          9.4693302088444398E-009
  0.14730000000000004          8.5033455832217442E-009
  0.14840000000000003          3.4051897412901155E-010
  0.14950000000000002         -7.8354247534662136E-009
  0.15060000000000001         -1.0367953606760238E-008
  0.15170000000000000         -7.0712729005606434E-009
  0.15280000000000005         -5.3562015933650287E-010
  0.15390000000000004          5.0476889335016040E-009
  0.15500000000000003          5.2045368015285476E-009
  0.15610000000000002         -1.6930159496553188E-009
  0.15720000000000001         -1.0705819342149425E-008
  0.15830000000000000         -1.2314012032277333E-008
  0.15940000000000004         -3.8333225482745092E-009
  0.16050000000000003          6.6654877173277782E-009
  0.16160000000000002          7.5165038637692305E-009
  0.16270000000000001         -2.9192210870832014E-009
  0.16380000000000000         -1.2785450920205221E-008
  0.16490000000000005         -1.2285771511244548E-008
  0.16600000000000004         -3.4616518540531160E-009
  0.16710000000000003          4.8830930410304063E-009
  0.16820000000000002          7.4591586241012919E-009
  0.16930000000000001          5.0453832223240624E-009
  0.17040000000000000         -9.1845941962986899E-010
  0.17150000000000004         -9.0592626733609904E-009
  0.17260000000000003         -1.3291860057051963E-008
  0.17370000000000002         -6.5316188013753163E-009
  0.17480000000000001          7.8677304671259662E-009
  0.17590000000000000          1.4586930774385110E-008
  0.17700000000000005          4.0656762401169999E-009
  0.17810000000000004         -1.3191465697559579E-008
  0.17920000000000003         -1.6463731711269247E-008
  0.18030000000000002         -7.5508571617532994E-010
  0.18140000000000001          1.5812258169489724E-008
  0.18250000000000000          1.4360052702500070E-008
  0.18360000000000004         -1.5200944947224571E-009
  0.18470000000000003         -1.2623755374363554E-008
  0.18580000000000002         -9.6235481805706513E-009
  0.18690000000000001         -6.4302102531499372E-010
  0.18800000000000000          4.0968299863664015E-009
  0.18910000000000005          5.0570871934496608E-009
  0.19020000000000004          5.8255422707986781E-009
  0.19130000000000003          3.3680742639319305E-009
  0.19240000000000002         -5.1615511864611108E-009
  0.19350000000000001         -1.1201374050529012E-008
  0.19460000000000005         -3.6099190303673367E-009
  0.19570000000000004          1.2438650109913851E-008
  0.19680000000000003          1.6460669272078121E-008
  0.19790000000000002          9.1260186907415886E-011
  0.19900000000000001         -1.8278550228956192E-008
  0.20010000000000000         -1.5818988785554211E-008
  0.20120000000000005          4.0861927175228629E-009
  0.20230000000000004          1.5859486168778858E-008
  0.20340000000000003          6.4582441616778397E-009
  0.20450000000000002         -8.3604705380935229E-009
  0.20560000000000000         -8.2127487033289981E-009
  0.20670000000000005          3.8560408199828089E-009
  0.20780000000000004          9.1409324554092564E-009
  0.20890000000000003          2.1076294043353982E-009
