 -0.12000000000000000          0.0000000000000000
 -0.11889999999999999          0.0000000000000000
 -0.11780000000000000         -2.8803398555155013E-010
 -0.11670000000000000         -3.7413230846716772E-010
 -0.11559999999999999          3.5014202648397941E-010
 -0.11449999999999999          9.4072993839233732E-010
 -0.11340000000000000          9.4344483614339225E-011
 -0.11230000000000000         -1.0913584480576333E-009
 -0.11119999999999999         -5.3994991811023851E-010
 -0.11009999999999999          4.0800376965854923E-010
 -0.10900000000000000         -1.7057478762794176E-009
 -0.10790000000000000         -5.1608441964390295E-009
 -0.10679999999999999         -2.5409638837459170E-009
 -0.10569999999999999          7.8289543736786982E-009
 -0.10460000000000000          1.4875270792913398E-008
 -0.10349999999999999          7.4609056710528421E-009
 -0.10239999999999999         -7.8668938030546087E-009
 -0.10130000000000000         -1.2319262943094600E-008
 -0.10020000000000000         -5.1224602337640590E-010
  -9.9099999999999994E-002     1.0257084959164331E-008
  -9.7999999999999990E-002     3.9317269440175551E-009
  -9.6899999999999986E-002    -1.0295742036703359E-008
  -9.5799999999999996E-002    -1.0654843229929156E-008
  -9.4699999999999993E-002     4.9943453817036243E-009
  -9.3599999999999989E-002     1.5762237737249052E-008
  -9.2499999999999999E-002     8.8268103937139131E-009
  -9.1399999999999995E-002    -2.6692692500773774E-009
  -9.0299999999999991E-002    -2.5360102906546445E-009
  -8.9200000000000002E-002     1.5046986989730726E-009
  -8.8099999999999984E-002    -9.5546273115587610E-009
  -8.6999999999999994E-002    -3.3973531543551871E-008
  -8.5899999999999990E-002    -5.0856971967050413E-008
  -8.4799999999999986E-002    -5.4565287399555018E-008
  -8.3699999999999997E-002    -6.5483476419103681E-008
  -8.2599999999999993E-002    -9.6673730354268628E-008
  -8.1499999999999989E-002    -1.2998569332012266E-007
  -8.0399999999999999E-002    -1.4490579758330568E-007
  -7.9299999999999995E-002    -1.5748315718155936E-007
  -7.8199999999999992E-002    -2.0287265556362399E-007
  -7.7100000000000002E-002    -2.8166058996248466E-007
  -7.5999999999999984E-002    -3.5502790751706925E-007
  -7.4899999999999994E-002    -4.0535240941608208E-007
  -7.3799999999999991E-002    -4.7338815534203604E-007
  -7.2699999999999987E-002    -6.0896576314917183E-007
  -7.1599999999999997E-002    -8.0216443620884093E-007
  -7.0499999999999993E-002    -9.9893566130049294E-007
  -6.9399999999999989E-002    -1.1834118822662276E-006
  -6.8300000000000000E-002    -1.4076415482122684E-006
  -6.7199999999999996E-002    -1.7256360251849401E-006
  -6.6099999999999992E-002    -2.1305791051418055E-006
  -6.5000000000000002E-002    -2.5860767891572323E-006
  -6.3899999999999985E-002    -3.0978549148130696E-006
  -6.2799999999999995E-002    -3.7148977298784303E-006
  -6.1699999999999991E-002    -4.4658168008027133E-006
  -6.0599999999999994E-002    -5.3392159315990284E-006
  -5.9499999999999990E-002    -6.3407469497178681E-006
  -5.8399999999999994E-002    -7.5280372584529687E-006
  -5.7299999999999990E-002    -8.9556242528487928E-006
  -5.6199999999999986E-002    -1.0613578524498735E-005
  -5.5099999999999996E-002    -1.2469060493458528E-005
  -5.3999999999999992E-002    -1.4561978787241969E-005
  -5.2899999999999989E-002    -1.7006892448989674E-005
  -5.1799999999999985E-002    -1.9883867935277522E-005
  -5.0699999999999995E-002    -2.3173744921223260E-005
  -4.9599999999999991E-002    -2.6839228667085990E-005
  -4.8499999999999988E-002    -3.0936993425711989E-005
  -4.7399999999999998E-002    -3.5597444366430864E-005
  -4.6299999999999994E-002    -4.0901726606534794E-005
  -4.5199999999999990E-002    -4.6839209971949458E-005
  -4.4099999999999986E-002    -5.3402542107505724E-005
  -4.2999999999999997E-002    -6.0669695812975988E-005
  -4.1899999999999993E-002    -6.8749235651921481E-005
  -4.0799999999999989E-002    -7.7679018431808800E-005
  -3.9699999999999985E-002    -8.7439133494626731E-005
  -3.8599999999999995E-002    -9.8054704722017050E-005
  -3.7499999999999992E-002    -1.0961812222376466E-004
  -3.6399999999999988E-002    -1.2218917254358530E-004
  -3.5299999999999984E-002    -1.3572977331932634E-004
  -3.4199999999999994E-002    -1.5017825353424996E-004
  -3.3099999999999991E-002    -1.6555032925680280E-004
  -3.1999999999999987E-002    -1.8190158880315721E-004
  -3.0899999999999997E-002    -1.9919990154448897E-004
  -2.9799999999999993E-002    -2.1730364824179560E-004
  -2.8699999999999989E-002    -2.3608295305166394E-004
  -2.7599999999999986E-002    -2.5549562997184694E-004
  -2.6499999999999996E-002    -2.7549936203286052E-004
  -2.5399999999999992E-002    -2.9592090868391097E-004
  -2.4299999999999988E-002    -3.1648541335016489E-004
  -2.3199999999999985E-002    -3.3696310129016638E-004
  -2.2099999999999995E-002    -3.5721325548365712E-004
  -2.0999999999999991E-002    -3.7705511203967035E-004
  -1.9899999999999987E-002    -3.9616267895326018E-004
  -1.8799999999999983E-002    -4.1414424777030945E-004
  -1.7699999999999994E-002    -4.3067557271569967E-004
  -1.6599999999999990E-002    -4.4549597078002989E-004
  -1.5499999999999986E-002    -4.5828227302990854E-004
  -1.4399999999999996E-002    -4.6860086149536073E-004
  -1.3299999999999992E-002    -4.7602431732229888E-004
  -1.2199999999999989E-002    -4.8021861584857106E-004
  -1.1099999999999985E-002    -4.8088034964166582E-004
  -9.9999999999999950E-003    -4.7762488247826695E-004
  -8.8999999999999913E-003    -4.7001801431179047E-004
  -7.7999999999999875E-003    -4.5772091834805906E-004
  -6.6999999999999837E-003    -4.4053408782929182E-004
  -5.5999999999999939E-003    -4.1826974484138191E-004
  -4.4999999999999901E-003    -3.9066557656042278E-004
  -3.3999999999999864E-003    -3.5747981746681035E-004
  -2.2999999999999826E-003    -3.1863048207014799E-004
  -1.1999999999999927E-003    -2.7419702382758260E-004
  -9.9999999999988987E-005    -2.2427056683227420E-004
   1.0000000000000148E-003    -1.6890891129150987E-004
   2.1000000000000185E-003    -1.0825831850524992E-004
   3.2000000000000084E-003    -4.2662020860007033E-005
   4.3000000000000121E-003     2.7416572265792638E-005
   5.4000000000000159E-003     1.0152391769224778E-004
   6.5000000000000058E-003     1.7919566016644239E-004
   7.6000000000000234E-003     2.5982840452343225E-004
   8.7000000000000133E-003     3.4263663110323250E-004
   9.8000000000000032E-003     4.2678337194956839E-004
   1.0900000000000021E-002     5.1148131024092436E-004
   1.2000000000000011E-002     5.9593666810542345E-004
   1.3100000000000001E-002     6.7923043388873339E-004
   1.4200000000000018E-002     7.6034106314182281E-004
   1.5300000000000008E-002     8.3827931666746736E-004
   1.6400000000000026E-002     9.1214844724163413E-004
   1.7500000000000016E-002     9.8106265068054199E-004
   1.8600000000000005E-002     1.0440825717523694E-003
   1.9700000000000023E-002     1.1002939427271485E-003
   2.0800000000000013E-002     1.1489212047308683E-003
   2.1900000000000003E-002     1.1893253540620208E-003
   2.3000000000000020E-002     1.2208982370793819E-003
   2.4100000000000010E-002     1.2430452043190598E-003
   2.5200000000000000E-002     1.2553004780784249E-003
   2.6300000000000018E-002     1.2574149295687675E-003
   2.7400000000000008E-002     1.2493043905124068E-003
   2.8500000000000025E-002     1.2309442972764373E-003
   2.9600000000000015E-002     1.2023752788081765E-003
   3.0700000000000005E-002     1.1637946590781212E-003
   3.1800000000000023E-002     1.1156034888699651E-003
   3.2900000000000013E-002     1.0583408875390887E-003
   3.4000000000000002E-002     9.9260569550096989E-004
   3.5100000000000020E-002     9.1908354079350829E-004
   3.6200000000000010E-002     8.3860079757869244E-004
   3.7300000000000028E-002     7.5210462091490626E-004
   3.8400000000000017E-002     6.6057080402970314E-004
   3.9500000000000007E-002     5.6498759659007192E-004
   4.0600000000000025E-002     4.6639124047942460E-004
   4.1700000000000015E-002     3.6590817035175860E-004
   4.2800000000000005E-002     2.6468353462405503E-004
   4.3900000000000022E-002     1.6380287706851959E-004
   4.5000000000000012E-002     6.4270861912518740E-005
   4.6100000000000002E-002    -3.2918382203206420E-005
   4.7200000000000020E-002    -1.2679331121034920E-004
   4.8300000000000010E-002    -2.1644824300892651E-004
   4.9400000000000027E-002    -3.0109004001133144E-004
   5.0500000000000017E-002    -3.8001837674528360E-004
   5.1600000000000007E-002    -4.5261657214723527E-004
   5.2700000000000025E-002    -5.1837333012372255E-004
   5.3800000000000014E-002    -5.7690218091011047E-004
   5.4900000000000004E-002    -6.2793696997687221E-004
   5.6000000000000022E-002    -6.7130307434126735E-004
   5.7100000000000012E-002    -7.0690701249986887E-004
   5.8200000000000002E-002    -7.3476106626912951E-004
   5.9300000000000019E-002    -7.5500243110582232E-004
   6.0400000000000009E-002    -7.6787074794992805E-004
   6.1500000000000027E-002    -7.7367783524096012E-004
   6.2600000000000017E-002    -7.7279220568016171E-004
   6.3700000000000007E-002    -7.6564482878893614E-004
   6.4800000000000024E-002    -7.5272010872140527E-004
   6.5900000000000014E-002    -7.3453539516776800E-004
   6.7000000000000004E-002    -7.1164499968290329E-004
   6.8100000000000022E-002    -6.8464619107544422E-004
   6.9200000000000012E-002    -6.5415195422247052E-004
   7.0300000000000029E-002    -6.2074948800727725E-004
   7.1400000000000019E-002    -5.8499217266216874E-004
   7.2500000000000009E-002    -5.4743123473599553E-004
   7.3600000000000027E-002    -5.0862785428762436E-004
   7.4700000000000016E-002    -4.6911471872590482E-004
   7.5800000000000006E-002    -4.2935603414662182E-004
   7.6900000000000024E-002    -3.8976687937974930E-004
   7.8000000000000014E-002    -3.5075357300229371E-004
   7.9100000000000004E-002    -3.1270098406821489E-004
   8.0200000000000021E-002    -2.7591333491727710E-004
   8.1300000000000011E-002    -2.4060945725068450E-004
   8.2400000000000029E-002    -2.0698396838270128E-004
   8.3500000000000019E-002    -1.7524424765724689E-004
   8.4600000000000009E-002    -1.4556534006260335E-004
   8.5700000000000026E-002    -1.1802551307482645E-004
   8.6800000000000016E-002    -9.2626723926514387E-005
   8.7900000000000006E-002    -6.9380104832816869E-005
   8.9000000000000024E-002    -4.8322785005439073E-005
   9.0100000000000013E-002    -2.9444865504046902E-005
   9.1200000000000003E-002    -1.2651006727537606E-005
   9.2300000000000021E-002     2.1756445676146541E-006
   9.3400000000000011E-002     1.5098989933903795E-005
   9.4500000000000028E-002     2.6164583687204868E-005
   9.5600000000000018E-002     3.5496399505063891E-005
   9.6700000000000008E-002     4.3292660848237574E-005
   9.7800000000000026E-002     4.9712994950823486E-005
   9.8900000000000016E-002     5.4819269280415028E-005
  0.10000000000000001          5.8665566029958427E-005
  0.10110000000000002          6.1401784478221089E-005
  0.10220000000000001          6.3235340348910540E-005
  0.10330000000000003          6.4301180827897042E-005
  0.10440000000000002          6.4637766627129167E-005
  0.10550000000000001          6.4300133090000600E-005
  0.10660000000000003          6.3432627939619124E-005
  0.10770000000000002          6.2186147260945290E-005
  0.10880000000000001          6.0611833760049194E-005
  0.10990000000000003          5.8703775721369311E-005
  0.11100000000000002          5.6529497669544071E-005
  0.11210000000000001          5.4236970754573122E-005
  0.11320000000000002          5.1917304517701268E-005
  0.11430000000000001          4.9533788114786148E-005
  0.11540000000000003          4.7035136958584189E-005
  0.11650000000000002          4.4489261199487373E-005
  0.11760000000000001          4.2031970224343240E-005
  0.11870000000000003          3.9705737435724586E-005
  0.11980000000000002          3.7431123928399757E-005
  0.12090000000000001          3.5155950172338635E-005
  0.12200000000000003          3.2951644243439659E-005
  0.12310000000000001          3.0912458896636963E-005
  0.12420000000000003          2.9018203349551186E-005
  0.12530000000000002          2.7175143259228207E-005
  0.12640000000000001          2.5372133677592501E-005
  0.12750000000000003          2.3705200874246657E-005
  0.12860000000000002          2.2226404325920157E-005
  0.12970000000000001          2.0852421585004777E-005
  0.13080000000000003          1.9482728021102957E-005
  0.13190000000000002          1.8149883544538170E-005
  0.13300000000000001          1.6969323041848838E-005
  0.13410000000000000          1.5959980373736471E-005
  0.13520000000000004          1.5008143236627802E-005
  0.13630000000000003          1.4031965292815585E-005
  0.13740000000000002          1.3095926078676712E-005
  0.13850000000000001          1.2302743016334716E-005
  0.13960000000000000          1.1629509572230745E-005
  0.14070000000000005          1.0960256986436434E-005
  0.14180000000000004          1.0261334864480887E-005
  0.14290000000000003          9.6261310318368487E-006
  0.14400000000000002          9.1212095867376775E-006
  0.14510000000000001          8.6749414549558423E-006
  0.14620000000000000          8.1829093687701970E-006
  0.14730000000000004          7.6668184192385525E-006
  0.14840000000000003          7.2387092586723156E-006
  0.14950000000000002          6.9238240030244924E-006
  0.15060000000000001          6.6169081947009545E-006
  0.15170000000000000          6.2405506469076499E-006
  0.15280000000000005          5.8616610658646096E-006
  0.15390000000000004          5.5855966820672620E-006
  0.15500000000000003          5.3905059758108109E-006
  0.15610000000000002          5.1580577746790368E-006
  0.15720000000000001          4.8527281251153909E-006
  0.15830000000000000          4.5741526264464483E-006
  0.15940000000000004          4.4025332499586511E-006
  0.16050000000000003          4.2751025830511935E-006
  0.16160000000000002          4.0824570533004589E-006
  0.16270000000000001          3.8340599530783948E-006
  0.16380000000000000          3.6397977964952588E-006
  0.16490000000000005          3.5391153687669430E-006
  0.16600000000000004          3.4423819670337252E-006
  0.16710000000000003          3.2705543162592221E-006
  0.16820000000000002          3.0747546588827390E-006
  0.16930000000000001          2.9525506306526950E-006
  0.17040000000000000          2.8949475563422311E-006
  0.17150000000000004          2.8014637791784480E-006
  0.17260000000000003          2.6375912511866773E-006
  0.17370000000000002          2.4879720967874164E-006
  0.17480000000000001          2.4240130187536124E-006
  0.17590000000000000          2.3923280423332471E-006
  0.17700000000000005          2.2963520223129308E-006
  0.17810000000000004          2.1441740045702318E-006
  0.17920000000000003          2.0350089471321553E-006
  0.18030000000000002          2.0066054275957868E-006
  0.18140000000000001          1.9789240468526259E-006
  0.18250000000000000          1.8774442196445307E-006
  0.18360000000000004          1.7448578546463978E-006
  0.18470000000000003          1.6722277678127284E-006
  0.18580000000000002          1.6595110992057016E-006
  0.18690000000000001          1.6188553217943991E-006
  0.18800000000000000          1.5103721580089768E-006
  0.18910000000000005          1.3992728327139048E-006
  0.19020000000000004          1.3506846698874142E-006
  0.19130000000000003          1.3289684375195066E-006
  0.19240000000000002          1.2546051948447712E-006
  0.19350000000000001          1.1260821111136465E-006
  0.19460000000000005          1.0176153182328562E-006
  0.19570000000000004          9.6062251486728201E-007
  0.19680000000000003          8.9424366933599231E-007
  0.19790000000000002          7.5877551353187300E-007
  0.19900000000000001          5.8455310636418290E-007
  0.20010000000000000          4.3998625187668949E-007
  0.20120000000000005          3.2209450750997348E-007
  0.20230000000000004          1.5799598429566686E-007
  0.20340000000000003         -8.8561279198984266E-008
  0.20450000000000002         -3.7079666981298942E-007
  0.20560000000000000         -6.3981599396356614E-007
  0.20670000000000005         -9.2551880470637116E-007
  0.20780000000000004         -1.2954071735293837E-006
  0.20890000000000003         -1.7607773088457179E-006
