 -0.12000000000000000          0.0000000000000000
 -0.11889999999999999          0.0000000000000000
 -0.11780000000000000          0.0000000000000000
 -0.11670000000000000          0.0000000000000000
 -0.11559999999999999          0.0000000000000000
 -0.11449999999999999          0.0000000000000000
 -0.11340000000000000          0.0000000000000000
 -0.11230000000000000          4.5173359149350863E-021
 -0.11119999999999999          2.6953082492800867E-021
 -0.11009999999999999         -3.9686161236339454E-020
 -0.10900000000000000         -4.3154400297803588E-020
 -0.10790000000000000          1.2673969580188285E-019
 -0.10679999999999999          1.1275624632076513E-019
 -0.10569999999999999         -2.9436524907164261E-019
 -0.10460000000000000          7.7179828560318824E-019
 -0.10349999999999999          3.4095650726642160E-018
 -0.10239999999999999         -2.6647580006413628E-018
 -0.10130000000000000         -2.4008305165698339E-017
 -0.10020000000000000         -2.3006931896670219E-017
  -9.9099999999999994E-002     5.9794464496624815E-017
  -9.7999999999999990E-002     1.6465785805075644E-016
  -9.6899999999999986E-002     6.5371931608833067E-017
  -9.5799999999999996E-002    -3.2096624764263123E-016
  -9.4699999999999993E-002    -5.9947491586458145E-016
  -9.3599999999999989E-002    -2.6554665537901567E-016
  -9.2499999999999999E-002     5.2617829620246986E-016
  -9.1399999999999995E-002     1.2265282715796973E-015
  -9.0299999999999991E-002     1.9775517283286172E-015
  -8.9200000000000002E-002     2.6896722323595679E-015
  -8.8099999999999984E-002     1.9473892291840264E-016
  -8.6999999999999994E-002    -9.5672566209951092E-015
  -8.5899999999999990E-002    -2.1019368225670167E-014
  -8.4799999999999986E-002    -1.4576923720280473E-014
  -8.3699999999999997E-002     2.3028623550181565E-014
  -8.2599999999999993E-002     6.8656282644751626E-014
  -8.1499999999999989E-002     7.0093914396676671E-014
  -8.0399999999999999E-002     1.8027073991146213E-015
  -7.9299999999999995E-002    -9.8447502049330698E-014
  -7.8199999999999992E-002    -1.7167486236844415E-013
  -7.7100000000000002E-002    -1.9459233486715521E-013
  -7.5999999999999984E-002    -1.4046692953760542E-013
  -7.4899999999999994E-002     9.1882854406574732E-014
  -7.3799999999999991E-002     5.6259559727891983E-013
  -7.2699999999999987E-002     1.0080228752401554E-012
  -7.1599999999999997E-002     8.3523899602200302E-013
  -7.0499999999999993E-002    -2.9889692066895068E-013
  -6.9399999999999989E-002    -1.8545850619111626E-012
  -6.8300000000000000E-002    -2.6645740735381507E-012
  -6.7199999999999996E-002    -2.0365261126781276E-012
  -6.6099999999999992E-002    -3.4666521498034897E-013
  -6.5000000000000002E-002     1.7393227700127079E-012
  -6.3899999999999985E-002     4.1749260298873381E-012
  -6.2799999999999995E-002     6.7709878502630882E-012
  -6.1699999999999991E-002     7.5979578531559788E-012
  -6.0599999999999994E-002     3.6871295946983018E-012
  -5.9499999999999990E-002    -5.3345891072587026E-012
  -5.8399999999999994E-002    -1.5047052145944484E-011
  -5.7299999999999990E-002    -1.9570270751168017E-011
  -5.6199999999999986E-002    -1.7235560201278588E-011
  -5.5099999999999996E-002    -1.0806315044187276E-011
  -5.3999999999999992E-002    -1.1948009855794473E-012
  -5.2899999999999989E-002     1.5830848784648133E-011
  -5.1799999999999985E-002     4.2452198006914799E-011
  -5.0699999999999995E-002     6.8811435716131797E-011
  -4.9599999999999991E-002     7.5453969461403148E-011
  -4.8499999999999988E-002     4.9081065600642404E-011
  -4.7399999999999998E-002    -6.5035685170578006E-012
  -4.6299999999999994E-002    -7.7459018366088372E-011
  -4.5199999999999990E-002    -1.5275566922490214E-010
  -4.4099999999999986E-002    -2.2125680454454510E-010
  -4.2999999999999997E-002    -2.5614391163664152E-010
  -4.1899999999999993E-002    -2.1505962288781433E-010
  -4.0799999999999989E-002    -6.9064552687958525E-011
  -3.9699999999999985E-002     1.6694970406128107E-010
  -3.8599999999999995E-002     4.3755254974797708E-010
  -3.7499999999999992E-002     6.7744637677336073E-010
  -3.6399999999999988E-002     8.2886325580844300E-010
  -3.5299999999999984E-002     8.2946893797952725E-010
  -3.4199999999999994E-002     6.0446836425143147E-010
  -3.3099999999999991E-002     9.7095421980331054E-011
  -3.1999999999999987E-002    -6.8151961851725673E-010
  -3.0899999999999997E-002    -1.6310321981904963E-009
  -2.9799999999999993E-002    -2.5782584955891252E-009
  -2.8699999999999989E-002    -3.2951086303967259E-009
  -2.7599999999999986E-002    -3.5026836986418175E-009
  -2.6499999999999996E-002    -2.8971895993379349E-009
  -2.5399999999999992E-002    -1.2210018551783719E-009
  -2.4299999999999988E-002     1.6695234084096455E-009
  -2.3199999999999985E-002     5.8055120710776009E-009
  -2.2099999999999995E-002     1.1159329460497247E-008
  -2.0999999999999991E-002     1.7667016294353743E-008
  -1.9899999999999987E-002     2.5200622033594300E-008
  -1.8799999999999983E-002     3.3585791925361264E-008
  -1.7699999999999994E-002     4.2738832917166292E-008
  -1.6599999999999990E-002     5.2840015030142240E-008
  -1.5499999999999986E-002     6.4385240250430797E-008
  -1.4399999999999996E-002     7.8097251332565065E-008
  -1.3299999999999992E-002     9.4849198717383842E-008
  -1.2199999999999989E-002     1.1570791969006677E-007
  -1.1099999999999985E-002     1.4199838460626779E-007
  -9.9999999999999950E-003     1.7523102258110157E-007
  -8.8999999999999913E-003     2.1693162466362992E-007
  -7.7999999999999875E-003     2.6858700152843085E-007
  -6.6999999999999837E-003     3.3180515401909361E-007
  -5.5999999999999939E-003     4.0853254290595942E-007
  -4.4999999999999901E-003     5.0113555971620372E-007
  -3.3999999999999864E-003     6.1238171156219323E-007
  -2.2999999999999826E-003     7.4549859618855407E-007
  -1.1999999999999927E-003     9.0435344191064360E-007
  -9.9999999999988987E-005     1.0935973477899097E-006
   1.0000000000000148E-003     1.3186793239583494E-006
   2.1000000000000185E-003     1.5858487358855200E-006
   3.2000000000000084E-003     1.9022521655642777E-006
   4.3000000000000121E-003     2.2760282263334375E-006
   5.4000000000000159E-003     2.7162564038007986E-006
   6.5000000000000058E-003     3.2328605357179185E-006
   7.6000000000000234E-003     3.8367297747754492E-006
   8.7000000000000133E-003     4.5400711314869113E-006
   9.8000000000000032E-003     5.3566218412015587E-006
   1.0900000000000021E-002     6.3015040723257698E-006
   1.2000000000000011E-002     7.3909550337702967E-006
   1.3100000000000001E-002     8.6424279288621619E-006
   1.4200000000000018E-002     1.0074981219077017E-005
   1.5300000000000008E-002     1.1709556019923184E-005
   1.6400000000000026E-002     1.3568728718382772E-005
   1.7500000000000016E-002     1.5676199836889282E-005
   1.8600000000000005E-002     1.8056509361485951E-005
   1.9700000000000023E-002     2.0735038560815156E-005
   2.0800000000000013E-002     2.3737784431432374E-005
   2.1900000000000003E-002     2.7090896765002981E-005
   2.3000000000000020E-002     3.0820167012279853E-005
   2.4100000000000010E-002     3.4950648114318028E-005
   2.5200000000000000E-002     3.9506463508587331E-005
   2.6300000000000018E-002     4.4510255975183100E-005
   2.7400000000000008E-002     4.9982467317022383E-005
   2.8500000000000025E-002     5.5940530728548765E-005
   2.9600000000000015E-002     6.2398212321568280E-005
   3.0700000000000005E-002     6.9364577939268202E-005
   3.1800000000000023E-002     7.6842894486617297E-005
   3.2900000000000013E-002     8.4829480329062790E-005
   3.4000000000000002E-002     9.3312643002718687E-005
   3.5100000000000020E-002     1.0227126767858863E-004
   3.6200000000000010E-002     1.1167455522809178E-004
   3.7300000000000028E-002     1.2148092355346307E-004
   3.8400000000000017E-002     1.3163700350560248E-004
   3.9500000000000007E-002     1.4207679487299174E-004
   4.0600000000000025E-002     1.5272149175871164E-004
   4.1700000000000015E-002     1.6347909695468843E-004
   4.2800000000000005E-002     1.7424268298782408E-004
   4.3900000000000022E-002     1.8489158537704498E-004
   4.5000000000000012E-002     1.9528967095538974E-004
   4.6100000000000002E-002     2.0528791355900466E-004
   4.7200000000000020E-002     2.1472346270456910E-004
   4.8300000000000010E-002     2.2342061856761575E-004
   4.9400000000000027E-002     2.3119238903746009E-004
   5.0500000000000017E-002     2.3784373479429632E-004
   5.1600000000000007E-002     2.4317423230968416E-004
   5.2700000000000025E-002     2.4697673507034779E-004
   5.3800000000000014E-002     2.4904252495616674E-004
   5.4900000000000004E-002     2.4916505208238959E-004
   5.6000000000000022E-002     2.4714411119930446E-004
   5.7100000000000012E-002     2.4278968339785933E-004
   5.8200000000000002E-002     2.3592190700583160E-004
   5.9300000000000019E-002     2.2637803340330720E-004
   6.0400000000000009E-002     2.1401922276709229E-004
   6.1500000000000027E-002     1.9873239216394722E-004
   6.2600000000000017E-002     1.8043155432678759E-004
   6.3700000000000007E-002     1.5906480257399380E-004
   6.4800000000000024E-002     1.3461922935675830E-004
   6.5900000000000014E-002     1.0712606308516115E-004
   6.7000000000000004E-002     7.6657561294268817E-005
   6.8100000000000022E-002     4.3329062464181334E-005
   6.9200000000000012E-002     7.2999264375539497E-006
   7.0300000000000029E-002    -3.1215673516271636E-005
   7.1400000000000019E-002    -7.1954156737774611E-005
   7.2500000000000009E-002    -1.1460566747700796E-004
   7.3600000000000027E-002    -1.5881833678577095E-004
   7.4700000000000016E-002    -2.0419864449650049E-004
   7.5800000000000006E-002    -2.5031724362634122E-004
   7.6900000000000024E-002    -2.9670851654373109E-004
   7.8000000000000014E-002    -3.4287921153008938E-004
   7.9100000000000004E-002    -3.8830901030451059E-004
   8.0200000000000021E-002    -4.3246499262750149E-004
   8.1300000000000011E-002    -4.7480870853178203E-004
   8.2400000000000029E-002    -5.1481073023751378E-004
   8.3500000000000019E-002    -5.5195315508171916E-004
   8.4600000000000009E-002    -5.8572739362716675E-004
   8.5700000000000026E-002    -6.1564560746774077E-004
   8.6800000000000016E-002    -6.4125732751563191E-004
   8.7900000000000006E-002    -6.6216685809195042E-004
   8.9000000000000024E-002    -6.7803554702550173E-004
   9.0100000000000013E-002    -6.8857875885441899E-004
   9.1200000000000003E-002    -6.9356651511043310E-004
   9.2300000000000021E-002    -6.9283338962122798E-004
   9.3400000000000011E-002    -6.8629125598818064E-004
   9.4500000000000028E-002    -6.7393336212262511E-004
   9.5600000000000018E-002    -6.5583176910877228E-004
   9.6700000000000008E-002    -6.3213513931259513E-004
   9.7800000000000026E-002    -6.0306140221655369E-004
   9.8900000000000016E-002    -5.6889571715146303E-004
  0.10000000000000001         -5.2998773753643036E-004
  0.10110000000000002         -4.8675667494535446E-004
  0.10220000000000001         -4.3968053068965673E-004
  0.10330000000000003         -3.8929042057134211E-004
  0.10440000000000002         -3.3615378197282553E-004
  0.10550000000000001         -2.8085900703445077E-004
  0.10660000000000003         -2.2400748275686055E-004
  0.10770000000000002         -1.6622401017230004E-004
  0.10880000000000001         -1.0814875713549554E-004
  0.10990000000000003         -5.0412934797350317E-005
  0.11100000000000002          6.3811967265792191E-006
  0.11210000000000001          6.1664039094466716E-005
  0.11320000000000002          1.1490198812680319E-004
  0.11430000000000001          1.6559512005187571E-004
  0.11540000000000003          2.1327380090951920E-004
  0.11650000000000002          2.5752864894457161E-004
  0.11760000000000001          2.9802112840116024E-004
  0.11870000000000003          3.3447655732743442E-004
  0.11980000000000002          3.6668140091933310E-004
  0.12090000000000001          3.9447471499443054E-004
  0.12200000000000003          4.1776042780838907E-004
  0.12310000000000001          4.3650509906001389E-004
  0.12420000000000003          4.5073518413119018E-004
  0.12530000000000002          4.6053217374719679E-004
  0.12640000000000001          4.6603867667727172E-004
  0.12750000000000003          4.6744730207137764E-004
  0.12860000000000002          4.6498226583935320E-004
  0.12970000000000001          4.5889144530519843E-004
  0.13080000000000003          4.4945429544895887E-004
  0.13190000000000002          4.3699139496311545E-004
  0.13300000000000001          4.2185012716799974E-004
  0.13410000000000000          4.0437994175590575E-004
  0.13520000000000004          3.8491759914904833E-004
  0.13630000000000003          3.6379779339767992E-004
  0.13740000000000002          3.4136587055400014E-004
  0.13850000000000001          3.1796607072465122E-004
  0.13960000000000000          2.9392124270088971E-004
  0.14070000000000005          2.6952521875500679E-004
  0.14180000000000004          2.4505442706868052E-004
  0.14290000000000003          2.2077164612710476E-004
  0.14400000000000002          1.9691398483701050E-004
  0.14510000000000001          1.7368227418046445E-004
  0.14620000000000000          1.5124765923246741E-004
  0.14730000000000004          1.2976533616892993E-004
  0.14840000000000003          1.0937323531834409E-004
  0.14950000000000002          9.0175220975652337E-005
  0.15060000000000001          7.2237657150253654E-005
  0.15170000000000000          5.5604810768272728E-005
  0.15280000000000005          4.0313298086402938E-005
  0.15390000000000004          2.6382254873169586E-005
  0.15500000000000003          1.3800263332086615E-005
  0.15610000000000002          2.5339566036564065E-006
  0.15720000000000001         -7.4529775702103507E-006
  0.15830000000000000         -1.6194686395465396E-005
  0.15940000000000004         -2.3742866687825881E-005
  0.16050000000000003         -3.0177223379723728E-005
  0.16160000000000002         -3.5584693250712007E-005
  0.16270000000000001         -4.0034927224041894E-005
  0.16380000000000000         -4.3584364902926609E-005
  0.16490000000000005         -4.6304317947942764E-005
  0.16600000000000004         -4.8288991820299998E-005
  0.16710000000000003         -4.9631540605332702E-005
  0.16820000000000002         -5.0403366913087666E-005
  0.16930000000000001         -5.0661794375628233E-005
  0.17040000000000000         -5.0471579015720636E-005
  0.17150000000000004         -4.9905629566637799E-005
  0.17260000000000003         -4.9026410124497488E-005
  0.17370000000000002         -4.7880825150059536E-005
  0.17480000000000001         -4.6516255679307505E-005
  0.17590000000000000         -4.4990130845690146E-005
  0.17700000000000005         -4.3351938074920326E-005
  0.17810000000000004         -4.1626146412454545E-005
  0.17920000000000003         -3.9824404666433111E-005
  0.18030000000000002         -3.7975001760059968E-005
  0.18140000000000001         -3.6124263715464622E-005
  0.18250000000000000         -3.4305023291381076E-005
  0.18360000000000004         -3.2520496461074799E-005
  0.18470000000000003         -3.0763156246393919E-005
  0.18580000000000002         -2.9044655093457550E-005
  0.18690000000000001         -2.7391703042667359E-005
  0.18800000000000000         -2.5817602363531478E-005
  0.18910000000000005         -2.4313729227287695E-005
  0.19020000000000004         -2.2872449335409328E-005
  0.19130000000000003         -2.1504356482182629E-005
  0.19240000000000002         -2.0222967577865347E-005
  0.19350000000000001         -1.9021821572096087E-005
  0.19460000000000005         -1.7882139218272641E-005
  0.19570000000000004         -1.6800218872958794E-005
  0.19680000000000003         -1.5791671103215776E-005
  0.19790000000000002         -1.4864865988784004E-005
  0.19900000000000001         -1.4003894648340065E-005
  0.20010000000000000         -1.3188243428885471E-005
  0.20120000000000005         -1.2418612641340587E-005
  0.20230000000000004         -1.1709809768944979E-005
  0.20340000000000003         -1.1061714758398011E-005
  0.20450000000000002         -1.0454251423652750E-005
  0.20560000000000000         -9.8744212664314546E-006
  0.20670000000000005         -9.3334419943857938E-006
  0.20780000000000004         -8.8452907220926136E-006
  0.20890000000000003         -8.3997683759662323E-006
