 -0.12000000000000000          0.0000000000000000
 -0.11889999999999999          0.0000000000000000
 -0.11780000000000000          0.0000000000000000
 -0.11670000000000000          0.0000000000000000
 -0.11559999999999999          0.0000000000000000
 -0.11449999999999999          0.0000000000000000
 -0.11340000000000000          0.0000000000000000
 -0.11230000000000000          0.0000000000000000
 -0.11119999999999999         -1.3774263978462447E-023
 -0.11009999999999999          7.4785894459349966E-023
 -0.10900000000000000          1.3171738014397518E-022
 -0.10790000000000000         -1.1165817455891736E-021
 -0.10679999999999999         -1.2200412193403693E-021
 -0.10569999999999999          9.2650820201445382E-021
 -0.10460000000000000          1.2694151171547445E-020
 -0.10349999999999999         -5.1418929818882812E-020
 -0.10239999999999999         -1.0754811685132666E-019
 -0.10130000000000000          1.7736464855498840E-019
 -0.10020000000000000          6.5581376014678179E-019
  -9.9099999999999994E-002    -1.4722035172657196E-019
  -9.7999999999999990E-002    -2.7449299999712273E-018
  -9.6899999999999986E-002    -2.2943564485074676E-018
  -9.5799999999999996E-002     6.9433093940170364E-018
  -9.4699999999999993E-002     1.4974199166141244E-017
  -9.3599999999999989E-002    -3.7990929017167154E-018
  -9.2499999999999999E-002    -4.5984710639831620E-017
  -9.1399999999999995E-002    -4.3875601909890862E-017
  -9.0299999999999991E-002     5.8752077958465092E-017
  -8.9200000000000002E-002     1.6859335841215713E-016
  -8.8099999999999984E-002     8.5543339650869486E-017
  -8.6999999999999994E-002    -2.1042167176236700E-016
  -8.5899999999999990E-002    -4.2257483768759940E-016
  -8.4799999999999986E-002    -2.6360938514952668E-016
  -8.3699999999999997E-002     2.2213777854922928E-016
  -8.2599999999999993E-002     8.9559355787862619E-016
  -8.1499999999999989E-002     1.6091095486901784E-015
  -8.0399999999999999E-002     1.2609109270955254E-015
  -7.9299999999999995E-002    -2.2427289449937320E-015
  -7.8199999999999992E-002    -8.0433723510841063E-015
  -7.7100000000000002E-002    -8.0303949592992231E-015
  -7.5999999999999984E-002     6.8650012906876050E-015
  -7.4899999999999994E-002     2.8861366963874036E-014
  -7.3799999999999991E-002     2.7703884582989773E-014
  -7.2699999999999987E-002    -1.8341377001169709E-014
  -7.1599999999999997E-002    -7.7845207764690866E-014
  -7.0499999999999993E-002    -7.4424305965010290E-014
  -6.9399999999999989E-002     2.9495974212352324E-014
  -6.8300000000000000E-002     1.5958501881074838E-013
  -6.7199999999999996E-002     1.7743593324227175E-013
  -6.6099999999999992E-002     2.2101173294914941E-014
  -6.5000000000000002E-002    -2.1710483074938863E-013
  -6.3899999999999985E-002    -3.7860938884894113E-013
  -6.2799999999999995E-002    -3.3554040622385539E-013
  -6.1699999999999991E-002    -1.0468231167429405E-014
  -6.0599999999999994E-002     5.8984284470597892E-013
  -5.9499999999999990E-002     1.1826555360028301E-012
  -5.8399999999999994E-002     1.1202743377056179E-012
  -5.7299999999999990E-002    -1.2979775674409888E-013
  -5.6199999999999986E-002    -2.1265218318883283E-012
  -5.5099999999999996E-002    -3.3092716934801647E-012
  -5.3999999999999992E-002    -2.2620902546954813E-012
  -5.2899999999999989E-002     7.0431085009287075E-013
  -5.1799999999999985E-002     3.6538697414933985E-012
  -5.0699999999999995E-002     4.9972365655237549E-012
  -4.9599999999999991E-002     4.8859375746668210E-012
  -4.8499999999999988E-002     4.0149693465718617E-012
  -4.7399999999999998E-002     1.5008181329656534E-012
  -4.6299999999999994E-002    -4.5594890710209945E-012
  -4.5199999999999990E-002    -1.3610504216721164E-011
  -4.4099999999999986E-002    -2.0701620973007095E-011
  -4.2999999999999997E-002    -1.9555801422654895E-011
  -4.1899999999999993E-002    -7.7931428671407232E-012
  -4.0799999999999989E-002     1.1559542385797261E-011
  -3.9699999999999985E-002     3.3111298425314573E-011
  -3.8599999999999995E-002     5.1546857060547069E-011
  -3.7499999999999992E-002     6.0495067288890425E-011
  -3.6399999999999988E-002     5.1945937135089437E-011
  -3.5299999999999984E-002     2.0565297728647458E-011
  -3.4199999999999994E-002    -3.0862135763642939E-011
  -3.3099999999999991E-002    -9.2067423129726933E-011
  -3.1999999999999987E-002    -1.5063517100344370E-010
  -3.0899999999999997E-002    -1.9280733953852547E-010
  -2.9799999999999993E-002    -1.9814347385072040E-010
  -2.8699999999999989E-002    -1.4018619598488158E-010
  -2.7599999999999986E-002    -1.7814867419793656E-012
  -2.6499999999999996E-002     2.0689051860589558E-010
  -2.5399999999999992E-002     4.4721590319873883E-010
  -2.4299999999999988E-002     6.6659644470945523E-010
  -2.3199999999999985E-002     8.0620271569742386E-010
  -2.2099999999999995E-002     7.9368256411527227E-010
  -2.0999999999999991E-002     5.4365251189736341E-010
  -1.9899999999999987E-002    -1.4504778454715872E-011
  -1.8799999999999983E-002    -9.0459673085518943E-010
  -1.7699999999999994E-002    -2.1100179381505768E-009
  -1.6599999999999990E-002    -3.6174934159305394E-009
  -1.5499999999999986E-002    -5.4444679875587099E-009
  -1.4399999999999996E-002    -7.6170580953771605E-009
  -1.3299999999999992E-002    -1.0139797446129251E-008
  -1.2199999999999989E-002    -1.3019134215142003E-008
  -1.1099999999999985E-002    -1.6328007390598032E-008
  -9.9999999999999950E-003    -2.0232155506505478E-008
  -8.8999999999999913E-003    -2.4944204923826874E-008
  -7.7999999999999875E-003    -3.0673380280177298E-008
  -6.6999999999999837E-003    -3.7646618267217491E-008
  -5.5999999999999939E-003    -4.6176666046449100E-008
  -4.4999999999999901E-003    -5.6688602256826925E-008
  -3.3999999999999864E-003    -6.9684240600054181E-008
  -2.2999999999999826E-003    -8.5714063402519969E-008
  -1.1999999999999927E-003    -1.0539458372704757E-007
  -9.9999999999988987E-005    -1.2942291505169123E-007
   1.0000000000000148E-003    -1.5854800494707888E-007
   2.1000000000000185E-003    -1.9357351277449197E-007
   3.2000000000000084E-003    -2.3547224259345967E-007
   4.3000000000000121E-003    -2.8551994546432979E-007
   5.4000000000000159E-003    -3.4527204206824536E-007
   6.5000000000000058E-003    -4.1640618064775481E-007
   7.6000000000000234E-003    -5.0066842050000560E-007
   8.7000000000000133E-003    -6.0008181890225387E-007
   9.8000000000000032E-003    -7.1719500738254283E-007
   1.0900000000000021E-002    -8.5504524349744315E-007
   1.2000000000000011E-002    -1.0168513426833670E-006
   1.3100000000000001E-002    -1.2058590073138475E-006
   1.4200000000000018E-002    -1.4256005442803144E-006
   1.5300000000000008E-002    -1.6802611071398132E-006
   1.6400000000000026E-002    -1.9747324131458299E-006
   1.7500000000000016E-002    -2.3142797545006033E-006
   1.8600000000000005E-002    -2.7043554382544244E-006
   1.9700000000000023E-002    -3.1506776849710150E-006
   2.0800000000000013E-002    -3.6595229175873101E-006
   2.1900000000000003E-002    -4.2377232603030279E-006
   2.3000000000000020E-002    -4.8925498958851676E-006
   2.4100000000000010E-002    -5.6316775953746401E-006
   2.5200000000000000E-002    -6.4631117311364505E-006
   2.6300000000000018E-002    -7.3947762757597957E-006
   2.7400000000000008E-002    -8.4342182162799872E-006
   2.8500000000000025E-002    -9.5888135547284037E-006
   2.9600000000000015E-002    -1.0866277079912834E-005
   3.0700000000000005E-002    -1.2274726032046601E-005
   3.1800000000000023E-002    -1.3821676475345157E-005
   3.2900000000000013E-002    -1.5512969184783287E-005
   3.4000000000000002E-002    -1.7352867871522903E-005
   3.5100000000000020E-002    -1.9345037799212150E-005
   3.6200000000000010E-002    -2.1492800442501903E-005
   3.7300000000000028E-002    -2.3797992980689742E-005
   3.8400000000000017E-002    -2.6259625883540139E-005
   3.9500000000000007E-002    -2.8872655093437061E-005
   4.0600000000000025E-002    -3.1629220757167786E-005
   4.1700000000000015E-002    -3.4519034670665860E-005
   4.2800000000000005E-002    -3.7530207919189706E-005
   4.3900000000000022E-002    -4.0647788409842178E-005
   4.5000000000000012E-002    -4.3852058297488838E-005
   4.6100000000000002E-002    -4.7117708163568750E-005
   4.7200000000000020E-002    -5.0414859288139269E-005
   4.8300000000000010E-002    -5.3709569328930229E-005
   4.9400000000000027E-002    -5.6964923714986071E-005
   5.0500000000000017E-002    -6.0141312133055180E-005
   5.1600000000000007E-002    -6.3193445384968072E-005
   5.2700000000000025E-002    -6.6070300817955285E-005
   5.3800000000000014E-002    -6.8715351517312229E-005
   5.4900000000000004E-002    -7.1070011472329497E-005
   5.6000000000000022E-002    -7.3075367254205048E-005
   5.7100000000000012E-002    -7.4672978371381760E-005
   5.8200000000000002E-002    -7.5801814091391861E-005
   5.9300000000000019E-002    -7.6395146606955677E-005
   6.0400000000000009E-002    -7.6386699220165610E-005
   6.1500000000000027E-002    -7.5713862315751612E-005
   6.2600000000000017E-002    -7.4319010309409350E-005
   6.3700000000000007E-002    -7.2151851782109588E-005
   6.4800000000000024E-002    -6.9163732405286282E-005
   6.5900000000000014E-002    -6.5311105572618544E-005
   6.7000000000000004E-002    -6.0556572861969471E-005
   6.8100000000000022E-002    -5.4871488828212023E-005
   6.9200000000000012E-002    -4.8241516196867451E-005
   7.0300000000000029E-002    -4.0666287532076240E-005
   7.1400000000000019E-002    -3.2159852707991377E-005
   7.2500000000000009E-002    -2.2743655790691264E-005
   7.3600000000000027E-002    -1.2448886081983801E-005
   7.4700000000000016E-002    -1.3220324035501108E-006
   7.5800000000000006E-002     1.0569238838797901E-005
   7.6900000000000024E-002     2.3139557015383616E-005
   7.8000000000000014E-002     3.6289566196501255E-005
   7.9100000000000004E-002     4.9910049710888416E-005
   8.0200000000000021E-002     6.3884370320010930E-005
   8.1300000000000011E-002     7.8084900451358408E-005
   8.2400000000000029E-002     9.2367074103094637E-005
   8.3500000000000019E-002     1.0657421807991341E-004
   8.4600000000000009E-002     1.2054110266035423E-004
   8.5700000000000026E-002     1.3410231622401625E-004
   8.6800000000000016E-002     1.4709866081830114E-004
   8.7900000000000006E-002     1.5937157149892300E-004
   8.9000000000000024E-002     1.7076036601793021E-004
   9.0100000000000013E-002     1.8110407108906657E-004
   9.1200000000000003E-002     1.9024877110496163E-004
   9.2300000000000021E-002     1.9805548072326928E-004
   9.3400000000000011E-002     2.0440478692762554E-004
   9.4500000000000028E-002     2.0919647067785263E-004
   9.5600000000000018E-002     2.1234595624264330E-004
   9.6700000000000008E-002     2.1378241945058107E-004
   9.7800000000000026E-002     2.1344920969568193E-004
   9.8900000000000016E-002     2.1131279936525971E-004
  0.10000000000000001          2.0737458544317633E-004
  0.10110000000000002          2.0166722242720425E-004
  0.10220000000000001          1.9424354832153767E-004
  0.10330000000000003          1.8516846466809511E-004
  0.10440000000000002          1.7452161409892142E-004
  0.10550000000000001          1.6240419063251466E-004
  0.10660000000000003          1.4894978085067123E-004
  0.10770000000000002          1.3432104606181383E-004
  0.10880000000000001          1.1868745059473440E-004
  0.10990000000000003          1.0221768025076017E-004
  0.11100000000000002          8.5085332102607936E-005
  0.11210000000000001          6.7473753006197512E-005
  0.11320000000000002          4.9584104999667034E-005
  0.11430000000000001          3.1618455977877602E-005
  0.11540000000000003          1.3773425052931998E-005
  0.11650000000000002         -3.7610482195304940E-006
  0.11760000000000001         -2.0813298760913312E-005
  0.11870000000000003         -3.7223609979264438E-005
  0.11980000000000002         -5.2838575356872752E-005
  0.12090000000000001         -6.7515567934606224E-005
  0.12200000000000003         -8.1122037954628468E-005
  0.12310000000000001         -9.3545364507008344E-005
  0.12420000000000003         -1.0470343113411218E-004
  0.12530000000000002         -1.1454220657469705E-004
  0.12640000000000001         -1.2301748211029917E-004
  0.12750000000000003         -1.3009738177061081E-004
  0.12860000000000002         -1.3576215133070946E-004
  0.12970000000000001         -1.4001793169882149E-004
  0.13080000000000003         -1.4289761020336300E-004
  0.13190000000000002         -1.4445315173361450E-004
  0.13300000000000001         -1.4474622730631381E-004
  0.13410000000000000         -1.4384719543159008E-004
  0.13520000000000004         -1.4183160965330899E-004
  0.13630000000000003         -1.3878683967050165E-004
  0.13740000000000002         -1.3480865163728595E-004
  0.13850000000000001         -1.3000327453482896E-004
  0.13960000000000000         -1.2448435882106423E-004
  0.14070000000000005         -1.1836679914267734E-004
  0.14180000000000004         -1.1175713734701276E-004
  0.14290000000000003         -1.0475279123056680E-004
  0.14400000000000002         -9.7450640168972313E-005
  0.14510000000000001         -8.9953136921394616E-005
  0.14620000000000000         -8.2362705143168569E-005
  0.14730000000000004         -7.4769799539353698E-005
  0.14840000000000003         -6.7249391577206552E-005
  0.14950000000000002         -5.9867437812499702E-005
  0.15060000000000001         -5.2686405979329720E-005
  0.15170000000000000         -4.5762611989630386E-005
  0.15280000000000005         -3.9143094909377396E-005
  0.15390000000000004         -3.2866664696484804E-005
  0.15500000000000003         -2.6967642043018714E-005
  0.15610000000000002         -2.1471973013831303E-005
  0.15720000000000001         -1.6390280507039279E-005
  0.15830000000000000         -1.1722083399945404E-005
  0.15940000000000004         -7.4671529546321835E-006
  0.16050000000000003         -3.6318206184660085E-006
  0.16160000000000002         -2.1708467556891264E-007
  0.16270000000000001          2.7897090149053838E-006
  0.16380000000000000          5.4143811212270521E-006
  0.16490000000000005          7.6813457781099714E-006
  0.16600000000000004          9.6079938884940930E-006
  0.16710000000000003          1.1210358934476972E-005
  0.16820000000000002          1.2510535270848777E-005
  0.16930000000000001          1.3535559446609113E-005
  0.17040000000000000          1.4310136066342238E-005
  0.17150000000000004          1.4856562302156817E-005
  0.17260000000000003          1.5200765119516291E-005
  0.17370000000000002          1.5371355402749032E-005
  0.17480000000000001          1.5390340195153840E-005
  0.17590000000000000          1.5270436051650904E-005
  0.17700000000000005          1.5025697393866722E-005
  0.17810000000000004          1.4680709682579618E-005
  0.17920000000000003          1.4262616787164006E-005
  0.18030000000000002          1.3786955605610274E-005
  0.18140000000000001          1.3256448255560827E-005
  0.18250000000000000          1.2675817743001971E-005
  0.18360000000000004          1.2062030691595282E-005
  0.18470000000000003          1.1435803571657743E-005
  0.18580000000000002          1.0806111276906449E-005
  0.18690000000000001          1.0171008398174308E-005
  0.18800000000000000          9.5322584456880577E-006
  0.18910000000000005          8.9008735812967643E-006
  0.19020000000000004          8.2875085354316980E-006
  0.19130000000000003          7.6923852248000912E-006
  0.19240000000000002          7.1125045906228479E-006
  0.19350000000000001          6.5518333940417506E-006
  0.19460000000000005          6.0188926909177098E-006
  0.19570000000000004          5.5146783779491670E-006
  0.19680000000000003          5.0321832532063127E-006
  0.19790000000000002          4.5699175643676426E-006
  0.19900000000000001          4.1379726098966785E-006
  0.20010000000000000          3.7450083709700266E-006
  0.20120000000000005          3.3852968499559211E-006
  0.20230000000000004          3.0454987154371338E-006
  0.20340000000000003          2.7239823339186842E-006
  0.20450000000000002          2.4340265554201324E-006
  0.20560000000000000          2.1852540612599114E-006
  0.20670000000000005          1.9704982605617261E-006
  0.20780000000000004          1.7760454511517310E-006
  0.20890000000000003          1.6006235910026589E-006
