 -0.12000000000000000          0.0000000000000000
 -0.11889999999999999          0.0000000000000000
 -0.11780000000000000          0.0000000000000000
 -0.11670000000000000          0.0000000000000000
 -0.11559999999999999          0.0000000000000000
 -0.11449999999999999          0.0000000000000000
 -0.11340000000000000          0.0000000000000000
 -0.11230000000000000          0.0000000000000000
 -0.11119999999999999          0.0000000000000000
 -0.11009999999999999          0.0000000000000000
 -0.10900000000000000         -3.7337495265959402E-029
 -0.10790000000000000          1.5412522204591746E-029
 -0.10679999999999999          4.7066140796302623E-028
 -0.10569999999999999         -3.4946323841584510E-029
 -0.10460000000000000         -2.2726608900651031E-027
 -0.10349999999999999          2.3659381069106490E-027
 -0.10239999999999999          5.7739529955264993E-027
 -0.10130000000000000         -4.9473507197060997E-026
 -0.10020000000000000         -7.3761551474172335E-026
  -9.9099999999999994E-002     3.5826196896702773E-025
  -9.7999999999999990E-002     9.5600830369331328E-025
  -9.6899999999999986E-002    -7.2430299392805301E-025
  -9.5799999999999996E-002    -5.5817533622640811E-024
  -9.4699999999999993E-002    -4.8780910125287490E-024
  -9.3599999999999989E-002     1.3090433591884371E-023
  -9.2499999999999999E-002     3.3913111382789572E-023
  -9.1399999999999995E-002     1.4170013406506482E-023
  -9.0299999999999991E-002    -5.5987029854458408E-023
  -8.9200000000000002E-002    -1.2020262363506650E-022
  -8.8099999999999984E-002    -1.4259972264238628E-022
  -8.6999999999999994E-002    -8.8055128108568111E-023
  -8.5899999999999990E-002     3.6373937101988827E-022
  -8.4799999999999986E-002     1.5562618655683319E-021
  -8.3699999999999997E-002     2.2292355949590707E-021
  -8.2599999999999993E-002    -1.1398400408912795E-021
  -8.1499999999999989E-002    -9.5910388413108809E-021
  -8.0399999999999999E-002    -1.4230807180426619E-020
  -7.9299999999999995E-002     2.0210546972002663E-022
  -7.8199999999999992E-002     3.4533236379266101E-020
  -7.7100000000000002E-002     5.9679594855537766E-020
  -7.5999999999999984E-002     3.5590618771353222E-020
  -7.4899999999999994E-002    -5.0935827260583434E-020
  -7.3799999999999991E-002    -1.7517762178948940E-019
  -7.2699999999999987E-002    -2.7621109031854717E-019
  -7.1599999999999997E-002    -2.1148623656371292E-019
  -7.0499999999999993E-002     2.4874892662633393E-019
  -6.9399999999999989E-002     1.1344288894724540E-018
  -6.8300000000000000E-002     1.7642918741531276E-018
  -6.7199999999999996E-002     7.9612075603348575E-019
  -6.6099999999999992E-002    -2.4487966523402526E-018
  -6.5000000000000002E-002    -6.2714464171315594E-018
  -6.3899999999999985E-002    -6.7751018028640720E-018
  -6.2799999999999995E-002    -7.9459202286391119E-019
  -6.1699999999999991E-002     1.0857178155218853E-017
  -6.0599999999999994E-002     2.2700522691084652E-017
  -5.9499999999999990E-002     2.5839884873960205E-017
  -5.8399999999999994E-002     9.5859066056626442E-018
  -5.7299999999999990E-002    -3.2789320367593809E-017
  -5.6199999999999986E-002    -8.9371035217397367E-017
  -5.5099999999999996E-002    -1.1655933036893741E-016
  -5.3999999999999992E-002    -5.5178508819725752E-017
  -5.2899999999999989E-002     1.1382574328991097E-016
  -5.1799999999999985E-002     3.1578529121141150E-016
  -5.0699999999999995E-002     3.9751605615735057E-016
  -4.9599999999999991E-002     2.2280121710516621E-016
  -4.8499999999999988E-002    -2.2402880607375411E-016
  -4.7399999999999998E-002    -7.9938369114166091E-016
  -4.6299999999999994E-002    -1.2179050526601749E-015
  -4.5199999999999990E-002    -1.0986550956645046E-015
  -4.4099999999999986E-002    -1.1228361393031611E-016
  -4.2999999999999997E-002     1.6862908732066350E-015
  -4.1899999999999993E-002     3.5227636525767729E-015
  -4.0799999999999989E-002     4.0350841191852480E-015
  -3.9699999999999985E-002     2.1037196151627502E-015
  -3.8599999999999995E-002    -2.1420510323995594E-015
  -3.7499999999999992E-002    -7.0666569655392780E-015
  -3.6399999999999988E-002    -1.0296894189891753E-014
  -3.5299999999999984E-002    -9.7682134936652974E-015
  -3.4199999999999994E-002    -4.2955306568399475E-015
  -3.3099999999999991E-002     6.0231958072672846E-015
  -3.1999999999999987E-002     1.8899653028573229E-014
  -3.0899999999999997E-002     2.9128456780934051E-014
  -2.9799999999999993E-002     2.9913744414465301E-014
  -2.8699999999999989E-002     1.6592447088601553E-014
  -2.7599999999999986E-002    -1.0003585314982428E-014
  -2.6499999999999996E-002    -4.3556954917867152E-014
  -2.5399999999999992E-002    -7.4719215732189925E-014
  -2.4299999999999988E-002    -9.2170032457011830E-014
  -2.3199999999999985E-002    -8.1799950385312570E-014
  -2.2099999999999995E-002    -2.9474032670886649E-014
  -2.0999999999999991E-002     6.8364998178586239E-014
  -1.9899999999999987E-002     1.9201606721742231E-013
  -1.8799999999999983E-002     2.9645472817037277E-013
  -1.7699999999999994E-002     3.2548079899677451E-013
  -1.6599999999999990E-002     2.3350925685249047E-013
  -1.5499999999999986E-002     3.0122278843881627E-015
  -1.4399999999999996E-002    -3.4366398073658322E-013
  -1.3299999999999992E-002    -7.3275565302954870E-013
  -1.2199999999999989E-002    -1.0337138046587202E-012
  -1.1099999999999985E-002    -1.0800305962066492E-012
  -9.9999999999999950E-003    -7.2678337957252093E-013
  -8.8999999999999913E-003     7.5429225853632792E-014
  -7.7999999999999875E-003     1.2280000150424741E-012
  -6.6999999999999837E-003     2.4742840155217438E-012
  -5.5999999999999939E-003     3.4267822954237026E-012
  -4.4999999999999901E-003     3.6274596607738241E-012
  -3.3999999999999864E-003     2.6573741037511089E-012
  -2.2999999999999826E-003     3.0402863928670476E-013
  -1.1999999999999927E-003    -3.2564784202548935E-012
  -9.9999999999988987E-005    -7.3510459872028200E-012
   1.0000000000000148E-003    -1.0849150570979571E-011
   2.1000000000000185E-003    -1.2364894698413398E-011
   3.2000000000000084E-003    -1.0590588302161752E-011
   4.3000000000000121E-003    -4.7172218388402687E-012
   5.4000000000000159E-003     5.1288743217747790E-012
   6.5000000000000058E-003     1.7563454163260772E-011
   7.6000000000000234E-003     2.9900630582613275E-011
   8.7000000000000133E-003     3.8495193144250095E-011
   9.8000000000000032E-003     3.9456410361182748E-011
   1.0900000000000021E-002     2.9622818087382541E-011
   1.2000000000000011E-002     7.6442567553680618E-012
   1.3100000000000001E-002    -2.5039017734207469E-011
   1.4200000000000018E-002    -6.3623939450252465E-011
   1.5300000000000008E-002    -1.0011140527677043E-010
   1.6400000000000026E-002    -1.2439604901715029E-010
   1.7500000000000016E-002    -1.2618806000119775E-010
   1.8600000000000005E-002    -9.7444913249589149E-011
   1.9700000000000023E-002    -3.4873583187877699E-011
   2.0800000000000013E-002     5.8033546718183615E-011
   2.1900000000000003E-002     1.7009441077853182E-010
   2.3000000000000020E-002     2.8332317048018751E-010
   2.4100000000000010E-002     3.7591479928877902E-010
   2.5200000000000000E-002     4.2700784574911665E-010
   2.6300000000000018E-002     4.2232667363251153E-010
   2.7400000000000008E-002     3.5951921995014402E-010
   2.8500000000000025E-002     2.5193250263733091E-010
   2.9600000000000015E-002     1.2956011263831613E-010
   3.0700000000000005E-002     3.6098537353757010E-011
   3.1800000000000023E-002     2.1662595328653111E-011
   3.2900000000000013E-002     1.3178010072056878E-010
   3.4000000000000002E-002     3.9438954879678079E-010
   3.5100000000000020E-002     8.0729167795112744E-010
   3.6200000000000010E-002     1.3287080324886347E-009
   3.7300000000000028E-002     1.8733157247652343E-009
   3.8400000000000017E-002     2.3153723383018132E-009
   3.9500000000000007E-002     2.4991959612918890E-009
   4.0600000000000025E-002     2.2556616574576083E-009
   4.1700000000000015E-002     1.4215175703213845E-009
   4.2800000000000005E-002    -1.4196914477349054E-010
   4.3900000000000022E-002    -2.5352371313402955E-009
   4.5000000000000012E-002    -5.8151328197197927E-009
   4.6100000000000002E-002    -1.0000562156164960E-008
   4.7200000000000020E-002    -1.5089957727809633E-008
   4.8300000000000010E-002    -2.1089638480020767E-008
   4.9400000000000027E-002    -2.8050106237742511E-008
   5.0500000000000017E-002    -3.6104694345340249E-008
   5.1600000000000007E-002    -4.5506805435024944E-008
   5.2700000000000025E-002    -5.6659430924810295E-008
   5.3800000000000014E-002    -7.0135477869825991E-008
   5.4900000000000004E-002    -8.6684948996662570E-008
   5.6000000000000022E-002    -1.0723424992420405E-007
   5.7100000000000012E-002    -1.3287890965330007E-007
   5.8200000000000002E-002    -1.6487346954363602E-007
   5.9300000000000019E-002    -2.0462867666992679E-007
   6.0400000000000009E-002    -2.5372389700351050E-007
   6.1500000000000027E-002    -3.1393054200634651E-007
   6.2600000000000017E-002    -3.8726111029063759E-007
   6.3700000000000007E-002    -4.7603131747564476E-007
   6.4800000000000024E-002    -5.8293511528972886E-007
   6.5900000000000014E-002    -7.1113220201368676E-007
   6.7000000000000004E-002    -8.6432430634886259E-007
   6.8100000000000022E-002    -1.0468224900250789E-006
   6.9200000000000012E-002    -1.2636063502213801E-006
   7.0300000000000029E-002    -1.5203681869024877E-006
   7.1400000000000019E-002    -1.8235614334116690E-006
   7.2500000000000009E-002    -2.1804185053042602E-006
   7.3600000000000027E-002    -2.5989854748331709E-006
   7.4700000000000016E-002    -3.0881731163390214E-006
   7.5800000000000006E-002    -3.6578217077476438E-006
   7.6900000000000024E-002    -4.3187378651055042E-006
   7.8000000000000014E-002    -5.0827779887185898E-006
   7.9100000000000004E-002    -5.9628714552673046E-006
   8.0200000000000021E-002    -6.9730394898215309E-006
   8.1300000000000011E-002    -8.1283942563459277E-006
   8.2400000000000029E-002    -9.4450706455972977E-006
   8.3500000000000019E-002    -1.0940133506665006E-005
   8.4600000000000009E-002    -1.2631559002329595E-005
   8.5700000000000026E-002    -1.4537885363097303E-005
   8.6800000000000016E-002    -1.6678088286425918E-005
   8.7900000000000006E-002    -1.9071405404247344E-005
   8.9000000000000024E-002    -2.1737063434557058E-005
   9.0100000000000013E-002    -2.4693954401300289E-005
   9.1200000000000003E-002    -2.7960326406173408E-005
   9.2300000000000021E-002    -3.1553190638078377E-005
   9.3400000000000011E-002    -3.5487792047206312E-005
   9.4500000000000028E-002    -3.9777489291736856E-005
   9.5600000000000018E-002    -4.4432970753405243E-005
   9.6700000000000008E-002    -4.9461617891211063E-005
   9.7800000000000026E-002    -5.4866224672878161E-005
   9.8900000000000016E-002    -6.0645241319434717E-005
  0.10000000000000001         -6.6791239078156650E-005
  0.10110000000000002         -7.3290706495754421E-005
  0.10220000000000001         -8.0123158113565296E-005
  0.10330000000000003         -8.7260101281572133E-005
  0.10440000000000002         -9.4664210337214172E-005
  0.10550000000000001         -1.0228889004793018E-004
  0.10660000000000003         -1.1007823195541278E-004
  0.10770000000000002         -1.1796578473877162E-004
  0.10880000000000001         -1.2587555102072656E-004
  0.10990000000000003         -1.3371976092457771E-004
  0.11100000000000002         -1.4140055282041430E-004
  0.11210000000000001         -1.4880979142617434E-004
  0.11320000000000002         -1.5582947526127100E-004
  0.11430000000000001         -1.6233220230787992E-004
  0.11540000000000003         -1.6818188305478543E-004
  0.11650000000000002         -1.7323515203315765E-004
  0.11760000000000001         -1.7734385619405657E-004
  0.11870000000000003         -1.8035570974461734E-004
  0.11980000000000002         -1.8211448332294822E-004
  0.12090000000000001         -1.8246597028337419E-004
  0.12200000000000003         -1.8125795759260654E-004
  0.12310000000000001         -1.7834569734986871E-004
  0.12420000000000003         -1.7359232879243791E-004
  0.12530000000000002         -1.6687382594682276E-004
  0.12640000000000001         -1.5808038006071001E-004
  0.12750000000000003         -1.4711839321535081E-004
  0.12860000000000002         -1.3391721586231142E-004
  0.12970000000000001         -1.1842954700114205E-004
  0.13080000000000003         -1.0063846275443211E-004
  0.13190000000000002         -8.0554069427307695E-005
  0.13300000000000001         -5.8216195611748844E-005
  0.13410000000000000         -3.3700165658956394E-005
  0.13520000000000004         -7.1172962634591386E-006
  0.13630000000000003          2.1385058062151074E-005
  0.13740000000000002          5.1622966566355899E-005
  0.13850000000000001          8.3378639828879386E-005
  0.13960000000000000          1.1639686999842525E-004
  0.14070000000000005          1.5039430581964552E-004
  0.14180000000000004          1.8505357729736716E-004
  0.14290000000000003          2.2003038611728698E-004
  0.14400000000000002          2.5495764566585422E-004
  0.14510000000000001          2.8945028316229582E-004
  0.14620000000000000          3.2311162794940174E-004
  0.14730000000000004          3.5553696216084063E-004
  0.14840000000000003          3.8631836650893092E-004
  0.14950000000000002          4.1505097760818899E-004
  0.15060000000000001          4.4134145718999207E-004
  0.15170000000000000          4.6481637400574982E-004
  0.15280000000000005          4.8512814100831747E-004
  0.15390000000000004          5.0195859512314200E-004
  0.15500000000000003          5.1502336282283068E-004
  0.15610000000000002          5.2408035844564438E-004
  0.15720000000000001          5.2893575048074126E-004
  0.15830000000000000          5.2944838535040617E-004
  0.15940000000000004          5.2553170826286077E-004
  0.16050000000000003          5.1715428708121181E-004
  0.16160000000000002          5.0434138393029571E-004
  0.16270000000000001          4.8717772006057203E-004
  0.16380000000000000          4.6580799971707165E-004
  0.16490000000000005          4.4043231173418462E-004
  0.16600000000000004          4.1130417957901955E-004
  0.16710000000000003          3.7872820394113660E-004
  0.16820000000000002          3.4305130247958004E-004
  0.16930000000000001          3.0466163298115134E-004
  0.17040000000000000          2.6398140471428633E-004
  0.17150000000000004          2.2146107221487910E-004
  0.17260000000000003          1.7757205932866782E-004
  0.17370000000000002          1.3280083658173680E-004
  0.17480000000000001          8.7634965893812478E-005
  0.17590000000000000          4.2555464460747316E-005
  0.17700000000000005         -1.9617539237515302E-006
  0.17810000000000004         -4.5456854422809556E-005
  0.17920000000000003         -8.7491600424982607E-005
  0.18030000000000002         -1.2765995052177459E-004
  0.18140000000000001         -1.6559322830289602E-004
  0.18250000000000000         -2.0096277876291424E-004
  0.18360000000000004         -2.3347941169049591E-004
  0.18470000000000003         -2.6290208916179836E-004
  0.18580000000000002         -2.8903628117404878E-004
  0.18690000000000001         -3.1173683237284422E-004
  0.18800000000000000         -3.3091238583438098E-004
  0.18910000000000005         -3.4652091562747955E-004
  0.19020000000000004         -3.5856646718457341E-004
  0.19130000000000003         -3.6709816777147353E-004
  0.19240000000000002         -3.7220391095615923E-004
  0.19350000000000001         -3.7401216104626656E-004
  0.19460000000000005         -3.7268866435624659E-004
  0.19570000000000004         -3.6843121051788330E-004
  0.19680000000000003         -3.6146282218396664E-004
  0.19790000000000002         -3.5202439175918698E-004
  0.19900000000000001         -3.4037017030641437E-004
  0.20010000000000000         -3.2676683622412384E-004
  0.20120000000000005         -3.1149090500548482E-004
  0.20230000000000004         -2.9482250101864338E-004
  0.20340000000000003         -2.7703790692612529E-004
  0.20450000000000002         -2.5840345188044012E-004
  0.20560000000000000         -2.3917399812489748E-004
  0.20670000000000005         -2.1959339210297912E-004
  0.20780000000000004         -1.9989245629403740E-004
  0.20890000000000003         -1.8028587510343641E-004
