 -0.12000000000000000          0.0000000000000000
 -0.11889999999999999          0.0000000000000000
 -0.11780000000000000          0.0000000000000000
 -0.11670000000000000          1.2546763107634806E-011
 -0.11559999999999999          1.3697698357517663E-011
 -0.11449999999999999         -3.8519895606548005E-011
 -0.11340000000000000         -6.0436974869126914E-011
 -0.11230000000000000          8.1728152023785583E-011
 -0.11119999999999999          2.1664790794684308E-010
 -0.11009999999999999         -3.4040648771993531E-011
 -0.10900000000000000         -4.8208015357431577E-010
 -0.10790000000000000         -2.7206725761175221E-010
 -0.10679999999999999          7.1667316525747538E-010
 -0.10569999999999999          1.0246068438135580E-009
 -0.10460000000000000         -4.2161371616167287E-010
 -0.10349999999999999         -1.8818460123526393E-009
 -0.10239999999999999         -6.0493371423220310E-010
 -0.10130000000000000          2.4258608455340891E-009
 -0.10020000000000000          2.5024644578763855E-009
  -9.9099999999999994E-002    -1.8537312795885441E-009
  -9.7999999999999990E-002    -4.8300932142808506E-009
  -9.6899999999999986E-002    -6.5602190346680800E-010
  -9.5799999999999996E-002     6.4043961245374703E-009
  -9.4699999999999993E-002     5.8165956495770388E-009
  -9.3599999999999989E-002    -3.7803484786991248E-009
  -9.2499999999999999E-002    -9.8755377209158723E-009
  -9.1399999999999995E-002    -2.5646955670310945E-009
  -9.0299999999999991E-002     9.5434922187109805E-009
  -8.9200000000000002E-002     9.3254044486457133E-009
  -8.8099999999999984E-002    -4.2170653635764666E-009
  -8.6999999999999994E-002    -1.2694465922891141E-008
  -8.5899999999999990E-002    -3.9122274309022487E-009
  -8.4799999999999986E-002     9.9853574297981140E-009
  -8.3699999999999997E-002     9.7387955477756805E-009
  -8.2599999999999993E-002    -2.9502917886503610E-009
  -8.1499999999999989E-002    -8.7990654762393206E-009
  -8.0399999999999999E-002    -8.1173451293992116E-010
  -7.9299999999999995E-002     5.8460414287253570E-009
  -7.8199999999999992E-002    -3.1166638714275052E-010
  -7.7100000000000002E-002    -7.3374866182973619E-009
  -7.5999999999999984E-002     2.7996381254946634E-012
  -7.4899999999999994E-002     1.1606410055264860E-008
  -7.3799999999999991E-002     4.7742694242458583E-009
  -7.2699999999999987E-002    -1.6707261352166825E-008
  -7.1599999999999997E-002    -2.0919515009154566E-008
  -7.0499999999999993E-002     5.0187183298078253E-009
  -6.9399999999999989E-002     2.8315376709997508E-008
  -6.8300000000000000E-002     1.2549715933118932E-008
  -6.7199999999999996E-002    -2.6887235549111210E-008
  -6.6099999999999992E-002    -3.8675214142358527E-008
  -6.5000000000000002E-002    -6.8533321240238365E-009
  -6.3899999999999985E-002     2.4597765602152322E-008
  -6.2799999999999995E-002     1.2648419200900207E-008
  -6.1699999999999991E-002    -2.5250077584360042E-008
  -6.0599999999999994E-002    -3.9292253006806277E-008
  -5.9499999999999990E-002    -1.9405957729645706E-008
  -5.8399999999999994E-002    -3.7933354235519801E-009
  -5.7299999999999990E-002    -1.5909032313743410E-008
  -5.6199999999999986E-002    -3.1354559837382112E-008
  -5.5099999999999996E-002    -2.4939035725424219E-008
  -5.3999999999999992E-002    -1.7683355224562547E-008
  -5.2899999999999989E-002    -4.2298232472148811E-008
  -5.1799999999999985E-002    -8.0369730426355090E-008
  -5.0699999999999995E-002    -7.9861493418320606E-008
  -4.9599999999999991E-002    -3.7820235831986793E-008
  -4.8499999999999988E-002    -1.9364243541986070E-008
  -4.7399999999999998E-002    -6.9072584096829814E-008
  -4.6299999999999994E-002    -1.3949038191185537E-007
  -4.5199999999999990E-002    -1.5010579090812826E-007
  -4.4099999999999986E-002    -1.0016910323429329E-007
  -4.2999999999999997E-002    -7.1637082044162526E-008
  -4.1899999999999993E-002    -1.1485134621125326E-007
  -4.0799999999999989E-002    -1.8240923793655384E-007
  -3.9699999999999985E-002    -2.0373700237996673E-007
  -3.8599999999999995E-002    -1.8455834549513384E-007
  -3.7499999999999992E-002    -1.8543796898029541E-007
  -3.6399999999999988E-002    -2.2232617880035832E-007
  -3.5299999999999984E-002    -2.4806934106891276E-007
  -3.4199999999999994E-002    -2.3901060330899782E-007
  -3.3099999999999991E-002    -2.4110497065521486E-007
  -3.1999999999999987E-002    -2.9346924179662892E-007
  -3.0899999999999997E-002    -3.5241561135990196E-007
  -2.9799999999999993E-002    -3.4680181215662742E-007
  -2.8699999999999989E-002    -2.9016138114457135E-007
  -2.7599999999999986E-002    -2.7534269975149073E-007
  -2.6499999999999996E-002    -3.4248205338371918E-007
  -2.5399999999999992E-002    -4.1504787873236637E-007
  -2.4299999999999988E-002    -4.0508092524760286E-007
  -2.3199999999999985E-002    -3.3570870527910301E-007
  -2.2099999999999995E-002    -3.0330201639117149E-007
  -2.0999999999999991E-002    -3.3739195259840926E-007
  -1.9899999999999987E-002    -3.6659477586908906E-007
  -1.8799999999999983E-002    -3.3285138556493621E-007
  -1.7699999999999994E-002    -2.7575558192438621E-007
  -1.6599999999999990E-002    -2.5786386004256201E-007
  -1.5499999999999986E-002    -2.6012665443886362E-007
  -1.4399999999999996E-002    -2.1460601828948711E-007
  -1.3299999999999992E-002    -1.2144278116466012E-007
  -1.2199999999999989E-002    -5.5729291403849857E-008
  -1.1099999999999985E-002    -5.3928445709061634E-008
  -9.9999999999999950E-003    -4.5399307424531798E-008
  -8.8999999999999913E-003     4.4545103605742042E-008
  -7.7999999999999875E-003     1.8429415149512351E-007
  -6.6999999999999837E-003     2.7275777370050491E-007
  -5.5999999999999939E-003     2.8882885771963629E-007
  -4.4999999999999901E-003     3.1590053595209611E-007
  -3.3999999999999864E-003     4.1785412463468674E-007
  -2.2999999999999826E-003     5.4669470728185843E-007
  -1.1999999999999927E-003     6.2474163087244960E-007
  -9.9999999999988987E-005     6.5641705759844626E-007
   1.0000000000000148E-003     7.1416388891520910E-007
   2.1000000000000185E-003     8.1649153571561328E-007
   3.2000000000000084E-003     8.9886560772356461E-007
   4.3000000000000121E-003     9.1815945779671893E-007
   5.4000000000000159E-003     9.2541517915378790E-007
   6.5000000000000058E-003     9.8339910437061917E-007
   7.6000000000000234E-003     1.0655089681677055E-006
   8.7000000000000133E-003     1.0883503591685439E-006
   9.8000000000000032E-003     1.0390381248726044E-006
   1.0900000000000021E-002     9.9678072729147971E-007
   1.2000000000000011E-002     1.0125141898242873E-006
   1.3100000000000001E-002     1.0373368013461004E-006
   1.4200000000000018E-002     9.9513817986007780E-007
   1.5300000000000008E-002     8.9499832256478840E-007
   1.6400000000000026E-002     8.1251329220322077E-007
   1.7500000000000016E-002     7.7224905226103147E-007
   1.8600000000000005E-002     7.1766601195122348E-007
   1.9700000000000023E-002     6.0625114883805509E-007
   2.0800000000000013E-002     4.7559689164700103E-007
   2.1900000000000003E-002     3.8148775161062076E-007
   2.3000000000000020E-002     3.0989002652859199E-007
   2.4100000000000010E-002     2.0237952469415177E-007
   2.5200000000000000E-002     5.3513719677766858E-008
   2.6300000000000018E-002    -7.7344267879198014E-008
   2.7400000000000008E-002    -1.5739550462967600E-007
   2.8500000000000025E-002    -2.2971394741944096E-007
   2.9600000000000015E-002    -3.4592315500958648E-007
   3.0700000000000005E-002    -4.8203037295024842E-007
   3.1800000000000023E-002    -5.7516024298820412E-007
   3.2900000000000013E-002    -6.1814540686100372E-007
   3.4000000000000002E-002    -6.6186265712531167E-007
   3.5100000000000020E-002    -7.4028815788551583E-007
   3.6200000000000010E-002    -8.1810878782562213E-007
   3.7300000000000028E-002    -8.4924124621466035E-007
   3.8400000000000017E-002    -8.4835374991598655E-007
   3.9500000000000007E-002    -8.5529751459034742E-007
   4.0600000000000025E-002    -8.7638528611932998E-007
   4.1700000000000015E-002    -8.7417657823607442E-007
   4.2800000000000005E-002    -8.3516943050199188E-007
   4.3900000000000022E-002    -7.8992070484673604E-007
   4.5000000000000012E-002    -7.6796078474217211E-007
   4.6100000000000002E-002    -7.4293296847827150E-007
   4.7200000000000020E-002    -6.8306502498671762E-007
   4.8300000000000010E-002    -6.0172453686391236E-007
   4.9400000000000027E-002    -5.3492692586587509E-007
   5.0500000000000017E-002    -4.8403131813756772E-007
   5.1600000000000007E-002    -4.2725653770503413E-007
   5.2700000000000025E-002    -3.4915626656584209E-007
   5.3800000000000014E-002    -2.6980509915119910E-007
   5.4900000000000004E-002    -2.1115302217822318E-007
   5.6000000000000022E-002    -1.5829490962460113E-007
   5.7100000000000012E-002    -8.8913928664169362E-008
   5.8200000000000002E-002    -1.8037052740282888E-008
   5.9300000000000019E-002     2.8397511897537697E-008
   6.0400000000000009E-002     5.6829499328614475E-008
   6.1500000000000027E-002     9.4652079951629275E-008
   6.2600000000000017E-002     1.4925882396710222E-007
   6.3700000000000007E-002     1.9410360607707844E-007
   6.4800000000000024E-002     2.0954496449121507E-007
   6.5900000000000014E-002     2.1309928399659839E-007
   6.7000000000000004E-002     2.2903799390405766E-007
   6.8100000000000022E-002     2.4809403953440778E-007
   6.9200000000000012E-002     2.4645402163514518E-007
   7.0300000000000029E-002     2.3058005638176837E-007
   7.1400000000000019E-002     2.3136010440794053E-007
   7.2500000000000009E-002     2.5034071882146236E-007
   7.3600000000000027E-002     2.4823509647831088E-007
   7.4700000000000016E-002     2.0572115033701266E-007
   7.5800000000000006E-002     1.6116568701818323E-007
   7.6900000000000024E-002     1.6002783809199173E-007
   7.8000000000000014E-002     1.8440999838276184E-007
   7.9100000000000004E-002     1.7616694947264477E-007
   8.0200000000000021E-002     1.2305440577620175E-007
   8.1300000000000011E-002     7.6615044974914781E-008
   8.2400000000000029E-002     7.3800684674552031E-008
   8.3500000000000019E-002     8.3751956481137313E-008
   8.4600000000000009E-002     6.2249263521607645E-008
   8.5700000000000026E-002     2.3246075286920131E-008
   8.6800000000000016E-002     1.6495299348662229E-008
   8.7900000000000006E-002     3.9690277731097012E-008
   8.9000000000000024E-002     3.4126802717082683E-008
   9.0100000000000013E-002    -1.9331535483502194E-008
   9.1200000000000003E-002    -5.9398058027682055E-008
   9.2300000000000021E-002    -3.2653833414997280E-008
   9.3400000000000011E-002     1.8594629835888554E-008
   9.4500000000000028E-002     1.1409582612031954E-008
   9.5600000000000018E-002    -5.3418059309251475E-008
   9.6700000000000008E-002    -8.8500684114478645E-008
   9.7800000000000026E-002    -4.9191214657184901E-008
   9.8900000000000016E-002     1.0953102869137865E-009
  0.10000000000000001         -1.2025165752049816E-008
  0.10110000000000002         -6.0184802919138747E-008
  0.10220000000000001         -6.1688218977451470E-008
  0.10330000000000003         -1.1875352257106897E-008
  0.10440000000000002          7.5020727408059429E-009
  0.10550000000000001         -3.8994414808257716E-008
  0.10660000000000003         -7.9078880332872359E-008
  0.10770000000000002         -4.3054537712805541E-008
  0.10880000000000001          2.2969574686726446E-008
  0.10990000000000003          2.0912205300760434E-008
  0.11100000000000002         -4.5606874721215718E-008
  0.11210000000000001         -7.4063834176740784E-008
  0.11320000000000002         -1.7234395244258849E-008
  0.11430000000000001          4.3148133954673540E-008
  0.11540000000000003          1.9996633682239917E-008
  0.11650000000000002         -4.5370054380100555E-008
  0.11760000000000001         -4.8540716335310208E-008
  0.11870000000000003          1.5440820178014292E-008
  0.11980000000000002          4.4282646882720655E-008
  0.12090000000000001         -1.0679522155498944E-008
  0.12200000000000003         -6.4244872532981390E-008
  0.12310000000000001         -2.7902615329367109E-008
  0.12420000000000003          4.9718170913592985E-008
  0.12530000000000002          5.3609262806730840E-008
  0.12640000000000001         -2.1966476637658161E-008
  0.12750000000000003         -6.2674722300926078E-008
  0.12860000000000002         -7.9797244367796338E-009
  0.12970000000000001          5.7022592869770961E-008
  0.13080000000000003          3.3374067953673148E-008
  0.13190000000000002         -3.9684262986838803E-008
  0.13300000000000001         -4.6952969512403797E-008
  0.13410000000000000          2.2535830979109051E-008
  0.13520000000000004          5.8706966399313387E-008
  0.13630000000000003          2.5606556874890885E-009
  0.13740000000000002         -5.9570304244971339E-008
  0.13850000000000001         -2.8605507296219912E-008
  0.13960000000000000          5.1940691747631718E-008
  0.14070000000000005          6.0009412550243724E-008
  0.14180000000000004         -1.8236038457075665E-008
  0.14290000000000003         -6.6697019462935714E-008
  0.14400000000000002         -1.5545227327606881E-008
  0.14510000000000001          5.4206207522611294E-008
  0.14620000000000000          3.7225586169142844E-008
  0.14730000000000004         -3.5202514681031971E-008
  0.14840000000000003         -4.7831214544657996E-008
  0.14950000000000002          1.7906534921507955E-008
  0.15060000000000001          5.5836768098060929E-008
  0.15170000000000000          3.0273894502386156E-009
  0.15280000000000005         -5.9777491401291627E-008
  0.15390000000000004         -3.1957792856474043E-008
  0.15500000000000003          4.8956188436477532E-008
  0.15610000000000002          6.1418276686708850E-008
  0.15720000000000001         -1.5408028630758963E-008
  0.15830000000000000         -6.8933196928355756E-008
  0.15940000000000004         -2.2506791097498535E-008
  0.16050000000000003          5.1703128889357686E-008
  0.16160000000000002          4.5247048774399445E-008
  0.16270000000000001         -2.4420524269430643E-008
  0.16380000000000000         -4.7835452932076805E-008
  0.16490000000000005          5.8923430579227443E-009
  0.16600000000000004          4.6825618937873514E-008
  0.16710000000000003          9.5191987625753427E-009
  0.16820000000000002         -4.4487908468227033E-008
  0.16930000000000001         -2.5938254211155254E-008
  0.17040000000000000          3.9276610408478518E-008
  0.17150000000000004          4.8472529101672990E-008
  0.17260000000000003         -1.7827963105787603E-008
  0.17370000000000002         -6.2306334314143896E-008
  0.17480000000000001         -1.7385399786462585E-008
  0.17590000000000000          5.2134300432271630E-008
  0.17700000000000005          4.6380634444176394E-008
  0.17810000000000004         -2.1544710904208841E-008
  0.17920000000000003         -5.0047070487835299E-008
  0.18030000000000002         -3.1328151184339958E-009
  0.18140000000000001          4.1518575244481326E-008
  0.18250000000000000          1.6306545447264398E-008
  0.18360000000000004         -3.4918635094527417E-008
  0.18470000000000003         -3.0673987794216373E-008
  0.18580000000000002          2.0758211149995986E-008
  0.18690000000000001          3.7550144327269663E-008
  0.18800000000000000         -6.2486433805020170E-009
  0.18910000000000005         -4.1157960595228360E-008
  0.19020000000000004         -1.1468711313966651E-008
  0.19130000000000003          3.8266730228997403E-008
  0.19240000000000002          3.2399128713223035E-008
  0.19350000000000001         -2.0136829093075903E-008
  0.19460000000000005         -4.0936374290367894E-008
  0.19570000000000004         -1.5842890332962156E-009
  0.19680000000000003          3.6087094201775471E-008
  0.19790000000000002          1.6737709884750984E-008
  0.19900000000000001         -2.6413060183472226E-008
  0.20010000000000000         -2.6446395295920411E-008
  0.20120000000000005          1.4602321130041673E-008
  0.20230000000000004          3.2465610644294429E-008
  0.20340000000000003          1.0465707189766249E-009
  0.20450000000000002         -2.9941045198711436E-008
  0.20560000000000000         -1.3643317586797821E-008
  0.20670000000000005          2.3271789828527290E-008
  0.20780000000000004          2.4285244037969278E-008
  0.20890000000000003         -1.0646641790401645E-008
