 -0.12000000000000000          0.0000000000000000
 -0.11889999999999999          0.0000000000000000
 -0.11780000000000000          0.0000000000000000
 -0.11670000000000000          1.2546758770826116E-011
 -0.11559999999999999          1.3697683612368117E-011
 -0.11449999999999999         -3.8519892137101053E-011
 -0.11340000000000000         -6.0436974869126914E-011
 -0.11230000000000000          8.1728186718255103E-011
 -0.11119999999999999          2.1664806060250896E-010
 -0.11009999999999999         -3.4040437135729462E-011
 -0.10900000000000000         -4.8208020908546700E-010
 -0.10790000000000000         -2.7206761843423521E-010
 -0.10679999999999999          7.1667305423517291E-010
 -0.10569999999999999          1.0246076209696753E-009
 -0.10460000000000000         -4.2161271696095071E-010
 -0.10349999999999999         -1.8818466784864540E-009
 -0.10239999999999999         -6.0493399178795926E-010
 -0.10130000000000000          2.4258621778017186E-009
 -0.10020000000000000          2.5024651240102003E-009
  -9.9099999999999994E-002    -1.8537318347000564E-009
  -9.7999999999999990E-002    -4.8300954347268998E-009
  -9.6899999999999986E-002    -6.5602229204486662E-010
  -9.5799999999999996E-002     6.4043987890727294E-009
  -9.4699999999999993E-002     5.8165983141122979E-009
  -9.3599999999999989E-002    -3.7803484786991248E-009
  -9.2499999999999999E-002    -9.8755252864179965E-009
  -9.1399999999999995E-002    -2.5646886836483418E-009
  -9.0299999999999991E-002     9.5434842251052032E-009
  -8.9200000000000002E-002     9.3253724742226041E-009
  -8.8099999999999984E-002    -4.2170715808254045E-009
  -8.6999999999999994E-002    -1.2694449047501166E-008
  -8.5899999999999990E-002    -3.9121950123899296E-009
  -8.4799999999999986E-002     9.9854036150759384E-009
  -8.3699999999999997E-002     9.7388133113440745E-009
  -8.2599999999999993E-002    -2.9503164356015077E-009
  -8.1499999999999989E-002    -8.7990663644177403E-009
  -8.0399999999999999E-002    -8.1159196030355929E-010
  -7.9299999999999995E-002     5.8461981922164341E-009
  -7.8199999999999992E-002    -3.1195143690432303E-010
  -7.7100000000000002E-002    -7.3380594933780685E-009
  -7.5999999999999984E-002     2.6343387107136129E-012
  -7.4899999999999994E-002     1.1607359517995519E-008
  -7.3799999999999991E-002     4.7744004305627641E-009
  -7.2699999999999987E-002    -1.6707863537135381E-008
  -7.1599999999999997E-002    -2.0920481347275199E-008
  -7.0499999999999993E-002     5.0181623301170930E-009
  -6.9399999999999989E-002     2.8316776479186956E-008
  -6.8300000000000000E-002     1.2552025197010153E-008
  -6.7199999999999996E-002    -2.6888045567829977E-008
  -6.6099999999999992E-002    -3.8678500402511418E-008
  -6.5000000000000002E-002    -6.8530683350331856E-009
  -6.3899999999999985E-002     2.4599172476769127E-008
  -6.2799999999999995E-002     1.2653161185482986E-008
  -6.1699999999999991E-002    -2.5247127055649798E-008
  -6.0599999999999994E-002    -3.9289080433491108E-008
  -5.9499999999999990E-002    -1.9406471096772293E-008
  -5.8399999999999994E-002    -3.7987466505740031E-009
  -5.7299999999999990E-002    -1.5917470008730561E-008
  -5.6199999999999986E-002    -3.1350271711971800E-008
  -5.5099999999999996E-002    -2.4924986519181402E-008
  -5.3999999999999992E-002    -1.7689568920786769E-008
  -5.2899999999999989E-002    -4.2324423077388929E-008
  -5.1799999999999985E-002    -8.0368842247935390E-008
  -5.0699999999999995E-002    -7.9836190991500189E-008
  -4.9599999999999991E-002    -3.7810409025951230E-008
  -4.8499999999999988E-002    -1.9378530780045367E-008
  -4.7399999999999998E-002    -6.9073465169822157E-008
  -4.6299999999999994E-002    -1.3944253396402928E-007
  -4.5199999999999990E-002    -1.5006105513748480E-007
  -4.4099999999999986E-002    -1.0019186191811968E-007
  -4.2999999999999997E-002    -7.1703475157391949E-008
  -4.1899999999999993E-002    -1.1487674811405668E-007
  -4.0799999999999989E-002    -1.8237125232190010E-007
  -3.9699999999999985E-002    -2.0373990139432863E-007
  -3.8599999999999995E-002    -1.8444698923758551E-007
  -3.7499999999999992E-002    -1.8543090618550195E-007
  -3.6399999999999988E-002    -2.2246528885716543E-007
  -3.5299999999999984E-002    -2.4825428113217640E-007
  -3.4199999999999994E-002    -2.3890979150564817E-007
  -3.3099999999999991E-002    -2.4057885639194865E-007
  -3.1999999999999987E-002    -2.9324164074751025E-007
  -3.0899999999999997E-002    -3.5265941278339596E-007
  -2.9799999999999993E-002    -3.4725411524050287E-007
  -2.8699999999999989E-002    -2.9032403858764155E-007
  -2.7599999999999986E-002    -2.7529668500392290E-007
  -2.6499999999999996E-002    -3.4258221148775192E-007
  -2.5399999999999992E-002    -4.1526234895172820E-007
  -2.4299999999999988E-002    -4.0544861690250400E-007
  -2.3199999999999985E-002    -3.3541454058649833E-007
  -2.2099999999999995E-002    -3.0256478567025624E-007
  -2.0999999999999991E-002    -3.3733073223629617E-007
  -1.9899999999999987E-002    -3.6707479011965916E-007
  -1.8799999999999983E-002    -3.3358824680362886E-007
  -1.7699999999999994E-002    -2.7533099000720540E-007
  -1.6599999999999990E-002    -2.5689806193440745E-007
  -1.5499999999999986E-002    -2.6000421371463744E-007
  -1.4399999999999996E-002    -2.1614205536479858E-007
  -1.3299999999999992E-002    -1.2172101548912906E-007
  -1.2199999999999989E-002    -5.4212833333622257E-008
  -1.1099999999999985E-002    -5.2953211593376182E-008
  -9.9999999999999950E-003    -4.7080966680823622E-008
  -8.8999999999999913E-003     4.3320632414634019E-008
  -7.7999999999999875E-003     1.8486943531570432E-007
  -6.6999999999999837E-003     2.7347434183866426E-007
  -5.5999999999999939E-003     2.8774564952982473E-007
  -4.4999999999999901E-003     3.1651350695938163E-007
  -3.3999999999999864E-003     4.2022048774015275E-007
  -2.2999999999999826E-003     5.4927699011386721E-007
  -1.1999999999999927E-003     6.2326932948053582E-007
  -9.9999999999988987E-005     6.5388832126700436E-007
   1.0000000000000148E-003     7.1396391376765678E-007
   2.1000000000000185E-003     8.1918682326431735E-007
   3.2000000000000084E-003     8.9993937990584527E-007
   4.3000000000000121E-003     9.1542642621789128E-007
   5.4000000000000159E-003     9.2021440423195600E-007
   6.5000000000000058E-003     9.8257169156568125E-007
   7.6000000000000234E-003     1.0694490129026235E-006
   8.7000000000000133E-003     1.0936915941783809E-006
   9.8000000000000032E-003     1.0407248964838800E-006
   1.0900000000000021E-002     9.9498390682128957E-007
   1.2000000000000011E-002     1.0110101129612303E-006
   1.3100000000000001E-002     1.0380077810623334E-006
   1.4200000000000018E-002     9.9552789833978750E-007
   1.5300000000000008E-002     8.9241893874714151E-007
   1.6400000000000026E-002     8.0878038488663151E-007
   1.7500000000000016E-002     7.7170454915176379E-007
   1.8600000000000005E-002     7.2029718012345256E-007
   1.9700000000000023E-002     6.0765933085349388E-007
   2.0800000000000013E-002     4.7370249944833631E-007
   2.1900000000000003E-002     3.7975064515194390E-007
   2.3000000000000020E-002     3.1166649705482996E-007
   2.4100000000000010E-002     2.0659459210037312E-007
   2.5200000000000000E-002     5.3577998926357395E-008
   2.6300000000000018E-002    -8.1766152959517058E-008
   2.7400000000000008E-002    -1.5984481649411464E-007
   2.8500000000000025E-002    -2.2629772900017997E-007
   2.9600000000000015E-002    -3.4110638580386876E-007
   3.0700000000000005E-002    -4.8119852635863936E-007
   3.1800000000000023E-002    -5.7961619859270286E-007
   3.2900000000000013E-002    -6.1953221575095085E-007
   3.4000000000000002E-002    -6.6030054313159781E-007
   3.5100000000000020E-002    -7.3975053282993031E-007
   3.6200000000000010E-002    -8.2133726664324058E-007
   3.7300000000000028E-002    -8.5046281128597911E-007
   3.8400000000000017E-002    -8.4404706512941630E-007
   3.9500000000000007E-002    -8.5441507735595223E-007
   4.0600000000000025E-002    -8.7821405259091989E-007
   4.1700000000000015E-002    -8.7716739471943583E-007
   4.2800000000000005E-002    -8.3431143593770685E-007
   4.3900000000000022E-002    -7.8839042316758423E-007
   4.5000000000000012E-002    -7.6700445106325787E-007
   4.6100000000000002E-002    -7.4463719101913739E-007
   4.7200000000000020E-002    -6.8418677301451680E-007
   4.8300000000000010E-002    -5.9827868881257018E-007
   4.9400000000000027E-002    -5.3004350775154307E-007
   5.0500000000000017E-002    -4.8677873110136716E-007
   5.1600000000000007E-002    -4.3458894083414634E-007
   5.2700000000000025E-002    -3.5276167409392656E-007
   5.3800000000000014E-002    -2.6905306071967061E-007
   5.4900000000000004E-002    -2.0683323498360551E-007
   5.6000000000000022E-002    -1.5307810485865048E-007
   5.7100000000000012E-002    -8.7722725083949626E-008
   5.8200000000000002E-002    -1.7218335202073831E-008
   5.9300000000000019E-002     2.8014870423476168E-008
   6.0400000000000009E-002     5.2348859469475428E-008
   6.1500000000000027E-002     9.0777199091007788E-008
   6.2600000000000017E-002     1.5094556715666840E-007
   6.3700000000000007E-002     1.9884576829554135E-007
   6.4800000000000024E-002     2.1034851727108617E-007
   6.5900000000000014E-002     2.0793366672933189E-007
   6.7000000000000004E-002     2.2438821645209828E-007
   6.8100000000000022E-002     2.5007039994306979E-007
   6.9200000000000012E-002     2.5202402298418747E-007
   7.0300000000000029E-002     2.3352441758106579E-007
   7.1400000000000019E-002     2.3083131850398786E-007
   7.2500000000000009E-002     2.5029197558978922E-007
   7.3600000000000027E-002     2.5015452820298378E-007
   7.4700000000000016E-002     2.0553301283143810E-007
   7.5800000000000006E-002     1.5680961951147765E-007
   7.6900000000000024E-002     1.5520112128797336E-007
   7.8000000000000014E-002     1.8276507773862249E-007
   7.9100000000000004E-002     1.7591624157375918E-007
   8.0200000000000021E-002     1.2080764122401888E-007
   8.1300000000000011E-002     7.4571559594005521E-008
   8.2400000000000029E-002     7.8055634844531596E-008
   8.3500000000000019E-002     9.3189896688272711E-008
   8.4600000000000009E-002     6.8058689350891655E-008
   8.5700000000000026E-002     2.1119218374110460E-008
   8.6800000000000016E-002     1.0913069559137512E-008
   8.7900000000000006E-002     3.8373386246348673E-008
   8.9000000000000024E-002     3.6168522399293579E-008
   9.0100000000000013E-002    -2.1343963041431380E-008
   9.1200000000000003E-002    -6.8034253786208865E-008
   9.2300000000000021E-002    -3.9540665852655366E-008
   9.3400000000000011E-002     2.0854388438351634E-008
   9.4500000000000028E-002     2.0706140801962647E-008
   9.5600000000000018E-002    -4.5828077332998873E-008
   9.6700000000000008E-002    -8.6917488317794778E-008
   9.7800000000000026E-002    -5.0275101415309109E-008
   9.8900000000000016E-002     1.1209293909741902E-010
  0.10000000000000001         -1.3944839061252878E-008
  0.10110000000000002         -6.3974482600315241E-008
  0.10220000000000001         -6.2799998090667941E-008
  0.10330000000000003         -8.3714821741409651E-009
  0.10440000000000002          1.0432084529554686E-008
  0.10550000000000001         -4.3865508558837973E-008
  0.10660000000000003         -8.8282355648061639E-008
  0.10770000000000002         -4.3916376313291039E-008
  0.10880000000000001          3.5562450761972286E-008
  0.10990000000000003          3.6104026435168635E-008
  0.11100000000000002         -4.3768697111090660E-008
  0.11210000000000001         -8.5737291044551966E-008
  0.11320000000000002         -2.8642181959526170E-008
  0.11430000000000001          4.1290871166665966E-008
  0.11540000000000003          2.2825558332328910E-008
  0.11650000000000002         -4.5905316881089675E-008
  0.11760000000000001         -5.0797687833892269E-008
  0.11870000000000003          1.7529801610294271E-008
  0.11980000000000002          4.9187224959723608E-008
  0.12090000000000001         -9.6087600098826442E-009
  0.12200000000000003         -6.7282201143825660E-008
  0.12310000000000001         -2.6745428982621888E-008
  0.12420000000000003          5.8365220212408531E-008
  0.12530000000000002          5.9830334464550106E-008
  0.12640000000000001         -2.8753971648143306E-008
  0.12750000000000003         -7.7456782321405626E-008
  0.12860000000000002         -1.4971181627743135E-008
  0.12970000000000001          6.4007487310391298E-008
  0.13080000000000003          4.3809290417584634E-008
  0.13190000000000002         -3.7492601023814132E-008
  0.13300000000000001         -5.1187889482662285E-008
  0.13410000000000000          2.0936729683285193E-008
  0.13520000000000004          6.1050613453517144E-008
  0.13630000000000003          2.3173909458051867E-009
  0.13740000000000002         -6.3524495885758370E-008
  0.13850000000000001         -2.8568198473521988E-008
  0.13960000000000000          5.8946401537696147E-008
  0.14070000000000005          6.4533722365922586E-008
  0.14180000000000004         -2.5688207117013917E-008
  0.14290000000000003         -7.9634581595655618E-008
  0.14400000000000002         -1.8012638491882171E-008
  0.14510000000000001          6.6131683240655548E-008
  0.14620000000000000          4.9451820416379633E-008
  0.14730000000000004         -3.6362731492545208E-008
  0.14840000000000003         -5.8020756199539392E-008
  0.14950000000000002          1.2770430934949673E-008
  0.15060000000000001          5.9895171489188215E-008
  0.15170000000000000          7.6029058604376587E-009
  0.15280000000000005         -6.0695725778714404E-008
  0.15390000000000004         -3.4114911784399737E-008
  0.15500000000000003          5.0386002925506546E-008
  0.15610000000000002          6.2635464814775332E-008
  0.15720000000000001         -1.9610260082458808E-008
  0.15830000000000000         -7.3980920944904938E-008
  0.15940000000000004         -1.9337997869683932E-008
  0.16050000000000003          6.1428792719198100E-008
  0.16160000000000002          4.8730505852745409E-008
  0.16270000000000001         -3.3481423855619141E-008
  0.16380000000000000         -5.8794508817072710E-008
  0.16490000000000005          7.0932126838840759E-009
  0.16600000000000004          5.8454158846643622E-008
  0.16710000000000003          1.6921651635470880E-008
  0.16820000000000002         -4.8828724175109528E-008
  0.16930000000000001         -3.3785397590690991E-008
  0.17040000000000000          3.8502982135923958E-008
  0.17150000000000004          5.3085798867869016E-008
  0.17260000000000003         -1.6330712782064438E-008
  0.17370000000000002         -6.5065314913681505E-008
  0.17480000000000001         -1.7947209940416542E-008
  0.17590000000000000          5.5508667884396345E-008
  0.17700000000000005          4.6944617082544937E-008
  0.17810000000000004         -2.7748798814286602E-008
  0.17920000000000003         -5.6344550358744527E-008
  0.18030000000000002         -1.0135176031766946E-009
  0.18140000000000001          4.9337813834426925E-008
  0.18250000000000000          1.9576551935074349E-008
  0.18360000000000004         -3.9278287289334912E-008
  0.18470000000000003         -3.4512215307813676E-008
  0.18580000000000002          2.4257968078700287E-008
  0.18690000000000001          4.3917260938997060E-008
  0.18800000000000000         -5.4852837827468193E-009
  0.18910000000000005         -4.5970015349894311E-008
  0.19020000000000004         -1.4523987346137801E-008
  0.19130000000000003          3.9668790918767627E-008
  0.19240000000000002          3.2736153343648766E-008
  0.19350000000000001         -2.4633980189037175E-008
  0.19460000000000005         -4.5027530148900041E-008
  0.19570000000000004          1.4620600286008312E-009
  0.19680000000000003          4.3844771369094815E-008
  0.19790000000000002          2.0243527742991319E-008
  0.19900000000000001         -3.0302000908477567E-008
  0.20010000000000000         -3.1235988018352145E-008
  0.20120000000000005          1.5370879680176586E-008
  0.20230000000000004          3.6734906672108991E-008
  0.20340000000000003          2.5931969904746666E-009
  0.20450000000000002         -3.2256789239681893E-008
  0.20560000000000000         -1.5807527731226401E-008
  0.20670000000000005          2.3078509769902666E-008
  0.20780000000000004          2.3560414064149882E-008
  0.20890000000000003         -1.2914502356409230E-008
