 -0.12000000000000000          0.0000000000000000
 -0.11889999999999999          0.0000000000000000
 -0.11780000000000000          0.0000000000000000
 -0.11670000000000000          0.0000000000000000
 -0.11559999999999999          0.0000000000000000
 -0.11449999999999999          0.0000000000000000
 -0.11340000000000000          0.0000000000000000
 -0.11230000000000000          4.5173359149350863E-021
 -0.11119999999999999          2.6953102687640040E-021
 -0.11009999999999999         -3.9686141849293848E-020
 -0.10900000000000000         -4.3154380910757981E-020
 -0.10790000000000000          1.2673977335006528E-019
 -0.10679999999999999          1.1275622047137099E-019
 -0.10569999999999999         -2.9436537831861332E-019
 -0.10460000000000000          7.7179776861530540E-019
 -0.10349999999999999          3.4095623843272252E-018
 -0.10239999999999999         -2.6647590346171284E-018
 -0.10130000000000000         -2.4008318400588140E-017
 -0.10020000000000000         -2.3006928587947769E-017
  -9.9099999999999994E-002     5.9794444644290114E-017
  -9.7999999999999990E-002     1.6465776540652784E-016
  -9.6899999999999986E-002     6.5371911756498366E-017
  -9.5799999999999996E-002    -3.2096619470307203E-016
  -9.4699999999999993E-002    -5.9947502174369986E-016
  -9.3599999999999989E-002    -2.6554684066747289E-016
  -9.2499999999999999E-002     5.2617877265850269E-016
  -9.1399999999999995E-002     1.2265294362499997E-015
  -9.0299999999999991E-002     1.9775515165703804E-015
  -8.9200000000000002E-002     2.6896682089530685E-015
  -8.8099999999999984E-002     1.9473509803525019E-016
  -8.6999999999999994E-002    -9.5672540798962674E-015
  -8.5899999999999990E-002    -2.1019349590945327E-014
  -8.4799999999999986E-002    -1.4576908473687422E-014
  -8.3699999999999997E-002     2.3028613385786198E-014
  -8.2599999999999993E-002     6.8656248763433736E-014
  -8.1499999999999989E-002     7.0093887291622359E-014
  -8.0399999999999999E-002     1.8027262455976977E-015
  -7.9299999999999995E-002    -9.8447461391749230E-014
  -7.8199999999999992E-002    -1.7167479460580837E-013
  -7.7100000000000002E-002    -1.9459230776210090E-013
  -7.5999999999999984E-002    -1.4046695664265973E-013
  -7.4899999999999994E-002     9.1882766315148218E-014
  -7.3799999999999991E-002     5.6259554306881121E-013
  -7.2699999999999987E-002     1.0080228752401554E-012
  -7.1599999999999997E-002     8.3523921286243752E-013
  -7.0499999999999993E-002    -2.9889681224873343E-013
  -6.9399999999999989E-002    -1.8545854955920316E-012
  -6.8300000000000000E-002    -2.6645742903785852E-012
  -6.7199999999999996E-002    -2.0365258958376931E-012
  -6.6099999999999992E-002    -3.4666556734605503E-013
  -6.5000000000000002E-002     1.7393213605498836E-012
  -6.3899999999999985E-002     4.1749238614829931E-012
  -6.2799999999999995E-002     6.7709874165822193E-012
  -6.1699999999999991E-002     7.5979613226029308E-012
  -6.0599999999999994E-002     3.6871360999113367E-012
  -5.9499999999999990E-002    -5.3345821683647987E-012
  -5.8399999999999994E-002    -1.5047050411221008E-011
  -5.7299999999999990E-002    -1.9570277690061921E-011
  -5.6199999999999986E-002    -1.7235581017960300E-011
  -5.5099999999999996E-002    -1.0806345401848105E-011
  -5.3999999999999992E-002    -1.1948201759579002E-012
  -5.2899999999999989E-002     1.5830867866606368E-011
  -5.1799999999999985E-002     4.2452250048619078E-011
  -5.0699999999999995E-002     6.8811498166176932E-011
  -4.9599999999999991E-002     7.5454004155872667E-011
  -4.8499999999999988E-002     4.9081048253407644E-011
  -4.7399999999999998E-002    -6.5035958389525472E-012
  -4.6299999999999994E-002    -7.7459073877239604E-011
  -4.5199999999999990E-002    -1.5275573861384117E-010
  -4.4099999999999986E-002    -2.2125686005569634E-010
  -4.2999999999999997E-002    -2.5614396714779275E-010
  -4.1899999999999993E-002    -2.1505959513223871E-010
  -4.0799999999999989E-002    -6.9064427787868254E-011
  -3.9699999999999985E-002     1.6694977345022011E-010
  -3.8599999999999995E-002     4.3755260525912831E-010
  -3.7499999999999992E-002     6.7744659881796565E-010
  -3.6399999999999988E-002     8.2886386643110654E-010
  -3.5299999999999984E-002     8.2946932655758587E-010
  -3.4199999999999994E-002     6.0446841976258270E-010
  -3.3099999999999991E-002     9.7094263185049101E-011
  -3.1999999999999987E-002    -6.8152283816402814E-010
  -3.0899999999999997E-002    -1.6310365280602923E-009
  -2.9799999999999993E-002    -2.5782604939905696E-009
  -2.8699999999999989E-002    -3.2951075201737012E-009
  -2.7599999999999986E-002    -3.5026779254820894E-009
  -2.6499999999999996E-002    -2.8971782750630837E-009
  -2.5399999999999992E-002    -1.2209870892121444E-009
  -2.4299999999999988E-002     1.6695387294873854E-009
  -2.3199999999999985E-002     5.8055107388099714E-009
  -2.2099999999999995E-002     1.1159294821538879E-008
  -2.0999999999999991E-002     1.7666955898221204E-008
  -1.9899999999999987E-002     2.5200575848316475E-008
  -1.8799999999999983E-002     3.3585788372647585E-008
  -1.7699999999999994E-002     4.2738879102444116E-008
  -1.6599999999999990E-002     5.2840061215420064E-008
  -1.5499999999999986E-002     6.4385268672140228E-008
  -1.4399999999999996E-002     7.8097230016282992E-008
  -1.3299999999999992E-002     9.4849170295674412E-008
  -1.2199999999999989E-002     1.1570796942805828E-007
  -1.1099999999999985E-002     1.4199856934737909E-007
  -9.9999999999999950E-003     1.7523120732221287E-007
  -8.8999999999999913E-003     2.1693172413961292E-007
  -7.7999999999999875E-003     2.6858691626330256E-007
  -6.6999999999999837E-003     3.3180472769345215E-007
  -5.5999999999999939E-003     4.0853194605006138E-007
  -4.4999999999999901E-003     5.0113544602936599E-007
  -3.3999999999999864E-003     6.1238210946612526E-007
  -2.2999999999999826E-003     7.4549956252667471E-007
  -1.1999999999999927E-003     9.0435418087508879E-007
  -9.9999999999988987E-005     1.0935968930425588E-006
   1.0000000000000148E-003     1.3186786418373231E-006
   2.1000000000000185E-003     1.5858495316933841E-006
   3.2000000000000084E-003     1.9022551214220584E-006
   4.3000000000000121E-003     2.2760316369385691E-006
   5.4000000000000159E-003     2.7162570859218249E-006
   6.5000000000000058E-003     3.2328564429917606E-006
   7.6000000000000234E-003     3.8367229535651859E-006
   8.7000000000000133E-003     4.5400679482554551E-006
   9.8000000000000032E-003     5.3566232054436114E-006
   1.0900000000000021E-002     6.3014977058628574E-006
   1.2000000000000011E-002     7.3909482125600334E-006
   1.3100000000000001E-002     8.6424215623992495E-006
   1.4200000000000018E-002     1.0074974852614105E-005
   1.5300000000000008E-002     1.1709563295880798E-005
   1.6400000000000026E-002     1.3568745998782106E-005
   1.7500000000000016E-002     1.5676205293857493E-005
   1.8600000000000005E-002     1.8056518456432968E-005
   1.9700000000000023E-002     2.0735049474751577E-005
   2.0800000000000013E-002     2.3737769879517145E-005
   2.1900000000000003E-002     2.7090885851066560E-005
   2.3000000000000020E-002     3.0820134270470589E-005
   2.4100000000000010E-002     3.4950615372508764E-005
   2.5200000000000000E-002     3.9506427128799260E-005
   2.6300000000000018E-002     4.4510270527098328E-005
   2.7400000000000008E-002     4.9982543714577332E-005
   2.8500000000000025E-002     5.5940636229934171E-005
   2.9600000000000015E-002     6.2398255977313966E-005
   3.0700000000000005E-002     6.9364497903734446E-005
   3.1800000000000023E-002     7.6842792623210698E-005
   3.2900000000000013E-002     8.4829567640554160E-005
   3.4000000000000002E-002     9.3312824901659042E-005
   3.5100000000000020E-002     1.0227132588624954E-004
   3.6200000000000010E-002     1.1167432967340574E-004
   3.7300000000000028E-002     1.2148063979111612E-004
   3.8400000000000017E-002     1.3163697440177202E-004
   3.9500000000000007E-002     1.4207696949597448E-004
   4.0600000000000025E-002     1.5272171003744006E-004
   4.1700000000000015E-002     1.6347877681255341E-004
   4.2800000000000005E-002     1.7424220277462155E-004
   4.3900000000000022E-002     1.8489133799448609E-004
   4.5000000000000012E-002     1.9529015116859227E-004
   4.6100000000000002E-002     2.0528865570668131E-004
   4.7200000000000020E-002     2.1472360822372139E-004
   4.8300000000000010E-002     2.2342080774251372E-004
   4.9400000000000027E-002     2.3119269462767988E-004
   5.0500000000000017E-002     2.3784436052665114E-004
   5.1600000000000007E-002     2.4317402858287096E-004
   5.2700000000000025E-002     2.4697589105926454E-004
   5.3800000000000014E-002     2.4904235033318400E-004
   5.4900000000000004E-002     2.4916607071645558E-004
   5.6000000000000022E-002     2.4714547907933593E-004
   5.7100000000000012E-002     2.4278891214635223E-004
   5.8200000000000002E-002     2.3592024808749557E-004
   5.9300000000000019E-002     2.2637775691691786E-004
   6.0400000000000009E-002     2.1402083802968264E-004
   6.1500000000000027E-002     1.9873346900567412E-004
   6.2600000000000017E-002     1.8043161253444850E-004
   6.3700000000000007E-002     1.5906349290162325E-004
   6.4800000000000024E-002     1.3461922935675830E-004
   6.5900000000000014E-002     1.0712641960708424E-004
   6.7000000000000004E-002     7.6656833698507398E-005
   6.8100000000000022E-002     4.3326093873474747E-005
   6.9200000000000012E-002     7.2981879384315107E-006
   7.0300000000000029E-002    -3.1214796763379127E-005
   7.1400000000000019E-002    -7.1951806603465229E-005
   7.2500000000000009E-002    -1.1460470705060288E-004
   7.3600000000000027E-002    -1.5881918079685420E-004
   7.4700000000000016E-002    -2.0419903739821166E-004
   7.5800000000000006E-002    -2.5031657423824072E-004
   7.6900000000000024E-002    -2.9670828371308744E-004
   7.8000000000000014E-002    -3.4287929884158075E-004
   7.9100000000000004E-002    -3.8830903940834105E-004
   8.0200000000000021E-002    -4.3246324639767408E-004
   8.1300000000000011E-002    -4.7480801003985107E-004
   8.2400000000000029E-002    -5.1481369882822037E-004
   8.3500000000000019E-002    -5.5195629829540849E-004
   8.4600000000000009E-002    -5.8572739362716675E-004
   8.5700000000000026E-002    -6.1564228963106871E-004
   8.6800000000000016E-002    -6.4125441713258624E-004
   8.7900000000000006E-002    -6.6216709092259407E-004
   8.9000000000000024E-002    -6.7803799174726009E-004
   9.0100000000000013E-002    -6.8857986479997635E-004
   9.1200000000000003E-002    -6.9356471067294478E-004
   9.2300000000000021E-002    -6.9283123593777418E-004
   9.3400000000000011E-002    -6.8629044108092785E-004
   9.4500000000000028E-002    -6.7393342033028603E-004
   9.5600000000000018E-002    -6.5583357354626060E-004
   9.6700000000000008E-002    -6.3213799148797989E-004
   9.7800000000000026E-002    -6.0306512750685215E-004
   9.8900000000000016E-002    -5.6889781262725592E-004
  0.10000000000000001         -5.2998645696789026E-004
  0.10110000000000002         -4.8675245488993824E-004
  0.10220000000000001         -4.3967567034997046E-004
  0.10330000000000003         -3.8929027505218983E-004
  0.10440000000000002         -3.3615605207160115E-004
  0.10550000000000001         -2.8085836675018072E-004
  0.10660000000000003         -2.2400444140657783E-004
  0.10770000000000002         -1.6622348630335182E-004
  0.10880000000000001         -1.0815190034918487E-004
  0.10990000000000003         -5.0415830628480762E-005
  0.11100000000000002          6.3794550442253239E-006
  0.11210000000000001          6.1665035900659859E-005
  0.11320000000000002          1.1490299948491156E-004
  0.11430000000000001          1.6559248615521938E-004
  0.11540000000000003          2.1327029389794916E-004
  0.11650000000000002          2.5753074442036450E-004
  0.11760000000000001          2.9802627977915108E-004
  0.11870000000000003          3.3447935129515827E-004
  0.11980000000000002          3.6667782114818692E-004
  0.12090000000000001          3.9447046583518386E-004
  0.12200000000000003          4.1776220314204693E-004
  0.12310000000000001          4.3651100713759661E-004
  0.12420000000000003          4.5073695946484804E-004
  0.12530000000000002          4.6052804100327194E-004
  0.12640000000000001          4.6603410737589002E-004
  0.12750000000000003          4.6744765131734312E-004
  0.12860000000000002          4.6498415758833289E-004
  0.12970000000000001          4.5889100874774158E-004
  0.13080000000000003          4.4945400441065431E-004
  0.13190000000000002          4.3699433444999158E-004
  0.13300000000000001          4.2185446363873780E-004
  0.13410000000000000          4.0437962161377072E-004
  0.13520000000000004          3.8491224404424429E-004
  0.13630000000000003          3.6379380617290735E-004
  0.13740000000000002          3.4136834437958896E-004
  0.13850000000000001          3.1797128031030297E-004
  0.13960000000000000          2.9392144642770290E-004
  0.14070000000000005          2.6952009648084641E-004
  0.14180000000000004          2.4505160399712622E-004
  0.14290000000000003          2.2077576431911439E-004
  0.14400000000000002          1.9691983470693231E-004
  0.14510000000000001          1.7368207045365125E-004
  0.14620000000000000          1.5124188212212175E-004
  0.14730000000000004          1.2976213474757969E-004
  0.14840000000000003          1.0937619663309306E-004
  0.14950000000000002          9.0179062681272626E-005
  0.15060000000000001          7.2236718551721424E-005
  0.15170000000000000          5.5601110943825915E-005
  0.15280000000000005          4.0312275814358145E-005
  0.15390000000000004          2.6384332159068435E-005
  0.15500000000000003          1.3801048226014245E-005
  0.15610000000000002          2.5312758680229308E-006
  0.15720000000000001         -7.4543331720633432E-006
  0.15830000000000000         -1.6191679605981335E-005
  0.15940000000000004         -2.3738972231512889E-005
  0.16050000000000003         -3.0177690860000439E-005
  0.16160000000000002         -3.5588807804742828E-005
  0.16270000000000001         -4.0036364225670695E-005
  0.16380000000000000         -4.3581145291682333E-005
  0.16490000000000005         -4.6302142436616123E-005
  0.16600000000000004         -4.8291531129507348E-005
  0.16710000000000003         -4.9635527830105275E-005
  0.16820000000000002         -5.0402763008605689E-005
  0.16930000000000001         -5.0657330575631931E-005
  0.17040000000000000         -5.0469661800889298E-005
  0.17150000000000004         -4.9908911023521796E-005
  0.17260000000000003         -4.9029993533622473E-005
  0.17370000000000002         -4.7879522753646597E-005
  0.17480000000000001         -4.6512432163581252E-005
  0.17590000000000000         -4.4989687012275681E-005
  0.17700000000000005         -4.3355837988201529E-005
  0.17810000000000004         -4.1628463804954663E-005
  0.17920000000000003         -3.9821206883061677E-005
  0.18030000000000002         -3.7969606637489051E-005
  0.18140000000000001         -3.6122331948718056E-005
  0.18250000000000000         -3.4308108297409490E-005
  0.18360000000000004         -3.2524381822440773E-005
  0.18470000000000003         -3.0764240364078432E-005
  0.18580000000000002         -2.9043603717582300E-005
  0.18690000000000001         -2.7391075491323136E-005
  0.18800000000000000         -2.5817804271355271E-005
  0.18910000000000005         -2.4313461835845374E-005
  0.19020000000000004         -2.2871727196616121E-005
  0.19130000000000003         -2.1504585674847476E-005
  0.19240000000000002         -2.0224255422363058E-005
  0.19350000000000001         -1.9021937987417914E-005
  0.19460000000000005         -1.7879934603115544E-005
  0.19570000000000004         -1.6798052456579171E-005
  0.19680000000000003         -1.5792720660101622E-005
  0.19790000000000002         -1.4868808648316190E-005
  0.19900000000000001         -1.4006306628289167E-005
  0.20010000000000000         -1.3186053365643602E-005
  0.20120000000000005         -1.2414244338287972E-005
  0.20230000000000004         -1.1708447345881723E-005
  0.20340000000000003         -1.1064686987083405E-005
  0.20450000000000002         -1.0457742973812856E-005
  0.20560000000000000         -9.8746886578737758E-006
  0.20670000000000005         -9.3312801254796796E-006
  0.20780000000000004         -8.8444503489881754E-006
  0.20890000000000003         -8.4013981904718094E-006
