 -0.12000000000000000          0.0000000000000000
 -0.11889999999999999          0.0000000000000000
 -0.11780000000000000          0.0000000000000000
 -0.11670000000000000          0.0000000000000000
 -0.11559999999999999          0.0000000000000000
 -0.11449999999999999          0.0000000000000000
 -0.11340000000000000          0.0000000000000000
 -0.11230000000000000          4.5173359149350863E-021
 -0.11119999999999999         -2.1335502255219704E-021
 -0.11009999999999999         -5.0255073772323631E-020
 -0.10900000000000000          6.3249335602069405E-021
 -0.10790000000000000          3.2296866351523760E-019
 -0.10679999999999999          1.0674469829433893E-019
 -0.10569999999999999         -1.4623058100980340E-018
 -0.10460000000000000         -1.2596261906999581E-018
 -0.10349999999999999          4.7662486039356601E-018
 -0.10239999999999999          7.2483727767459805E-018
 -0.10130000000000000         -1.0592404258585530E-017
 -0.10020000000000000         -2.7792540662842683E-017
  -9.9099999999999994E-002     1.2570451183550935E-017
  -9.7999999999999990E-002     7.9820480656754014E-017
  -9.6899999999999986E-002     1.2145837868431540E-017
  -9.5799999999999996E-002    -1.8955665623309262E-016
  -9.4699999999999993E-002    -1.2843977478245683E-016
  -9.3599999999999989E-002     3.9215293470291196E-016
  -9.2499999999999999E-002     5.3948963072680801E-016
  -9.1399999999999995E-002    -6.0574227145999363E-016
  -9.0299999999999991E-002    -1.6980230206799360E-015
  -8.9200000000000002E-002     1.2997134269999061E-016
  -8.8099999999999984E-002     3.8443708394626797E-015
  -8.6999999999999994E-002     2.7951562098964614E-015
  -8.5899999999999990E-002    -5.4412841725035802E-015
  -8.4799999999999986E-002    -9.5917426494343365E-015
  -8.3699999999999997E-002     2.5227917069156570E-015
  -8.2599999999999993E-002     1.8417205084673809E-014
  -8.1499999999999989E-002     8.2132532789854287E-015
  -8.0399999999999999E-002    -2.5318146830346361E-014
  -7.9299999999999995E-002    -2.8646827070861677E-014
  -7.8199999999999992E-002     2.6885400034189731E-014
  -7.7100000000000002E-002     6.7104531837908904E-014
  -7.5999999999999984E-002    -4.8575044065747065E-015
  -7.4899999999999994E-002    -1.2584708665788757E-013
  -7.3799999999999991E-002    -8.8558968372540875E-014
  -7.2699999999999987E-002     1.4607420633326595E-013
  -7.1599999999999997E-002     2.6607207648070286E-013
  -7.0499999999999993E-002    -1.4645870508121078E-014
  -6.9399999999999989E-002    -4.1285114975135595E-013
  -6.8300000000000000E-002    -2.8991433277496259E-013
  -6.7199999999999996E-002     3.7689426232723200E-013
  -6.6099999999999992E-002     6.6022952079428099E-013
  -6.5000000000000002E-002    -1.0487615008207551E-013
  -6.3899999999999985E-002    -1.0222491256262067E-012
  -6.2799999999999995E-002    -5.2546969596736770E-013
  -6.1699999999999991E-002     1.1612622755757807E-012
  -6.0599999999999994E-002     1.6429092244626964E-012
  -5.9499999999999990E-002    -4.3079781278723694E-013
  -5.8399999999999994E-002    -2.6582661852986300E-012
  -5.7299999999999990E-002    -1.4798725396156232E-012
  -5.6199999999999986E-002     2.3741744247657293E-012
  -5.5099999999999996E-002     3.6570004836866676E-012
  -5.3999999999999992E-002    -3.4669099188699981E-013
  -5.2899999999999989E-002    -4.7691893836909749E-012
  -5.1799999999999985E-002    -2.8354024857180082E-012
  -5.0699999999999995E-002     3.9462734295614421E-012
  -4.9599999999999991E-002     6.1618245228434176E-012
  -4.8499999999999988E-002    -6.3205858732637288E-013
  -4.7399999999999998E-002    -7.9608299119460213E-012
  -4.6299999999999994E-002    -4.8449391200355851E-012
  -4.5199999999999990E-002     5.9952602778079456E-012
  -4.4099999999999986E-002     1.0003377466649699E-011
  -4.2999999999999997E-002     7.0878974347751700E-013
  -4.1899999999999993E-002    -9.9522803193030640E-012
  -4.0799999999999989E-002    -7.5306913482897642E-012
  -3.9699999999999985E-002     4.1723443276742156E-012
  -3.8599999999999995E-002     8.2178196539328674E-012
  -3.7499999999999992E-002    -6.3670645361960099E-013
  -3.6399999999999988E-002    -8.0513009453886397E-012
  -3.5299999999999984E-002    -1.8632925063988282E-012
  -3.4199999999999994E-002     9.1515840044964492E-012
  -3.3099999999999991E-002     8.9042506007386280E-012
  -3.1999999999999987E-002    -8.5919357566133225E-013
  -3.0899999999999997E-002    -4.3745423949914652E-012
  -2.9799999999999993E-002     6.2697834120675755E-013
  -2.8699999999999989E-002    -1.9724126845699352E-012
  -2.7599999999999986E-002    -1.6759092377749418E-011
  -2.6499999999999996E-002    -2.0916204532261951E-011
  -2.5399999999999992E-002     2.9908569110920213E-012
  -2.4299999999999988E-002     3.0761601599316180E-011
  -2.3199999999999985E-002     2.1639301461817695E-011
  -2.2099999999999995E-002    -1.9668449161014401E-011
  -2.0999999999999991E-002    -3.8400851942732572E-011
  -1.9899999999999987E-002    -5.0698325745890394E-012
  -1.8799999999999983E-002     3.2658504373062058E-011
  -1.7699999999999994E-002     9.1897305737331791E-012
  -1.6599999999999990E-002    -5.9791165074596364E-011
  -1.5499999999999986E-002    -8.4318191317933611E-011
  -1.4399999999999996E-002    -1.9574222451246293E-011
  -1.3299999999999992E-002     6.4505671637515860E-011
  -1.2199999999999989E-002     6.8623488835850566E-011
  -1.1099999999999985E-002    -7.3701487621202766E-012
  -9.9999999999999950E-003    -7.1577389848531681E-011
  -8.8999999999999913E-003    -6.8135899700116909E-011
  -7.7999999999999875E-003    -4.3098361685034448E-011
  -6.6999999999999837E-003    -6.1095732639682154E-011
  -5.5999999999999939E-003    -1.0972627667582557E-010
  -4.4999999999999901E-003    -1.3028210454901767E-010
  -3.3999999999999864E-003    -1.1141683409210401E-010
  -2.2999999999999826E-003    -9.1670802893073500E-011
  -1.1999999999999927E-003    -8.0271810032339630E-011
  -9.9999999999988987E-005    -4.8583734257867661E-011
   1.0000000000000148E-003    -2.1563698743287674E-011
   2.1000000000000185E-003    -9.6520173797909337E-011
   3.2000000000000084E-003    -3.0320210231415956E-010
   4.3000000000000121E-003    -5.0239146176522809E-010
   5.4000000000000159E-003    -5.2196413857785728E-010
   6.5000000000000058E-003    -3.8960798476317393E-010
   7.6000000000000234E-003    -3.2612051947822351E-010
   8.7000000000000133E-003    -4.4921424913191288E-010
   9.8000000000000032E-003    -6.1588179001148546E-010
   1.0900000000000021E-002    -6.1109933779945891E-010
   1.2000000000000011E-002    -4.6899278904888320E-010
   1.3100000000000001E-002    -4.5326659092737032E-010
   1.4200000000000018E-002    -7.4064920863037287E-010
   1.5300000000000008E-002    -1.1760057372356414E-009
   1.6400000000000026E-002    -1.4760038746786108E-009
   1.7500000000000016E-002    -1.5410732689957740E-009
   1.8600000000000005E-002    -1.5307676237696910E-009
   1.9700000000000023E-002    -1.5646597351093305E-009
   2.0800000000000013E-002    -1.6154193538397976E-009
   2.1900000000000003E-002    -1.6319006146403581E-009
   2.3000000000000020E-002    -1.7002604879579053E-009
   2.4100000000000010E-002    -1.8952526215088028E-009
   2.5200000000000000E-002    -2.1295523122688564E-009
   2.6300000000000018E-002    -2.3134651971901121E-009
   2.7400000000000008E-002    -2.5438255946141908E-009
   2.8500000000000025E-002    -2.8847682020938237E-009
   2.9600000000000015E-002    -3.2732836441340396E-009
   3.0700000000000005E-002    -3.4131955040095363E-009
   3.1800000000000023E-002    -3.3217721906453335E-009
   3.2900000000000013E-002    -3.1570477343478842E-009
   3.4000000000000002E-002    -2.9327600348239002E-009
   3.5100000000000020E-002    -2.9061499873250796E-009
   3.6200000000000010E-002    -2.8261888385117118E-009
   3.7300000000000028E-002    -2.7757531828598303E-009
   3.8400000000000017E-002    -2.5991355734333865E-009
   3.9500000000000007E-002    -2.7002220459593218E-009
   4.0600000000000025E-002    -2.9576610049986130E-009
   4.1700000000000015E-002    -2.9275466495448654E-009
   4.2800000000000005E-002    -2.6112350060003564E-009
   4.3900000000000022E-002    -1.6775569822158332E-009
   4.5000000000000012E-002    -8.9776425182819253E-010
   4.6100000000000002E-002    -2.4362467598848525E-010
   4.7200000000000020E-002     2.8552615827237560E-010
   4.8300000000000010E-002     1.3996213077405173E-009
   4.9400000000000027E-002     1.7789025807957159E-009
   5.0500000000000017E-002     2.3838504503714830E-009
   5.1600000000000007E-002     3.6787151103112592E-009
   5.2700000000000025E-002     5.0120325667535326E-009
   5.3800000000000014E-002     5.1244826160257162E-009
   5.4900000000000004E-002     5.8360281052216578E-009
   5.6000000000000022E-002     6.5154548423151937E-009
   5.7100000000000012E-002     8.8025657873913588E-009
   5.8200000000000002E-002     1.0840076392071296E-008
   5.9300000000000019E-002     9.8525827496587226E-009
   6.0400000000000009E-002     8.7333207332562779E-009
   6.1500000000000027E-002     1.0014392870516531E-008
   6.2600000000000017E-002     1.3104865637103558E-008
   6.3700000000000007E-002     1.6044838346829238E-008
   6.4800000000000024E-002     1.6295173210778557E-008
   6.5900000000000014E-002     1.4736892595124118E-008
   6.7000000000000004E-002     1.3249026764583505E-008
   6.8100000000000022E-002     1.4262242942209014E-008
   6.9200000000000012E-002     1.4253922486773263E-008
   7.0300000000000029E-002     1.3188136804842543E-008
   7.1400000000000019E-002     1.3898406869827795E-008
   7.2500000000000009E-002     1.3622146965985849E-008
   7.3600000000000027E-002     1.0887500678791184E-008
   7.4700000000000016E-002     7.7086328431619222E-009
   7.5800000000000006E-002     6.9389889389981363E-009
   7.6900000000000024E-002     1.0435392105989649E-008
   7.8000000000000014E-002     1.1814892175721070E-008
   7.9100000000000004E-002     7.6127522063984543E-009
   8.0200000000000021E-002     7.3811540213242210E-011
   8.1300000000000011E-002    -4.3849488484681842E-009
   8.2400000000000029E-002    -3.4112923597007239E-009
   8.3500000000000019E-002    -3.3405223032190179E-010
   8.4600000000000009E-002    -8.0715967243349951E-010
   8.5700000000000026E-002    -5.8021520921158753E-009
   8.6800000000000016E-002    -1.2214536049270919E-008
   8.7900000000000006E-002    -1.6763673116315658E-008
   8.9000000000000024E-002    -1.7563376530915775E-008
   9.0100000000000013E-002    -1.5174162371067723E-008
   9.1200000000000003E-002    -1.2513241998135527E-008
   9.2300000000000021E-002    -1.3065867499051365E-008
   9.3400000000000011E-002    -1.8513373944983869E-008
   9.4500000000000028E-002    -2.5850562579421421E-008
   9.5600000000000018E-002    -2.6810234032836888E-008
   9.6700000000000008E-002    -2.0328183580886616E-008
   9.7800000000000026E-002    -1.2651139691399749E-008
   9.8900000000000016E-002    -1.3297089651587157E-008
  0.10000000000000001         -2.3459802989123091E-008
  0.10110000000000002         -3.1854323623292657E-008
  0.10220000000000001         -2.7881998931889029E-008
  0.10330000000000003         -1.3755743211163463E-008
  0.10440000000000002         -3.2023581564288861E-009
  0.10550000000000001         -5.9161586740685834E-009
  0.10660000000000003         -1.6062912777670135E-008
  0.10770000000000002         -2.1443803177589871E-008
  0.10880000000000001         -1.6556178650262154E-008
  0.10990000000000003         -4.4904471252493749E-009
  0.11100000000000002          5.5521218733645128E-009
  0.11210000000000001          5.2350785928467758E-009
  0.11320000000000002         -1.2914918023909649E-009
  0.11430000000000001         -5.2306585729411381E-009
  0.11540000000000003         -7.1455770189743362E-009
  0.11650000000000002         -4.3133918659066239E-010
  0.11760000000000001          1.2108908542529662E-008
  0.11870000000000003          2.2021550805106926E-008
  0.11980000000000002          1.8623667941142230E-008
  0.12090000000000001          3.8387040213194723E-009
  0.12200000000000003         -5.2408273276682849E-009
  0.12310000000000001          3.2906442015701032E-009
  0.12420000000000003          2.2134864607892268E-008
  0.12530000000000002          3.0235476344842027E-008
  0.12640000000000001          1.8662182910134106E-008
  0.12750000000000003          1.7839535404462481E-009
  0.12860000000000002         -1.7609689262343409E-009
  0.12970000000000001          8.7890441591298440E-009
  0.13080000000000003          1.8461530970625972E-008
  0.13190000000000002          1.8402834811581670E-008
  0.13300000000000001          1.3001873355733551E-008
  0.13410000000000000          8.5401143934404899E-009
  0.13520000000000004          4.8251882489580566E-009
  0.13630000000000003          7.5765455020970762E-010
  0.13740000000000002          1.1461558369063596E-009
  0.13850000000000001          9.4169241293684536E-009
  0.13960000000000000          1.7338480873263507E-008
  0.14070000000000005          1.2782677139000498E-008
  0.14180000000000004         -2.1302331010275566E-009
  0.14290000000000003         -1.0938183692132952E-008
  0.14400000000000002         -3.7659151352897879E-009
  0.14510000000000001          8.6888576333876699E-009
  0.14620000000000000          9.8111367918818360E-009
  0.14730000000000004         -1.2071653676670735E-009
  0.14840000000000003         -9.5243537501232822E-009
  0.14950000000000002         -6.7954100124723027E-009
  0.15060000000000001         -9.0439145061793624E-010
  0.15170000000000000         -1.6676359182454803E-009
  0.15280000000000005         -4.3742325317452924E-009
  0.15390000000000004          4.1420561425198343E-010
  0.15500000000000003          6.9053345264080690E-009
  0.15610000000000002          2.5013473514690077E-009
  0.15720000000000001         -1.1583155767880271E-008
  0.15830000000000000         -1.7558493325964264E-008
  0.15940000000000004         -5.8272120462277144E-009
  0.16050000000000003          9.9603019165783735E-009
  0.16160000000000002          1.0027703112314157E-008
  0.16270000000000001         -5.0055644074120664E-009
  0.16380000000000000         -1.4429601513654688E-008
  0.16490000000000005         -8.1125666184789225E-009
  0.16600000000000004          2.4482735838660119E-009
  0.16710000000000003          3.7366967298169129E-009
  0.16820000000000002         -1.2751996125714982E-009
  0.16930000000000001         -1.8731109996394935E-009
  0.17040000000000000          6.1012478402844295E-010
  0.17150000000000004         -2.5774826717395172E-009
  0.17260000000000003         -9.9087325011737448E-009
  0.17370000000000002         -7.4908870217882395E-009
  0.17480000000000001          7.6733206455514846E-009
  0.17590000000000000          1.7102271598901098E-008
  0.17700000000000005          5.3531401533746248E-009
  0.17810000000000004         -1.5499121985840247E-008
  0.17920000000000003         -1.8874262153190102E-008
  0.18030000000000002         -6.3554467244486545E-010
  0.18140000000000001          1.5757446902853189E-008
  0.18250000000000000          1.1138928002196735E-008
  0.18360000000000004         -5.0873505408333131E-009
  0.18470000000000003         -1.0752345680486997E-008
  0.18580000000000002         -2.4704311929468759E-009
  0.18690000000000001          4.3258889803610145E-009
  0.18800000000000000          1.6153981485800273E-009
  0.18910000000000005         -9.6799523952029176E-010
  0.19020000000000004          3.7582204015507159E-009
  0.19130000000000003          6.7182086560535481E-009
  0.19240000000000002         -1.7991670375749891E-009
  0.19350000000000001         -1.2073616773022877E-008
  0.19460000000000005         -6.9906902488980904E-009
  0.19570000000000004          1.0172753306392224E-008
  0.19680000000000003          1.6225477850184689E-008
  0.19790000000000002          9.6092378498724429E-010
  0.19900000000000001         -1.6308659311903284E-008
  0.20010000000000000         -1.2862373388600190E-008
  0.20120000000000005          5.4853077635641512E-009
  0.20230000000000004          1.3437745138844548E-008
  0.20340000000000003          2.8252096218039924E-009
  0.20450000000000002         -7.9974338262900346E-009
  0.20560000000000000         -3.3936755627905768E-009
  0.20670000000000005          6.7737055964300907E-009
  0.20780000000000004          5.1370978582099269E-009
  0.20890000000000003         -5.1730619787804244E-009
