 -0.12000000000000000          0.0000000000000000
 -0.11889999999999999          0.0000000000000000
 -0.11780000000000000          0.0000000000000000
 -0.11670000000000000          0.0000000000000000
 -0.11559999999999999          0.0000000000000000
 -0.11449999999999999          0.0000000000000000
 -0.11340000000000000          0.0000000000000000
 -0.11230000000000000          0.0000000000000000
 -0.11119999999999999          0.0000000000000000
 -0.11009999999999999          2.4000246988028435E-024
 -0.10900000000000000         -1.4065601354813240E-023
 -0.10790000000000000         -2.0158540527965063E-023
 -0.10679999999999999          2.3609304326138182E-022
 -0.10569999999999999          1.4395328173800070E-022
 -0.10460000000000000         -2.2927550284571521E-021
 -0.10349999999999999         -1.7718406630309755E-021
 -0.10239999999999999          1.5905065976673696E-020
 -0.10130000000000000          2.0831333652384716E-020
 -0.10020000000000000         -7.9272537348941164E-020
  -9.9099999999999994E-002    -1.7510790597348767E-019
  -9.7999999999999990E-002     2.4450921239669339E-019
  -9.6899999999999986E-002     1.0396055569403205E-018
  -9.5799999999999996E-002    -4.3666712671483745E-020
  -9.4699999999999993E-002    -4.2844899297883450E-018
  -9.3599999999999989E-002    -4.3870231026173556E-018
  -9.2499999999999999E-002     1.0761626386759790E-017
  -9.1399999999999995E-002     2.7231452472819389E-017
  -9.0299999999999991E-002    -3.8410111064384526E-018
  -8.9200000000000002E-002    -8.9253780711206750E-017
  -8.8099999999999984E-002    -9.5308802352099016E-017
  -8.6999999999999994E-002     1.3636478709053547E-016
  -8.5899999999999990E-002     4.2458881733837411E-016
  -8.4799999999999986E-002     1.7978677969611451E-016
  -8.3699999999999997E-002    -8.1178134181370768E-016
  -8.2599999999999993E-002    -1.4590210279091104E-015
  -8.1499999999999989E-002    -9.5570284069894379E-017
  -8.0399999999999999E-002     2.9471615662371659E-015
  -7.9299999999999995E-002     4.1579686945575865E-015
  -7.8199999999999992E-002     1.5542758120584872E-016
  -7.7100000000000002E-002    -7.2640427473038421E-015
  -7.5999999999999984E-002    -1.1160702624666424E-014
  -7.4899999999999994E-002    -5.5982486949922219E-015
  -7.3799999999999991E-002     9.6390680742633288E-015
  -7.2699999999999987E-002     2.9311117741943546E-014
  -7.1599999999999997E-002     4.0210730930948305E-014
  -7.0499999999999993E-002     1.6085589349228158E-014
  -6.9399999999999989E-002    -6.4578340776017679E-014
  -6.8300000000000000E-002    -1.6458464094631226E-013
  -6.7199999999999996E-002    -1.5898701354998684E-013
  -6.6099999999999992E-002     6.9541947070664301E-014
  -6.5000000000000002E-002     4.3670785303956405E-013
  -6.3899999999999985E-002     5.9355818871065225E-013
  -6.2799999999999995E-002     1.9792713746181329E-013
  -6.1699999999999991E-002    -6.5364700414446975E-013
  -6.0599999999999994E-002    -1.3335568543534904E-012
  -5.9499999999999990E-002    -1.1716853615811873E-012
  -5.8399999999999994E-002    -7.9709676359396298E-014
  -5.7299999999999990E-002     1.3725820610308026E-012
  -5.6199999999999986E-002     2.4587823096999806E-012
  -5.5099999999999996E-002     2.6846131654517658E-012
  -5.3999999999999992E-002     1.6823725572379100E-012
  -5.2899999999999989E-002    -8.1627749264762128E-013
  -5.1799999999999985E-002    -4.3534806835887618E-012
  -5.0699999999999995E-002    -7.1745474145012977E-012
  -4.9599999999999991E-002    -7.0335529935017238E-012
  -4.8499999999999988E-002    -3.1000920146934119E-012
  -4.7399999999999998E-002     3.2307442311696466E-012
  -4.6299999999999994E-002     9.8256593833445649E-012
  -4.5199999999999990E-002     1.5510906795079826E-011
  -4.4099999999999986E-002     1.9168054296581083E-011
  -4.2999999999999997E-002     1.7401222823787421E-011
  -4.1899999999999993E-002     5.4186308218184820E-012
  -4.0799999999999989E-002    -1.7505752056279356E-011
  -3.9699999999999985E-002    -4.3707058805519949E-011
  -3.8599999999999995E-002    -6.0405833113286178E-011
  -3.7499999999999992E-002    -5.8461263607867409E-011
  -3.6399999999999988E-002    -3.7237411071311399E-011
  -3.5299999999999984E-002    -1.0057393286244665E-012
  -3.4199999999999994E-002     4.6556623140014963E-011
  -3.3099999999999991E-002     1.0134647288051468E-010
  -3.1999999999999987E-002     1.5312354162411168E-010
  -3.0899999999999997E-002     1.8410425961512544E-010
  -2.9799999999999993E-002     1.7434119425896455E-010
  -2.8699999999999989E-002     1.0730490107579982E-010
  -2.7599999999999986E-002    -2.7166923224908324E-011
  -2.6499999999999996E-002    -2.2586352232956131E-010
  -2.5399999999999992E-002    -4.5923659319768717E-010
  -2.4299999999999988E-002    -6.6683714106119396E-010
  -2.3199999999999985E-002    -7.7470746484564756E-010
  -2.2099999999999995E-002    -7.2147604557315503E-010
  -2.0999999999999991E-002    -4.6298040401460128E-010
  -1.9899999999999987E-002     4.8689278303593042E-011
  -1.8799999999999983E-002     8.7560214634407885E-010
  -1.7699999999999994E-002     2.0656920618478125E-009
  -1.6599999999999990E-002     3.6150225035669337E-009
  -1.5499999999999986E-002     5.4777884450629699E-009
  -1.4399999999999996E-002     7.6281674310507697E-009
  -1.3299999999999992E-002     1.0106930403708247E-008
  -1.2199999999999989E-002     1.3000414966768403E-008
  -1.1099999999999985E-002     1.6389771317903978E-008
  -9.9999999999999950E-003     2.0351565765963642E-008
  -8.8999999999999913E-003     2.5020808536169170E-008
  -7.7999999999999875E-003     3.0640297410400308E-008
  -6.6999999999999837E-003     3.7540729636020842E-008
  -5.5999999999999939E-003     4.6092385019846915E-008
  -4.4999999999999901E-003     5.6698084449635644E-008
  -3.3999999999999864E-003     6.9819762416045705E-008
  -2.2999999999999826E-003     8.5982364339542983E-008
  -1.1999999999999927E-003     1.0575469389095815E-007
  -9.9999999999988987E-005     1.2977112362477783E-007
   1.0000000000000148E-003     1.5880047499194916E-007
   2.1000000000000185E-003     1.9377621640614962E-007
   3.2000000000000084E-003     2.3574806107262702E-007
   4.3000000000000121E-003     2.8586325129253964E-007
   5.4000000000000159E-003     3.4549373140180251E-007
   6.5000000000000058E-003     4.1640060999270645E-007
   7.6000000000000234E-003     5.0070985935235512E-007
   8.7000000000000133E-003     6.0067259255447425E-007
   9.8000000000000032E-003     7.1852633709568181E-007
   1.0900000000000021E-002     8.5670740190835204E-007
   1.2000000000000011E-002     1.0182326377616846E-006
   1.3100000000000001E-002     1.2068154546795995E-006
   1.4200000000000018E-002     1.4265591516959830E-006
   1.5300000000000008E-002     1.6816608194858418E-006
   1.6400000000000026E-002     1.9764961507462431E-006
   1.7500000000000016E-002     2.3160102955444017E-006
   1.8600000000000005E-002     2.7058752039010869E-006
   1.9700000000000023E-002     3.1523018151347060E-006
   2.0800000000000013E-002     3.6617557270801626E-006
   2.1900000000000003E-002     4.2409060370118823E-006
   2.3000000000000020E-002     4.8966967369779013E-006
   2.4100000000000010E-002     5.6363833209616132E-006
   2.5200000000000000E-002     6.4675582507334184E-006
   2.6300000000000018E-002     7.3983292168122716E-006
   2.7400000000000008E-002     8.4371913544600829E-006
   2.8500000000000025E-002     9.5923569460865110E-006
   2.9600000000000015E-002     1.0871328413486481E-005
   3.0700000000000005E-002     1.2280690498300828E-005
   3.1800000000000023E-002     1.3826819667883683E-005
   3.2900000000000013E-002     1.5516576240770519E-005
   3.4000000000000002E-002     1.7356383978039958E-005
   3.5100000000000020E-002     1.9350565708009526E-005
   3.6200000000000010E-002     2.1500602088053711E-005
   3.7300000000000028E-002     2.3805885575711727E-005
   3.8400000000000017E-002     2.6264771804562770E-005
   3.9500000000000007E-002     2.8874568670289591E-005
   4.0600000000000025E-002     3.1629821023670956E-005
   4.1700000000000015E-002     3.4520962799433619E-005
   4.2800000000000005E-002     3.7533711292780936E-005
   4.3900000000000022E-002     4.0650840674061328E-005
   4.5000000000000012E-002     4.3851887312484905E-005
   4.6100000000000002E-002     4.7113484470173717E-005
   4.7200000000000020E-002     5.0408223614795133E-005
   4.8300000000000010E-002     5.3703475714428350E-005
   4.9400000000000027E-002     5.6960867368616164E-005
   5.0500000000000017E-002     6.0137019318062812E-005
   5.1600000000000007E-002     6.3184634200297296E-005
   5.2700000000000025E-002     6.6053493355866522E-005
   5.3800000000000014E-002     6.8692927015945315E-005
   5.4900000000000004E-002     7.1048241807147861E-005
   5.6000000000000022E-002     7.3058137786574662E-005
   5.7100000000000012E-002     7.4656731158029288E-005
   5.8200000000000002E-002     7.5778712925966829E-005
   5.9300000000000019E-002     7.6362477557267994E-005
   6.0400000000000009E-002     7.6349831942934543E-005
   6.1500000000000027E-002     7.5680523877963424E-005
   6.2600000000000017E-002     7.4292503995820880E-005
   6.3700000000000007E-002     7.2127004386857152E-005
   6.4800000000000024E-002     6.9134111981838942E-005
   6.5900000000000014E-002     6.5273758082184941E-005
   6.7000000000000004E-002     6.0516293160617352E-005
   6.8100000000000022E-002     5.4834788898006082E-005
   6.9200000000000012E-002     4.8213318223133683E-005
   7.0300000000000029E-002     4.0646849811309949E-005
   7.1400000000000019E-002     3.2142565032700077E-005
   7.2500000000000009E-002     2.2721067580278032E-005
   7.3600000000000027E-002     1.2420469829521608E-005
   7.4700000000000016E-002     1.2990883533348097E-006
   7.5800000000000006E-002    -1.0575453416095115E-005
   7.6900000000000024E-002    -2.3127022359403782E-005
   7.8000000000000014E-002    -3.6270696000428870E-005
   7.9100000000000004E-002    -4.9897462304215878E-005
   8.0200000000000021E-002    -6.3878083892632276E-005
   8.1300000000000011E-002    -7.8070544986985624E-005
   8.2400000000000029E-002    -9.2332265921868384E-005
   8.3500000000000019E-002    -1.0652009223122150E-004
   8.4600000000000009E-002    -1.2048151256749406E-004
   8.5700000000000026E-002    -1.3405161735136062E-004
   8.6800000000000016E-002    -1.4705478679388762E-004
   8.7900000000000006E-002    -1.5932292444631457E-004
   8.9000000000000024E-002    -1.7069606110453606E-004
   9.0100000000000013E-002    -1.8102418107446283E-004
   9.1200000000000003E-002    -1.9016287114936858E-004
   9.2300000000000021E-002    -1.9797662389464676E-004
   9.3400000000000011E-002    -2.0434008911252022E-004
   9.4500000000000028E-002    -2.0914130436722189E-004
   9.5600000000000018E-002    -2.1228616242296994E-004
   9.6700000000000008E-002    -2.1370720060076565E-004
   9.7800000000000026E-002    -2.1336600184440613E-004
   9.8900000000000016E-002    -2.1124463819433004E-004
  0.10000000000000001         -2.0733698329422623E-004
  0.10110000000000002         -2.0165194291621447E-004
  0.10220000000000001         -1.9422729383222759E-004
  0.10330000000000003         -1.8513531540520489E-004
  0.10440000000000002         -1.7448158178012818E-004
  0.10550000000000001         -1.6238316311500967E-004
  0.10660000000000003         -1.4896337233949453E-004
  0.10770000000000002         -1.3435732398647815E-004
  0.10880000000000001         -1.1872447066707537E-004
  0.10990000000000003         -1.0224355355603620E-004
  0.11100000000000002         -8.5107014456298202E-005
  0.11210000000000001         -6.7507571657188237E-005
  0.11320000000000002         -4.9640366341918707E-005
  0.11430000000000001         -3.1695635698270053E-005
  0.11540000000000003         -1.3862879313819576E-005
  0.11650000000000002          3.6816061310673831E-006
  0.11760000000000001          2.0755402147187851E-005
  0.11870000000000003          3.7175785109866410E-005
  0.11980000000000002          5.2776395023101941E-005
  0.12090000000000001          6.7429151386022568E-005
  0.12200000000000003          8.1027013948187232E-005
  0.12310000000000001          9.3468515842687339E-005
  0.12420000000000003          1.0465577361173928E-004
  0.12530000000000002          1.1450774036347866E-004
  0.12640000000000001          1.2297320063225925E-004
  0.12750000000000003          1.3003825733903795E-004
  0.12860000000000002          1.3570387091021985E-004
  0.12970000000000001          1.3997610949445516E-004
  0.13080000000000003          1.4287693193182349E-004
  0.13190000000000002          1.4444804401136935E-004
  0.13300000000000001          1.4474918134510517E-004
  0.13410000000000000          1.4384830137714744E-004
  0.13520000000000004          1.4182482846081257E-004
  0.13630000000000003          1.3877751189284027E-004
  0.13740000000000002          1.3481281348504126E-004
  0.13850000000000001          1.3003304775338620E-004
  0.13960000000000000          1.2453136150725186E-004
  0.14070000000000005          1.1840754450531676E-004
  0.14180000000000004          1.1177841224707663E-004
  0.14290000000000003          1.0476558236405253E-004
  0.14400000000000002          9.7475698566995561E-005
  0.14510000000000001          8.9996290626004338E-005
  0.14620000000000000          8.2411148468963802E-005
  0.14730000000000004          7.4810086516663432E-005
  0.14840000000000003          6.7280772782396525E-005
  0.14950000000000002          5.9895271988352761E-005
  0.15060000000000001          5.2712468459503725E-005
  0.15170000000000000          4.5787259296048433E-005
  0.15280000000000005          3.9171954995254055E-005
  0.15390000000000004          3.2904179533943534E-005
  0.15500000000000003          2.7004776711692102E-005
  0.15610000000000002          2.1491297957254574E-005
  0.15720000000000001          1.6388001313316636E-005
  0.15830000000000000          1.1717268534994218E-005
  0.15940000000000004          7.4806844168051612E-006
  0.16050000000000003          3.6609292237699265E-006
  0.16160000000000002          2.3950579475240374E-007
  0.16270000000000001         -2.7883479560841806E-006
  0.16380000000000000         -5.4252714107860811E-006
  0.16490000000000005         -7.6890710261068307E-006
  0.16600000000000004         -9.6079802460735664E-006
  0.16710000000000003         -1.1208702744625043E-005
  0.16820000000000002         -1.2511020031524822E-005
  0.16930000000000001         -1.3536458936869167E-005
  0.17040000000000000         -1.4313538486021571E-005
  0.17150000000000004         -1.4868765902065206E-005
  0.17260000000000003         -1.5219324268400669E-005
  0.17370000000000002         -1.5382291167043149E-005
  0.17480000000000001         -1.5385106962639838E-005
  0.17590000000000000         -1.5260820873663761E-005
  0.17700000000000005         -1.5032185729069170E-005
  0.17810000000000004         -1.4705185094499029E-005
  0.17920000000000003         -1.4283946256909985E-005
  0.18030000000000002         -1.3787544958177023E-005
  0.18140000000000001         -1.3244414731161669E-005
  0.18250000000000000         -1.2673645869654138E-005
  0.18360000000000004         -1.2076537132088561E-005
  0.18470000000000003         -1.1451990758359898E-005
  0.18580000000000002         -1.0810109415615443E-005
  0.18690000000000001         -1.0167434083996341E-005
  0.18800000000000000         -9.5331197371706367E-006
  0.18910000000000005         -8.9070663307211362E-006
  0.19020000000000004         -8.2906890384037979E-006
  0.19130000000000003         -7.6915357567486353E-006
  0.19240000000000002         -7.1148451752378605E-006
  0.19350000000000001         -6.5586823438934516E-006
  0.19460000000000005         -6.0202537497389130E-006
  0.19570000000000004         -5.5056898418115452E-006
  0.19680000000000003         -5.0248577281308826E-006
  0.19790000000000002         -4.5781539483868983E-006
  0.19900000000000001         -4.1554794734111056E-006
  0.20010000000000000         -3.7508525565499440E-006
  0.20120000000000005         -3.3718858958309283E-006
  0.20230000000000004         -3.0304677238746081E-006
  0.20340000000000003         -2.7272299121250398E-006
  0.20450000000000002         -2.4510245566489175E-006
  0.20560000000000000         -2.1944049422017997E-006
  0.20670000000000005         -1.9622771105787251E-006
  0.20780000000000004         -1.7633226434554672E-006
  0.20890000000000003         -1.5980281204974744E-006
