 -0.12000000000000000          0.0000000000000000
 -0.11889999999999999          0.0000000000000000
 -0.11780000000000000          0.0000000000000000
 -0.11670000000000000          0.0000000000000000
 -0.11559999999999999          0.0000000000000000
 -0.11449999999999999          0.0000000000000000
 -0.11340000000000000         -1.0370384665327475E-019
 -0.11230000000000000         -4.6410028092447451E-020
 -0.11119999999999999          8.2720785781445364E-019
 -0.11009999999999999          8.0861976528189171E-019
 -0.10900000000000000         -2.4883391943427375E-018
 -0.10790000000000000         -2.5798828591436748E-018
 -0.10679999999999999          4.4458083472096616E-018
 -0.10569999999999999         -8.2915881498794824E-018
 -0.10460000000000000         -4.1711806615292999E-017
 -0.10349999999999999          3.4793565756919995E-017
 -0.10239999999999999          2.8669143000890039E-016
 -0.10130000000000000          2.5638848221374297E-016
 -0.10020000000000000         -6.8406089652681677E-016
  -9.9099999999999994E-002    -1.7782988741900678E-015
  -9.7999999999999990E-002    -6.4952386925635152E-016
  -9.6899999999999986E-002     3.2767226042560273E-015
  -9.5799999999999996E-002     5.7871624532183485E-015
  -9.4699999999999993E-002     2.2170142952645123E-015
  -9.3599999999999989E-002    -5.0691097539413022E-015
  -9.2499999999999999E-002    -9.9055166873822723E-015
  -9.1399999999999995E-002    -1.3656574989243629E-014
  -9.0299999999999991E-002    -1.9275620460673312E-014
  -8.9200000000000002E-002    -7.1702990699323670E-015
  -8.8099999999999984E-002     5.4147807656938773E-014
  -8.6999999999999994E-002     1.3642898117650903E-013
  -8.5899999999999990E-002     1.1752880298750851E-013
  -8.4799999999999986E-002    -9.3426161988999223E-014
  -8.3699999999999997E-002    -3.7053051057077402E-013
  -8.2599999999999993E-002    -4.1808906597190498E-013
  -8.1499999999999989E-002    -1.0171671718881697E-013
  -8.0399999999999999E-002     3.5628227798567558E-013
  -7.9299999999999995E-002     6.6289042397610354E-013
  -7.8199999999999992E-002     8.2279614978947313E-013
  -7.7100000000000002E-002     9.0005514976829182E-013
  -7.5999999999999984E-002     4.4932571660778742E-013
  -7.4899999999999994E-002    -1.1745849518712825E-012
  -7.3799999999999991E-002    -3.4557818846120414E-012
  -7.2699999999999987E-002    -4.2359787552626038E-012
  -7.1599999999999997E-002    -1.7172257539554980E-012
  -7.0499999999999993E-002     2.9525607219554884E-012
  -6.9399999999999989E-002     6.3249410049703858E-012
  -6.8300000000000000E-002     6.5535151090589938E-012
  -6.7199999999999996E-002     5.3395512837617343E-012
  -6.6099999999999992E-002     4.4603609000715139E-012
  -6.5000000000000002E-002     1.5831637216467964E-012
  -6.3899999999999985E-002    -7.2067625304927940E-012
  -6.2799999999999995E-002    -1.9912880372396913E-011
  -6.1699999999999991E-002    -2.7178311684528111E-011
  -6.0599999999999994E-002    -2.1546943049233214E-011
  -5.9499999999999990E-002    -6.1066568468604032E-012
  -5.8399999999999994E-002     1.0584711059025143E-011
  -5.7299999999999990E-002     2.7202179744834076E-011
  -5.6199999999999986E-002     5.0021035924441293E-011
  -5.5099999999999996E-002     7.6653045022467836E-011
  -5.3999999999999992E-002     8.5816236061742046E-011
  -5.2899999999999989E-002     5.3101592567550426E-011
  -5.1799999999999985E-002    -2.2090477017067123E-011
  -5.0699999999999995E-002    -1.1234488339617599E-010
  -4.9599999999999991E-002    -1.8649749800037085E-010
  -4.8499999999999988E-002    -2.2949671329985932E-010
  -4.7399999999999998E-002    -2.3298943330196664E-010
  -4.6299999999999994E-002    -1.7724251233364186E-010
  -4.5199999999999990E-002    -3.9996807948972091E-011
  -4.4099999999999986E-002     1.7328699586371954E-010
  -4.2999999999999997E-002     4.1959874463870506E-010
  -4.1899999999999993E-002     6.4424360290971094E-010
  -4.0799999999999989E-002     8.0668677293616042E-010
  -3.9699999999999985E-002     8.7561613515418912E-010
  -3.8599999999999995E-002     8.1776579952119732E-010
  -3.7499999999999992E-002     6.2022420532770184E-010
  -3.6399999999999988E-002     3.2892036316845008E-010
  -3.5299999999999984E-002     4.5463310199833629E-011
  -3.4199999999999994E-002    -1.2487011424866523E-010
  -3.3099999999999991E-002    -1.0977073416906791E-010
  -3.1999999999999987E-002     1.4635398448703540E-010
  -3.0899999999999997E-002     6.9390981849437594E-010
  -2.9799999999999993E-002     1.5184346002783400E-009
  -2.8699999999999989E-002     2.4584354552104060E-009
  -2.7599999999999986E-002     3.2189784171521296E-009
  -2.6499999999999996E-002     3.4917995161976023E-009
  -2.5399999999999992E-002     3.0425062469419117E-009
  -2.4299999999999988E-002     1.6652362822000555E-009
  -2.3199999999999985E-002    -8.9585627804922296E-010
  -2.2099999999999995E-002    -4.8898463056445962E-009
  -2.0999999999999991E-002    -1.0389085147721744E-008
  -1.9899999999999987E-002    -1.7221832848690610E-008
  -1.8799999999999983E-002    -2.5130905356718358E-008
  -1.7699999999999994E-002    -3.4010295024700099E-008
  -1.6599999999999990E-002    -4.3996017495828710E-008
  -1.5499999999999986E-002    -5.5407358701131670E-008
  -1.4399999999999996E-002    -6.8721043078312505E-008
  -1.3299999999999992E-002    -8.4656200272092974E-008
  -1.2199999999999989E-002    -1.0424456320379250E-007
  -1.1099999999999985E-002    -1.2877283950274432E-007
  -9.9999999999999950E-003    -1.5969096978096786E-007
  -8.8999999999999913E-003    -1.9860776490077114E-007
  -7.7999999999999875E-003    -2.4732509018576820E-007
  -6.6999999999999837E-003    -3.0777516712987563E-007
  -5.5999999999999939E-003    -3.8194323792595242E-007
  -4.4999999999999901E-003    -4.7200046537909657E-007
  -3.3999999999999864E-003    -5.8066422070623958E-007
  -2.2999999999999826E-003    -7.1144154389912728E-007
  -1.1999999999999927E-003    -8.6851957803446567E-007
  -9.9999999999988987E-005    -1.0565523780314834E-006
   1.0000000000000148E-003    -1.2807651046387036E-006
   2.1000000000000185E-003    -1.5473548273803317E-006
   3.2000000000000084E-003    -1.8637250605024747E-006
   4.3000000000000121E-003    -2.2382851057045627E-006
   5.4000000000000159E-003    -2.6801330932357814E-006
   6.5000000000000058E-003    -3.1991285140975378E-006
   7.6000000000000234E-003    -3.8063731153670233E-006
   8.7000000000000133E-003    -4.5144879550207406E-006
   9.8000000000000032E-003    -5.3374478738987818E-006
   1.0900000000000021E-002    -6.2903441175876651E-006
   1.2000000000000011E-002    -7.3894429988285992E-006
   1.3100000000000001E-002    -8.6524978542001918E-006
   1.4200000000000018E-002    -1.0098949132952839E-005
   1.5300000000000008E-002    -1.1749652912840247E-005
   1.6400000000000026E-002    -1.3626889085571747E-005
   1.7500000000000016E-002    -1.5754307241877541E-005
   1.8600000000000005E-002    -1.8156666556023993E-005
   1.9700000000000023E-002    -2.0859371943515725E-005
   2.0800000000000013E-002    -2.3887878342065960E-005
   2.1900000000000003E-002    -2.7267687983112410E-005
   2.3000000000000020E-002    -3.1024534109747037E-005
   2.4100000000000010E-002    -3.5183624277124181E-005
   2.5200000000000000E-002    -3.9768758142599836E-005
   2.6300000000000018E-002    -4.4801268813898787E-005
   2.7400000000000008E-002    -5.0299975555390120E-005
   2.8500000000000025E-002    -5.6281365687027574E-005
   2.9600000000000015E-002    -6.2758881540503353E-005
   3.0700000000000005E-002    -6.9740941398777068E-005
   3.1800000000000023E-002    -7.7229786256793886E-005
   3.2900000000000013E-002    -8.5220366599969566E-005
   3.4000000000000002E-002    -9.3700204160995781E-005
   3.5100000000000020E-002    -1.0264728916808963E-004
   3.6200000000000010E-002    -1.1202997848158702E-004
   3.7300000000000028E-002    -1.2180585326859728E-004
   3.8400000000000017E-002    -1.3192133337724954E-004
   3.9500000000000007E-002    -1.4230968372430652E-004
   4.0600000000000025E-002    -1.5289234579540789E-004
   4.1700000000000015E-002    -1.6357620188500732E-004
   4.2800000000000005E-002    -1.7425423720851541E-004
   4.3900000000000022E-002    -1.8480610742699355E-004
   4.5000000000000012E-002    -1.9509712001308799E-004
   4.6100000000000002E-002    -2.0498016965575516E-004
   4.7200000000000020E-002    -2.1429473417811096E-004
   4.8300000000000010E-002    -2.2286687453743070E-004
   4.9400000000000027E-002    -2.3051141761243343E-004
   5.0500000000000017E-002    -2.3703603073954582E-004
   5.1600000000000007E-002    -2.4224149819929153E-004
   5.2700000000000025E-002    -2.4592620320618153E-004
   5.3800000000000014E-002    -2.4788515293039382E-004
   5.4900000000000004E-002    -2.4791492614895105E-004
   5.6000000000000022E-002    -2.4581866455264390E-004
   5.7100000000000012E-002    -2.4140684399753809E-004
   5.8200000000000002E-002    -2.3450434673577547E-004
   5.9300000000000019E-002    -2.2495083976536989E-004
   6.0400000000000009E-002    -2.1261051006149501E-004
   6.1500000000000027E-002    -1.9737267575692385E-004
   6.2600000000000017E-002    -1.7915389616973698E-004
   6.3700000000000007E-002    -1.5790176985319704E-004
   6.4800000000000024E-002    -1.3360136654227972E-004
   6.5900000000000014E-002    -1.0628059681039304E-004
   6.7000000000000004E-002    -7.6013064244762063E-005
   6.8100000000000022E-002    -4.2914231016766280E-005
   6.9200000000000012E-002    -7.1414556259696838E-006
   7.0300000000000029E-002     3.1099676562007517E-005
   7.1400000000000019E-002     7.1553018642589450E-005
   7.2500000000000009E-002     1.1391338193789124E-004
   7.3600000000000027E-002     1.5783254639245570E-004
   7.4700000000000016E-002     2.0292306726332754E-004
   7.5800000000000006E-002     2.4876266252249479E-004
   7.6900000000000024E-002     2.9489272856153548E-004
   7.8000000000000014E-002     3.4082549973390996E-004
   7.9100000000000004E-002     3.8604869041591883E-004
   8.0200000000000021E-002     4.3003712198697031E-004
   8.1300000000000011E-002     4.7225938760675490E-004
   8.2400000000000029E-002     5.1218573935329914E-004
   8.3500000000000019E-002     5.4929696489125490E-004
   8.4600000000000009E-002     5.8308895677328110E-004
   8.5700000000000026E-002     6.1308179283514619E-004
   8.6800000000000016E-002     6.3882704125717282E-004
   8.7900000000000006E-002     6.5992120653390884E-004
   8.9000000000000024E-002     6.7601725459098816E-004
   9.0100000000000013E-002     6.8682886194437742E-004
   9.1200000000000003E-002     6.9212762173265219E-004
   9.2300000000000021E-002     6.9174281088635325E-004
   9.3400000000000011E-002     6.8557326449081302E-004
   9.4500000000000028E-002     6.7360076354816556E-004
   9.5600000000000018E-002     6.5589335281401873E-004
   9.6700000000000008E-002     6.3259538728743792E-004
   9.7800000000000026E-002     6.0391472652554512E-004
   9.8900000000000016E-002     5.7012250181287527E-004
  0.10000000000000001          5.3156301146373153E-004
  0.10110000000000002          4.8864644486457109E-004
  0.10220000000000001          4.4184501166455448E-004
  0.10330000000000003          3.9168502553366125E-004
  0.10440000000000002          3.3872923813760281E-004
  0.10550000000000001          2.8356155962683260E-004
  0.10660000000000003          2.2678765526507050E-004
  0.10770000000000002          1.6902659262996167E-004
  0.10880000000000001          1.1091278429375961E-004
  0.10990000000000003          5.3080002544447780E-005
  0.11100000000000002         -3.8586936170759145E-006
  0.11210000000000001         -5.9325539041310549E-005
  0.11320000000000002         -1.1278139572823420E-004
  0.11430000000000001         -1.6372623213101178E-004
  0.11540000000000003         -2.1169507817830890E-004
  0.11650000000000002         -2.5626781280152500E-004
  0.11760000000000001         -2.9708855436183512E-004
  0.11870000000000003         -3.3386767609044909E-004
  0.11980000000000002         -3.6638884921558201E-004
  0.12090000000000001         -3.9449438918381929E-004
  0.12200000000000003         -4.1808339301496744E-004
  0.12310000000000001         -4.3711205944418907E-004
  0.12420000000000003         -4.5159738510847092E-004
  0.12530000000000002         -4.6161876525729895E-004
  0.12640000000000001         -4.6731546171940863E-004
  0.12750000000000003         -4.6887507778592408E-004
  0.12860000000000002         -4.6652104356326163E-004
  0.12970000000000001         -4.6050833771005273E-004
  0.13080000000000003         -4.5112302177585661E-004
  0.13190000000000002         -4.3868014472536743E-004
  0.13300000000000001         -4.2351766023784876E-004
  0.13410000000000000         -4.0598490159027278E-004
  0.13520000000000004         -3.8643387961201370E-004
  0.13630000000000003         -3.6521285073831677E-004
  0.13740000000000002         -3.4266468719579279E-004
  0.13850000000000001         -3.1912652775645256E-004
  0.13960000000000000         -2.9492599423974752E-004
  0.14070000000000005         -2.7037085965275764E-004
  0.14180000000000004         -2.4574415874667466E-004
  0.14290000000000003         -2.2130185971036553E-004
  0.14400000000000002         -1.9727791368495673E-004
  0.14510000000000001         -1.7388592823408544E-004
  0.14620000000000000         -1.5131258987821639E-004
  0.14730000000000004         -1.2971110118087381E-004
  0.14840000000000003         -1.0920321074081585E-004
  0.14950000000000002         -8.9887165813706815E-005
  0.15060000000000001         -7.1842754550743848E-005
  0.15170000000000000         -5.5128151871031150E-005
  0.15280000000000005         -3.9774313336238265E-005
  0.15390000000000004         -2.5786601327126846E-005
  0.15500000000000003         -1.3153673535271082E-005
  0.15610000000000002         -1.8528660348238191E-006
  0.15720000000000001          8.1508169387234375E-006
  0.15830000000000000          1.6908594261622056E-005
  0.15940000000000004          2.4481847503921017E-005
  0.16050000000000003          3.0936600524000823E-005
  0.16160000000000002          3.6343641113489866E-005
  0.16270000000000001          4.0782731957733631E-005
  0.16380000000000000          4.4337939471006393E-005
  0.16490000000000005          4.7088058636290953E-005
  0.16600000000000004          4.9105248763225973E-005
  0.16710000000000003          5.0465809181332588E-005
  0.16820000000000002          5.1254377467557788E-005
  0.16930000000000001          5.1552167860791087E-005
  0.17040000000000000          5.1424205594230443E-005
  0.17150000000000004          5.0922673835884780E-005
  0.17260000000000003          5.0104841648135334E-005
  0.17370000000000002          4.9037967983167619E-005
  0.17480000000000001          4.7782599722268060E-005
  0.17590000000000000          4.6378543629543856E-005
  0.17700000000000005          4.4852153223473579E-005
  0.17810000000000004          4.3236075725872070E-005
  0.17920000000000003          4.1572257032385096E-005
  0.18030000000000002          3.9896040107123554E-005
  0.18140000000000001          3.8225811294978485E-005
  0.18250000000000000          3.6572000681189820E-005
  0.18360000000000004          3.4950429835589603E-005
  0.18470000000000003          3.3379317756043747E-005
  0.18580000000000002          3.1867166399024427E-005
  0.18690000000000001          3.0413597414735705E-005
  0.18800000000000000          2.9023092793067917E-005
  0.18910000000000005          2.7708494599210098E-005
  0.19020000000000004          2.6475781851331703E-005
  0.19130000000000003          2.5312892830697820E-005
  0.19240000000000002          2.4203794964705594E-005
  0.19350000000000001          2.3149395929067396E-005
  0.19460000000000005          2.2164551410241984E-005
  0.19570000000000004          2.1252926671877503E-005
  0.19680000000000003          2.0395302271936089E-005
  0.19790000000000002          1.9569353753468022E-005
  0.19900000000000001          1.8772738258121535E-005
  0.20010000000000000          1.8016704416368157E-005
  0.20120000000000005          1.7300408217124641E-005
  0.20230000000000004          1.6605852579232305E-005
  0.20340000000000003          1.5919027646305040E-005
  0.20450000000000002          1.5244324458763003E-005
  0.20560000000000000          1.4589396414521616E-005
  0.20670000000000005          1.3944551028544083E-005
  0.20780000000000004          1.3289988601172809E-005
  0.20890000000000003          1.2620210327440873E-005
