 -0.12000000000000000          0.0000000000000000
 -0.11889999999999999          0.0000000000000000
 -0.11780000000000000         -2.8803398555155013E-010
 -0.11670000000000000         -3.7413230846716772E-010
 -0.11559999999999999          3.5014202648397941E-010
 -0.11449999999999999          9.4072993839233732E-010
 -0.11340000000000000          9.4344455858763610E-011
 -0.11230000000000000         -1.0913584480576333E-009
 -0.11119999999999999         -5.3994975157678482E-010
 -0.11009999999999999          4.0800401945872977E-010
 -0.10900000000000000         -1.7057474321902077E-009
 -0.10790000000000000         -5.1608441964390295E-009
 -0.10679999999999999         -2.5409661041919662E-009
 -0.10569999999999999          7.8289525973218588E-009
 -0.10460000000000000          1.4875272569270237E-008
 -0.10349999999999999          7.4609092237665209E-009
 -0.10239999999999999         -7.8668920266977693E-009
 -0.10130000000000000         -1.2319265607629859E-008
 -0.10020000000000000         -5.1224863240051377E-010
  -9.9099999999999994E-002     1.0257084070985911E-008
  -9.7999999999999990E-002     3.9317309408204437E-009
  -9.6899999999999986E-002    -1.0295739372168100E-008
  -9.5799999999999996E-002    -1.0654857440783871E-008
  -9.4699999999999993E-002     4.9943347235625879E-009
  -9.3599999999999989E-002     1.5762251948103767E-008
  -9.2499999999999999E-002     8.8268272691038874E-009
  -9.1399999999999995E-002    -2.6691986398930112E-009
  -9.0299999999999991E-002    -2.5359829791682387E-009
  -8.9200000000000002E-002     1.5046202062052316E-009
  -8.8099999999999984E-002    -9.5546504041976732E-009
  -8.6999999999999994E-002    -3.3973314828017465E-008
  -8.5899999999999990E-002    -5.0856897360063158E-008
  -8.4799999999999986E-002    -5.4565649776350256E-008
  -8.3699999999999997E-002    -6.5483824585044204E-008
  -8.2599999999999993E-002    -9.6673517191447900E-008
  -8.1499999999999989E-002    -1.2998503962080576E-007
  -8.0399999999999999E-002    -1.4490596811356227E-007
  -7.9299999999999995E-002    -1.5748376824831212E-007
  -7.8199999999999992E-002    -2.0287296820242773E-007
  -7.7100000000000002E-002    -2.8165905519017542E-007
  -7.5999999999999984E-002    -3.5502588957569969E-007
  -7.4899999999999994E-002    -4.0535292100685183E-007
  -7.3799999999999991E-002    -4.7338946274066984E-007
  -7.2699999999999987E-002    -6.0896820741618285E-007
  -7.1599999999999997E-002    -8.0216676678901422E-007
  -7.0499999999999993E-002    -9.9893532023997977E-007
  -6.9399999999999989E-002    -1.1834096085294732E-006
  -6.8300000000000000E-002    -1.4076412071517552E-006
  -6.7199999999999996E-002    -1.7256371620533173E-006
  -6.6099999999999992E-002    -2.1305781956471037E-006
  -6.5000000000000002E-002    -2.5860765617835568E-006
  -6.3899999999999985E-002    -3.0978567338024732E-006
  -6.2799999999999995E-002    -3.7149002309888601E-006
  -6.1699999999999991E-002    -4.4658222577709239E-006
  -6.0599999999999994E-002    -5.3392168410937302E-006
  -5.9499999999999990E-002    -6.3407305788132362E-006
  -5.8399999999999994E-002    -7.5280190685589332E-006
  -5.7299999999999990E-002    -8.9556378952693194E-006
  -5.6199999999999986E-002    -1.0613609447318595E-005
  -5.5099999999999996E-002    -1.2469076864363160E-005
  -5.3999999999999992E-002    -1.4561963325832039E-005
  -5.2899999999999989E-002    -1.7006883354042657E-005
  -5.1799999999999985E-002    -1.9883873392245732E-005
  -5.0699999999999995E-002    -2.3173806766862981E-005
  -4.9599999999999991E-002    -2.6839185011340305E-005
  -4.8499999999999988E-002    -3.0936917028157040E-005
  -4.7399999999999998E-002    -3.5597415262600407E-005
  -4.6299999999999994E-002    -4.0901755710365251E-005
  -4.5199999999999990E-002    -4.6839217247907072E-005
  -4.4099999999999986E-002    -5.3402469347929582E-005
  -4.2999999999999997E-002    -6.0669768572552130E-005
  -4.1899999999999993E-002    -6.8749373895116150E-005
  -4.0799999999999989E-002    -7.7679054811596870E-005
  -3.9699999999999985E-002    -8.7439082562923431E-005
  -3.8599999999999995E-002    -9.8054559202864766E-005
  -3.7499999999999992E-002    -1.0961786028929055E-004
  -3.6399999999999988E-002    -1.2218930351082236E-004
  -3.5299999999999984E-002    -1.3573009346146137E-004
  -3.4199999999999994E-002    -1.5017819532658905E-004
  -3.3099999999999991E-002    -1.6554989269934595E-004
  -3.1999999999999987E-002    -1.8190129776485264E-004
  -3.0899999999999997E-002    -1.9920026534236968E-004
  -2.9799999999999993E-002    -2.1730425942223519E-004
  -2.8699999999999989E-002    -2.3608279298059642E-004
  -2.7599999999999986E-002    -2.5549548445269465E-004
  -2.6499999999999996E-002    -2.7549950755201280E-004
  -2.5399999999999992E-002    -2.9592044302262366E-004
  -2.4299999999999988E-002    -3.1648422009311616E-004
  -2.3199999999999985E-002    -3.3696350874379277E-004
  -2.2099999999999995E-002    -3.5721508902497590E-004
  -2.0999999999999991E-002    -3.7705682916566730E-004
  -1.9899999999999987E-002    -3.9616250433027744E-004
  -1.8799999999999983E-002    -4.1414154111407697E-004
  -1.7699999999999994E-002    -4.3067405931651592E-004
  -1.6599999999999990E-002    -4.4549716403707862E-004
  -1.5499999999999986E-002    -4.5828297152183950E-004
  -1.4399999999999996E-002    -4.6859937720000744E-004
  -1.3299999999999992E-002    -4.7602315316908062E-004
  -1.2199999999999989E-002    -4.8021945985965431E-004
  -1.1099999999999985E-002    -4.8088340554386377E-004
  -9.9999999999999950E-003    -4.7762581380084157E-004
  -8.8999999999999913E-003    -4.7001679195091128E-004
  -7.7999999999999875E-003    -4.5771920122206211E-004
  -6.6999999999999837E-003    -4.4053324381820858E-004
  -5.5999999999999939E-003    -4.1826925007626414E-004
  -4.4999999999999901E-003    -3.9066458703018725E-004
  -3.3999999999999864E-003    -3.5747967194765806E-004
  -2.2999999999999826E-003    -3.1863499316386878E-004
  -1.1999999999999927E-003    -2.7420156402513385E-004
  -9.9999999999988987E-005    -2.2426864597946405E-004
   1.0000000000000148E-003    -1.6890207189135253E-004
   2.1000000000000185E-003    -1.0825626668520272E-004
   3.2000000000000084E-003    -4.2665578803280368E-005
   4.3000000000000121E-003     2.7414460419095121E-005
   5.4000000000000159E-003     1.0152651520911604E-004
   6.5000000000000058E-003     1.7919986566994339E-004
   7.6000000000000234E-003     2.5982520310208201E-004
   8.7000000000000133E-003     3.4263017005287111E-004
   9.8000000000000032E-003     4.2678043246269226E-004
   1.0900000000000021E-002     5.1148422062397003E-004
   1.2000000000000011E-002     5.9593899641185999E-004
   1.3100000000000001E-002     6.7922950256615877E-004
   1.4200000000000018E-002     7.6034152880311012E-004
   1.5300000000000008E-002     8.3828537026420236E-004
   1.6400000000000026E-002     9.1215467546135187E-004
   1.7500000000000016E-002     9.8106055520474911E-004
   1.8600000000000005E-002     1.0440729092806578E-003
   1.9700000000000023E-002     1.1002884712070227E-003
   2.0800000000000013E-002     1.1489273747429252E-003
   2.1900000000000003E-002     1.1893339687958360E-003
   2.3000000000000020E-002     1.2208982370793819E-003
   2.4100000000000010E-002     1.2430375209078193E-003
   2.5200000000000000E-002     1.2552946573123336E-003
   2.6300000000000018E-002     1.2574163265526295E-003
   2.7400000000000008E-002     1.2493088142946362E-003
   2.8500000000000025E-002     1.2309454614296556E-003
   2.9600000000000015E-002     1.2023731833323836E-003
   3.0700000000000005E-002     1.1637946590781212E-003
   3.1800000000000023E-002     1.1156072141602635E-003
   3.2900000000000013E-002     1.0583418188616633E-003
   3.4000000000000002E-002     9.9260150454938412E-004
   3.5100000000000020E-002     9.1908039757981896E-004
   3.6200000000000010E-002     8.3860353333875537E-004
   3.7300000000000028E-002     7.5210758950561285E-004
   3.8400000000000017E-002     6.6056876676157117E-004
   3.9500000000000007E-002     5.6498212506994605E-004
   4.0600000000000025E-002     4.6639077481813729E-004
   4.1700000000000015E-002     3.6591131356544793E-004
   4.2800000000000005E-002     2.6468484429642558E-004
   4.3900000000000022E-002     1.6379852604586631E-004
   4.5000000000000012E-002     6.4271422161255032E-005
   4.6100000000000002E-002    -3.2908887078519911E-005
   4.7200000000000020E-002    -1.2678414350375533E-004
   4.8300000000000010E-002    -2.1645227388944477E-004
   4.9400000000000027E-002    -3.0109976069070399E-004
   5.0500000000000017E-002    -3.8002021028660238E-004
   5.1600000000000007E-002    -4.5261130435392261E-004
   5.2700000000000025E-002    -5.1836983766406775E-004
   5.3800000000000014E-002    -5.7690771063789725E-004
   5.4900000000000004E-002    -6.2794779660180211E-004
   5.6000000000000022E-002    -6.7130598472431302E-004
   5.7100000000000012E-002    -7.0689874701201916E-004
   5.8200000000000002E-002    -7.3475390672683716E-004
   5.9300000000000019E-002    -7.5500359525904059E-004
   6.0400000000000009E-002    -7.6787231955677271E-004
   6.1500000000000027E-002    -7.7367149060592055E-004
   6.2600000000000017E-002    -7.7278557000681758E-004
   6.3700000000000007E-002    -7.6565047493204474E-004
   6.4800000000000024E-002    -7.5273361289873719E-004
   6.5900000000000014E-002    -7.3454057564958930E-004
   6.7000000000000004E-002    -7.1163719985634089E-004
   6.8100000000000022E-002    -6.8463891511783004E-004
   6.9200000000000012E-002    -6.5415649442002177E-004
   7.0300000000000029E-002    -6.2075845198705792E-004
   7.1400000000000019E-002    -5.8499159058555961E-004
   7.2500000000000009E-002    -5.4742209613323212E-004
   7.3600000000000027E-002    -5.0862372154369950E-004
   7.4700000000000016E-002    -4.6911957906559110E-004
   7.5800000000000006E-002    -4.2935859528370202E-004
   7.6900000000000024E-002    -3.8976033101789653E-004
   7.8000000000000014E-002    -3.5074865445494652E-004
   7.9100000000000004E-002    -3.1270858016796410E-004
   8.0200000000000021E-002    -2.7592625701799989E-004
   8.1300000000000011E-002    -2.4061034491751343E-004
   8.2400000000000029E-002    -2.0697050786111504E-004
   8.3500000000000019E-002    -1.7523411952424794E-004
   8.4600000000000009E-002    -1.4557225222233683E-004
   8.5700000000000026E-002    -1.1803904635598883E-004
   8.6800000000000016E-002    -9.2628077254630625E-005
   8.7900000000000006E-002    -6.9367466494441032E-005
   8.9000000000000024E-002    -4.8312500439351425E-005
   9.0100000000000013E-002    -2.9448643545038067E-005
   9.1200000000000003E-002    -1.2660032552958000E-005
   9.2300000000000021E-002     2.1733351331931772E-006
   9.3400000000000011E-002     1.5101301869435702E-005
   9.4500000000000028E-002     2.6162701033172198E-005
   9.5600000000000018E-002     3.5491542803356424E-005
   9.6700000000000008E-002     4.3294887291267514E-005
   9.7800000000000026E-002     4.9722515541361645E-005
   9.8900000000000016E-002     5.4823049140395597E-005
  0.10000000000000001          5.8656900364439934E-005
  0.10110000000000002          6.1392755014821887E-005
  0.10220000000000001          6.3240964664146304E-005
  0.10330000000000003          6.4316598582081497E-005
  0.10440000000000002          6.4642612414900213E-005
  0.10550000000000001          6.4287800341844559E-005
  0.10660000000000003          6.3419356592930853E-005
  0.10770000000000002          6.2187667936086655E-005
  0.10880000000000001          6.0622151067946106E-005
  0.10990000000000003          5.8706107665784657E-005
  0.11100000000000002          5.6522218073951080E-005
  0.11210000000000001          5.4233438277151436E-005
  0.11320000000000002          5.1923983846791089E-005
  0.11430000000000001          4.9540500185685232E-005
  0.11540000000000003          4.7031797294039279E-005
  0.11650000000000002          4.4482269004220143E-005
  0.11760000000000001          4.2033527279272676E-005
  0.11870000000000003          3.9714148442726582E-005
  0.11980000000000002          3.7432739190990105E-005
  0.12090000000000001          3.5146164009347558E-005
  0.12200000000000003          3.2942742109298706E-005
  0.12310000000000001          3.0915904062567279E-005
  0.12420000000000003          2.9027280106674880E-005
  0.12530000000000002          2.7176083676749840E-005
  0.12640000000000001          2.5365474357386120E-005
  0.12750000000000003          2.3704102204646915E-005
  0.12860000000000002          2.2234762582229450E-005
  0.12970000000000001          2.0858284187852405E-005
  0.13080000000000003          1.9476678062346764E-005
  0.13190000000000002          1.8140202882932499E-005
  0.13300000000000001          1.6969952412182465E-005
  0.13410000000000000          1.5968611478456296E-005
  0.13520000000000004          1.5009618437034078E-005
  0.13630000000000003          1.4021567039890215E-005
  0.13740000000000002          1.3087857041682582E-005
  0.13850000000000001          1.2309455996728502E-005
  0.13960000000000000          1.1643496691249311E-005
  0.14070000000000005          1.0964985449390952E-005
  0.14180000000000004          1.0254112567054108E-005
  0.14290000000000003          9.6198100436595269E-006
  0.14400000000000002          9.1235651780152693E-006
  0.14510000000000001          8.6786012616357766E-006
  0.14620000000000000          8.1790785770863295E-006
  0.14730000000000004          7.6598853411269374E-006
  0.14840000000000003          7.2382931648462545E-006
  0.14950000000000002          6.9290304054447915E-006
  0.15060000000000001          6.6184625211462844E-006
  0.15170000000000000          6.2368530961975921E-006
  0.15280000000000005          5.8619748415367212E-006
  0.15390000000000004          5.5943360166565981E-006
  0.15500000000000003          5.3976546041667461E-006
  0.15610000000000002          5.1525958042475395E-006
  0.15720000000000001          4.8399847401014995E-006
  0.15830000000000000          4.5699489419348538E-006
  0.15940000000000004          4.4114381125837099E-006
  0.16050000000000003          4.2846609176194761E-006
  0.16160000000000002          4.0810573409544304E-006
  0.16270000000000001          3.8263915485003963E-006
  0.16380000000000000          3.6379176435730187E-006
  0.16490000000000005          3.5445962112135021E-006
  0.16600000000000004          3.4456941193639068E-006
  0.16710000000000003          3.2664759146427969E-006
  0.16820000000000002          3.0692033305967925E-006
  0.16930000000000001          2.9515933874790790E-006
  0.17040000000000000          2.8951910735486308E-006
  0.17150000000000004          2.7974060685664881E-006
  0.17260000000000003          2.6322504709241912E-006
  0.17370000000000002          2.4891369321267121E-006
  0.17480000000000001          2.4313708308909554E-006
  0.17590000000000000          2.3967222659848630E-006
  0.17700000000000005          2.2937531412026146E-006
  0.17810000000000004          2.1432474568428006E-006
  0.17920000000000003          2.0459347069845535E-006
  0.18030000000000002          2.0276336272218032E-006
  0.18140000000000001          2.0002075871161651E-006
  0.18250000000000000          1.8958854752781917E-006
  0.18360000000000004          1.7683454416328459E-006
  0.18470000000000003          1.7082484191632830E-006
  0.18580000000000002          1.7064984376702341E-006
  0.18690000000000001          1.6726702369851409E-006
  0.18800000000000000          1.5740893104521092E-006
  0.18910000000000005          1.4807507113800966E-006
  0.19020000000000004          1.4532051864080131E-006
  0.19130000000000003          1.4509529364659102E-006
  0.19240000000000002          1.3997820360600599E-006
  0.19350000000000001          1.3077126368443714E-006
  0.19460000000000005          1.2494241445892840E-006
  0.19570000000000004          1.2481283420129330E-006
  0.19680000000000003          1.2400504374454613E-006
  0.19790000000000002          1.1746832342396374E-006
  0.19900000000000001          1.0928204119409202E-006
  0.20010000000000000          1.0631642908265349E-006
  0.20120000000000005          1.0772120049296063E-006
  0.20230000000000004          1.0632556950440630E-006
  0.20340000000000003          9.9485589544201503E-007
  0.20450000000000002          9.2748194902014802E-007
  0.20560000000000000          9.1220971398797701E-007
  0.20670000000000005          9.2179448074602988E-007
  0.20780000000000004          8.9781582346404321E-007
  0.20890000000000003          8.4023093904761481E-007
