 -0.12000000000000000          0.0000000000000000
 -0.11889999999999999          0.0000000000000000
 -0.11780000000000000          0.0000000000000000
 -0.11670000000000000          0.0000000000000000
 -0.11559999999999999          0.0000000000000000
 -0.11449999999999999          0.0000000000000000
 -0.11340000000000000          0.0000000000000000
 -0.11230000000000000          0.0000000000000000
 -0.11119999999999999          0.0000000000000000
 -0.11009999999999999          0.0000000000000000
 -0.10900000000000000         -3.7337495265959402E-029
 -0.10790000000000000          1.3452980268776646E-029
 -0.10679999999999999          4.7176852879155723E-028
 -0.10569999999999999         -9.6295902889418017E-030
 -0.10460000000000000         -2.2791840147867427E-027
 -0.10349999999999999          2.2450898547602387E-027
 -0.10239999999999999          5.9567460880362029E-027
 -0.10130000000000000         -4.9226125347564345E-026
 -0.10020000000000000         -7.7164740560126534E-026
  -9.9099999999999994E-002     3.5427735857904654E-025
  -9.7999999999999990E-002     9.8178265744198625E-025
  -9.6899999999999986E-002    -6.6350928035577601E-025
  -9.5799999999999996E-002    -5.6465555246148190E-024
  -9.4699999999999993E-002    -5.2667584417961628E-024
  -9.3599999999999989E-002     1.2807495217591466E-023
  -9.2499999999999999E-002     3.4929138985165268E-023
  -9.1399999999999995E-002     1.6565144998329466E-023
  -9.0299999999999991E-002    -5.5165547973084697E-023
  -8.9200000000000002E-002    -1.2455055988738056E-022
  -8.8099999999999984E-002    -1.5215387581189486E-022
  -8.6999999999999994E-002    -1.0031468921886302E-022
  -8.5899999999999990E-002     3.5796291495330207E-022
  -8.4799999999999986E-002     1.5967285872270952E-021
  -8.3699999999999997E-002     2.3731367487684544E-021
  -8.2599999999999993E-002    -9.7030194264772057E-022
  -8.1499999999999989E-002    -9.7754791152774655E-021
  -8.0399999999999999E-002    -1.5159540369041869E-020
  -7.9299999999999995E-002    -9.7621499155776760E-022
  -7.8199999999999992E-002     3.4926218256062680E-020
  -7.7100000000000002E-002     6.3323448238456028E-020
  -7.5999999999999984E-002     4.1270806645443775E-020
  -7.4899999999999994E-002    -4.8335391134566925E-020
  -7.3799999999999991E-002    -1.8226384545268391E-019
  -7.2699999999999987E-002    -2.9687623336922975E-019
  -7.1599999999999997E-002    -2.4095362823242248E-019
  -7.0499999999999993E-002     2.3417079890827594E-019
  -6.9399999999999989E-002     1.1815509908253389E-018
  -6.8300000000000000E-002     1.9091243751711092E-018
  -6.7199999999999996E-002     9.8054785973375483E-019
  -6.6099999999999992E-002    -2.4318723302122645E-018
  -6.5000000000000002E-002    -6.6677217652358070E-018
  -6.3899999999999985E-002    -7.5772573067552266E-018
  -6.2799999999999995E-002    -1.5040671606961158E-018
  -6.1699999999999991E-002     1.1101701843276267E-017
  -6.0599999999999994E-002     2.4575507874809625E-017
  -5.9499999999999990E-002     2.9130346484969595E-017
  -5.8399999999999994E-002     1.2619682492068254E-017
  -5.7299999999999990E-002    -3.3211251963167308E-017
  -5.6199999999999986E-002    -9.6724538514095774E-017
  -5.5099999999999996E-002    -1.3118860845453385E-016
  -5.3999999999999992E-002    -7.0001820315969973E-017
  -5.2899999999999989E-002     1.1374952355954789E-016
  -5.1799999999999985E-002     3.4495162667047205E-016
  -5.0699999999999995E-002     4.5484303426928481E-016
  -4.9599999999999991E-002     2.8070621579426270E-016
  -4.8499999999999988E-002    -2.1407243670459224E-016
  -4.7399999999999998E-002    -8.8235120359993007E-016
  -4.6299999999999994E-002    -1.4008289115206743E-015
  -4.5199999999999990E-002    -1.3201911631838281E-015
  -4.4099999999999986E-002    -2.3408594589385964E-016
  -4.2999999999999997E-002     1.8395963192422565E-015
  -4.1899999999999993E-002     4.0546171224654058E-015
  -4.0799999999999989E-002     4.8309270537887083E-015
  -3.9699999999999985E-002     2.7573749405588937E-015
  -3.8599999999999995E-002    -2.2062720116691964E-015
  -3.7499999999999992E-002    -8.2677691665036628E-015
  -3.6399999999999988E-002    -1.2530708113115633E-014
  -3.5299999999999984E-002    -1.2231600450649405E-014
  -3.4199999999999994E-002    -5.6350933576483631E-015
  -3.3099999999999991E-002     7.2450759855489238E-015
  -3.1999999999999987E-002     2.3495123557750082E-014
  -3.0899999999999997E-002     3.6482837286128458E-014
  -2.9799999999999993E-002     3.7469969482858620E-014
  -2.8699999999999989E-002     2.0199904506783099E-014
  -2.7599999999999986E-002    -1.4547096302075860E-014
  -2.6499999999999996E-002    -5.8218790302978080E-014
  -2.5399999999999992E-002    -9.7321273490134225E-014
  -2.4299999999999988E-002    -1.1583339539281146E-013
  -2.3199999999999985E-002    -9.5982094071734442E-014
  -2.2099999999999995E-002    -2.2458485673384695E-014
  -2.0999999999999991E-002     1.0538202526323009E-013
  -1.9899999999999987E-002     2.5925317665223546E-013
  -1.8799999999999983E-002     3.7992111084732272E-013
  -1.7699999999999994E-002     3.9509281263283569E-013
  -1.6599999999999990E-002     2.4860170345919474E-013
  -1.5499999999999986E-002    -7.4177019778257081E-014
  -1.4399999999999996E-002    -5.2988055566569048E-013
  -1.3299999999999992E-002    -1.0064096908277143E-012
  -1.2199999999999989E-002    -1.3242385703618464E-012
  -1.1099999999999985E-002    -1.2707091238614576E-012
  -9.9999999999999950E-003    -6.7844476781334095E-013
  -8.8999999999999913E-003     4.7667073196575038E-013
  -7.7999999999999875E-003     2.0073491480143701E-012
  -6.6999999999999837E-003     3.5112121543612318E-012
  -5.5999999999999939E-003     4.4323195287632178E-012
  -4.4999999999999901E-003     4.1779127900321011E-012
  -3.3999999999999864E-003     2.2929143392996787E-012
  -2.2999999999999826E-003    -1.3153460525633376E-012
  -1.1999999999999927E-003    -6.1643867094174354E-012
  -9.9999999999988987E-005    -1.1108994800446137E-011
   1.0000000000000148E-003    -1.4475182337492232E-011
   2.1000000000000185E-003    -1.4431188015417984E-011
   3.2000000000000084E-003    -9.5314164547111169E-012
   4.3000000000000121E-003     6.7368902340395054E-013
   5.4000000000000159E-003     1.5105264261627838E-011
   6.5000000000000058E-003     3.0896309816119683E-011
   7.6000000000000234E-003     4.3611485950334483E-011
   8.7000000000000133E-003     4.8054060730606807E-011
   9.8000000000000032E-003     3.9579655525256996E-011
   1.0900000000000021E-002     1.5664728195141642E-011
   1.2000000000000011E-002    -2.2618832154486235E-011
   1.3100000000000001E-002    -6.9631168886363781E-011
   1.4200000000000018E-002    -1.1514259684597405E-010
   1.5300000000000008E-002    -1.4563522610089308E-010
   1.6400000000000026E-002    -1.4700293760050442E-010
   1.7500000000000016E-002    -1.0827106572408596E-010
   1.8600000000000005E-002    -2.5562938918421985E-011
   1.9700000000000023E-002     9.4652438664688532E-011
   2.0800000000000013E-002     2.3404939097915189E-010
   2.1900000000000003E-002     3.6363573263642479E-010
   2.3000000000000020E-002     4.4830217316160770E-010
   2.4100000000000010E-002     4.5464054743149518E-010
   2.5200000000000000E-002     3.6086078569752544E-010
   2.6300000000000018E-002     1.6667746349785517E-010
   2.7400000000000008E-002    -9.9403256459407174E-011
   2.8500000000000025E-002    -3.7785893858277575E-010
   2.9600000000000015E-002    -5.8291571569668577E-010
   3.0700000000000005E-002    -6.1526822525692637E-010
   3.1800000000000023E-002    -3.8215589026613372E-010
   3.2900000000000013E-002     1.7778721550509857E-010
   3.4000000000000002E-002     1.0693087526547629E-009
   3.5100000000000020E-002     2.2203141547549876E-009
   3.6200000000000010E-002     3.4717424490793292E-009
   3.7300000000000028E-002     4.5813384197401774E-009
   3.8400000000000017E-002     5.2426751828704710E-009
   3.9500000000000007E-002     5.1177009297020959E-009
   4.0600000000000025E-002     3.8776510891125326E-009
   4.1700000000000015E-002     1.2444674180045467E-009
   4.2800000000000005E-002    -2.9761610953471518E-009
   4.3900000000000022E-002    -8.8783655982638265E-009
   4.5000000000000012E-002    -1.6462434970776485E-008
   4.6100000000000002E-002    -2.5666590630635255E-008
   4.7200000000000020E-002    -3.6422193261387292E-008
   4.8300000000000010E-002    -4.8726651158403911E-008
   4.9400000000000027E-002    -6.2723721327984094E-008
   5.0500000000000017E-002    -7.8780530543554050E-008
   5.1600000000000007E-002    -9.7548799260493979E-008
   5.2700000000000025E-002    -1.2000288052149699E-007
   5.3800000000000014E-002    -1.4745177168151713E-007
   5.4900000000000004E-002    -1.8152699965412467E-007
   5.6000000000000022E-002    -2.2415444789203320E-007
   5.7100000000000012E-002    -2.7752147957471607E-007
   5.8200000000000002E-002    -3.4406107829454413E-007
   5.9300000000000019E-002    -4.2645606868063624E-007
   6.0400000000000009E-002    -5.2768388059121207E-007
   6.1500000000000027E-002    -6.5110452851513401E-007
   6.2600000000000017E-002    -8.0058924822878907E-007
   6.3700000000000007E-002    -9.8067948783864267E-007
   6.4800000000000024E-002    -1.1967570117121795E-006
   6.5900000000000014E-002    -1.4552131233358523E-006
   6.7000000000000004E-002    -1.7635909443924902E-006
   6.8100000000000022E-002    -2.1306948383426061E-006
   6.9200000000000012E-002    -2.5666818146419246E-006
   7.0300000000000029E-002    -3.0831156436761376E-006
   7.1400000000000019E-002    -3.6930039186700014E-006
   7.2500000000000009E-002    -4.4108496695116628E-006
   7.3600000000000027E-002    -5.2527425395965111E-006
   7.4700000000000016E-002    -6.2364642872125842E-006
   7.5800000000000006E-002    -7.3816459007502999E-006
   7.6900000000000024E-002    -8.7099333541118540E-006
   7.8000000000000014E-002    -1.0245106750517152E-005
   7.9100000000000004E-002    -1.2013254490739200E-005
   8.0200000000000021E-002    -1.4042790098756086E-005
   8.1300000000000011E-002    -1.6364427210646681E-005
   8.2400000000000029E-002    -1.9011100448551588E-005
   8.3500000000000019E-002    -2.2017709852661937E-005
   8.4600000000000009E-002    -2.5420909878448583E-005
   8.5700000000000026E-002    -2.9258741051307879E-005
   8.6800000000000016E-002    -3.3570184314157814E-005
   8.7900000000000006E-002    -3.8394733564928174E-005
   8.9000000000000024E-002    -4.3771950004156679E-005
   9.0100000000000013E-002    -4.9740738177206367E-005
   9.1200000000000003E-002    -5.6338725698878989E-005
   9.2300000000000021E-002    -6.3601590227335691E-005
   9.3400000000000011E-002    -7.1561866207048297E-005
   9.4500000000000028E-002    -8.0248028098139912E-005
   9.5600000000000018E-002    -8.9683249825611711E-005
   9.6700000000000008E-002    -9.9884106020908803E-005
   9.7800000000000026E-002    -1.1085900041507557E-004
   9.8900000000000016E-002    -1.2260685616638511E-004
  0.10000000000000001         -1.3511553697753698E-004
  0.10110000000000002         -1.4835980255156755E-004
  0.10220000000000001         -1.6230028995778412E-004
  0.10330000000000003         -1.7688135267235339E-004
  0.10440000000000002         -1.9203010015189648E-004
  0.10550000000000001         -2.0765513181686401E-004
  0.10660000000000003         -2.2364493634086102E-004
  0.10770000000000002         -2.3986751330085099E-004
  0.10880000000000001         -2.5616961647756398E-004
  0.10990000000000003         -2.7237602625973523E-004
  0.11100000000000002         -2.8829055372625589E-004
  0.11210000000000001         -3.0369526939466596E-004
  0.11320000000000002         -3.1835201662033796E-004
  0.11430000000000001         -3.3200293546542525E-004
  0.11540000000000003         -3.4437232534401119E-004
  0.11650000000000002         -3.5516914795152843E-004
  0.11760000000000001         -3.6409043241292238E-004
  0.11870000000000003         -3.7082427297718823E-004
  0.11980000000000002         -3.7505381624214351E-004
  0.12090000000000001         -3.7646206328645349E-004
  0.12200000000000003         -3.7473821430467069E-004
  0.12310000000000001         -3.6958372220396996E-004
  0.12420000000000003         -3.6071709473617375E-004
  0.12530000000000002         -3.4787959884852171E-004
  0.12640000000000001         -3.3084175083786249E-004
  0.12750000000000003         -3.0941044678911567E-004
  0.12860000000000002         -2.8343565645627677E-004
  0.12970000000000001         -2.5281627313233912E-004
  0.13080000000000003         -2.1750495943706483E-004
  0.13190000000000002         -1.7751379346009344E-004
  0.13300000000000001         -1.3291953655425459E-004
  0.13410000000000000         -8.3867773355450481E-005
  0.13520000000000004         -3.0575836717616767E-005
  0.13630000000000003          2.6665658879210241E-005
  0.13740000000000002          8.7492422608193010E-005
  0.13850000000000001          1.5146750956773758E-004
  0.13960000000000000          2.1808408200740814E-004
  0.14070000000000005          2.8676885995082557E-004
  0.14180000000000004          3.5688720527105033E-004
  0.14290000000000003          4.2774766916409135E-004
  0.14400000000000002          4.9861136358231306E-004
  0.14510000000000001          5.6870223488658667E-004
  0.14620000000000000          6.3721759943291545E-004
  0.14730000000000004          7.0333806797862053E-004
  0.14840000000000003          7.6623877976089716E-004
  0.14950000000000002          8.2510319771245122E-004
  0.15060000000000001          8.7913690367713571E-004
  0.15170000000000000          9.2758086975663900E-004
  0.15280000000000005          9.6972653409466147E-004
  0.15390000000000004          1.0049259290099144E-003
  0.15500000000000003          1.0326028568670154E-003
  0.15610000000000002          1.0522645898163319E-003
  0.15720000000000001          1.0635139187797904E-003
  0.15830000000000000          1.0660552652552724E-003
  0.15940000000000004          1.0597034124657512E-003
  0.16050000000000003          1.0443885112181306E-003
  0.16160000000000002          1.0201552649959922E-003
  0.16270000000000001          9.8716700449585915E-004
  0.16380000000000000          9.4570242799818516E-004
  0.16490000000000005          8.9615368051454425E-004
  0.16600000000000004          8.3902257028967142E-004
  0.16710000000000003          7.7491218689829111E-004
  0.16820000000000002          7.0451525971293449E-004
  0.16930000000000001          6.2860257457941771E-004
  0.17040000000000000          5.4801406804472208E-004
  0.17150000000000004          4.6364756417460740E-004
  0.17260000000000003          3.7644366966560483E-004
  0.17370000000000002          2.8736770036630332E-004
  0.17480000000000001          1.9739422714337707E-004
  0.17590000000000000          1.0749186913017184E-004
  0.17700000000000005          1.8610466213431209E-005
  0.17810000000000004         -6.8332097725942731E-005
  0.17920000000000003         -1.5246335533447564E-004
  0.18030000000000002         -2.3296926519833505E-004
  0.18140000000000001         -3.0910622444935143E-004
  0.18250000000000000         -3.8021089858375490E-004
  0.18360000000000004         -4.4570662430487573E-004
  0.18470000000000003         -5.0510710570961237E-004
  0.18580000000000002         -5.5802008137106895E-004
  0.18690000000000001         -6.0415122425183654E-004
  0.18800000000000000         -6.4330716850236058E-004
  0.18910000000000005         -6.7539524752646685E-004
  0.19020000000000004         -7.0041703293099999E-004
  0.19130000000000003         -7.1846309583634138E-004
  0.19240000000000002         -7.2970637120306492E-004
  0.19350000000000001         -7.3439511470496655E-004
  0.19460000000000005         -7.3285016696900129E-004
  0.19570000000000004         -7.2545418515801430E-004
  0.19680000000000003         -7.1264308644458652E-004
  0.19790000000000002         -6.9489155430346727E-004
  0.19900000000000001         -6.7270413273945451E-004
  0.20010000000000000         -6.4660713542252779E-004
  0.20120000000000005         -6.1714160256087780E-004
  0.20230000000000004         -5.8485585032030940E-004
  0.20340000000000003         -5.5029534269124269E-004
  0.20450000000000002         -5.1399151561781764E-004
  0.20560000000000000         -4.7645272570662200E-004
  0.20670000000000005         -4.3816096149384975E-004
  0.20780000000000004         -3.9957062108442187E-004
  0.20890000000000003         -3.6110531073063612E-004
