 -0.12000000000000000          0.0000000000000000
 -0.11889999999999999          0.0000000000000000
 -0.11780000000000000          0.0000000000000000
 -0.11670000000000000          0.0000000000000000
 -0.11559999999999999          0.0000000000000000
 -0.11449999999999999          0.0000000000000000
 -0.11340000000000000          0.0000000000000000
 -0.11230000000000000          0.0000000000000000
 -0.11119999999999999          0.0000000000000000
 -0.11009999999999999          0.0000000000000000
 -0.10900000000000000          3.7337492256693864E-029
 -0.10790000000000000         -1.5412589913066354E-029
 -0.10679999999999999         -4.7066111907353457E-028
 -0.10569999999999999          3.4946594675482939E-029
 -0.10460000000000000          2.2726612752510920E-027
 -0.10349999999999999         -2.3659381069106490E-027
 -0.10239999999999999         -5.7739583881303436E-027
 -0.10130000000000000          4.9473507197060997E-026
 -0.10020000000000000          7.3761428214655894E-026
  -9.9099999999999994E-002    -3.5826228944177048E-025
  -9.7999999999999990E-002    -9.5600869812376589E-025
  -9.6899999999999986E-002     7.2430388139657139E-025
  -9.5799999999999996E-002     5.5817557288467968E-024
  -9.4699999999999993E-002     4.8780918013896542E-024
  -9.3599999999999989E-002    -1.3090437536188897E-023
  -9.2499999999999999E-002    -3.3913111382789572E-023
  -9.1399999999999995E-002    -1.4170013406506482E-023
  -9.0299999999999991E-002     5.5987042476232892E-023
  -8.9200000000000002E-002     1.2020269936571340E-022
  -8.8099999999999984E-002     1.4259984886013111E-022
  -8.6999999999999994E-002     8.8055121797680869E-023
  -8.5899999999999990E-002    -3.6373967394247588E-022
  -8.4799999999999986E-002    -1.5562633801812699E-021
  -8.3699999999999997E-002    -2.2292378163913798E-021
  -8.2599999999999993E-002     1.1398410506332382E-021
  -8.1499999999999989E-002     9.5910485348336842E-021
  -8.0399999999999999E-002     1.4230823336297958E-020
  -7.9299999999999995E-002    -2.0210423278612724E-022
  -7.8199999999999992E-002    -3.4533271922183046E-020
  -7.7100000000000002E-002    -5.9679665941371657E-020
  -7.5999999999999984E-002    -3.5590618771353222E-020
  -7.4899999999999994E-002     5.0935898346417325E-020
  -7.3799999999999991E-002     1.7517780273524840E-019
  -7.2699999999999987E-002     2.7621114201733545E-019
  -7.1599999999999997E-002     2.1148604269325685E-019
  -7.0499999999999993E-002    -2.4874900417451636E-019
  -6.9399999999999989E-002    -1.1344288894724540E-018
  -6.8300000000000000E-002    -1.7642918741531276E-018
  -6.7199999999999996E-002    -7.9612173831046316E-019
  -6.6099999999999992E-002     2.4487960319547932E-018
  -6.5000000000000002E-002     6.2714493122637033E-018
  -6.3899999999999985E-002     6.7751051115865222E-018
  -6.2799999999999995E-002     7.9459357382755973E-019
  -6.1699999999999991E-002    -1.0857183945483141E-017
  -6.0599999999999994E-002    -2.2700529308529552E-017
  -5.9499999999999990E-002    -2.5839889837043881E-017
  -5.8399999999999994E-002    -9.5859157046493822E-018
  -5.7299999999999990E-002     3.2789310441426459E-017
  -5.6199999999999986E-002     8.9371041834842267E-017
  -5.5099999999999996E-002     1.1655935683871702E-016
  -5.3999999999999992E-002     5.5178568376729856E-017
  -5.2899999999999989E-002    -1.1382573005502117E-016
  -5.1799999999999985E-002    -3.1578537062075030E-016
  -5.0699999999999995E-002    -3.9751616203646898E-016
  -4.9599999999999991E-002    -2.2280119063538661E-016
  -4.8499999999999988E-002     2.2402867372485610E-016
  -4.7399999999999998E-002     7.9938332056474649E-016
  -4.6299999999999994E-002     1.2179048409019380E-015
  -4.5199999999999990E-002     1.0986557309392150E-015
  -4.4099999999999986E-002     1.1228503006352480E-016
  -4.2999999999999997E-002    -1.6862904496901614E-015
  -4.1899999999999993E-002    -3.5227649231261938E-015
  -4.0799999999999989E-002    -4.0350862367676162E-015
  -3.9699999999999985E-002    -2.1037206739539342E-015
  -3.8599999999999995E-002     2.1420525147072171E-015
  -3.7499999999999992E-002     7.0666599301545934E-015
  -3.6399999999999988E-002     1.0296897578023542E-014
  -3.5299999999999984E-002     9.7682202699288755E-015
  -3.4199999999999994E-002     4.2955378566199992E-015
  -3.3099999999999991E-002    -6.0231958072672846E-015
  -3.1999999999999987E-002    -1.8899671663298069E-014
  -3.0899999999999997E-002    -2.9128494050383730E-014
  -2.9799999999999993E-002    -2.9913768131387825E-014
  -2.8699999999999989E-002    -1.6592428453876713E-014
  -2.7599999999999986E-002     1.0003649689486419E-014
  -2.6499999999999996E-002     4.3557019292371144E-014
  -2.5399999999999992E-002     7.4719249613507815E-014
  -2.4299999999999988E-002     9.2170066338329720E-014
  -2.3199999999999985E-002     8.1799923280258258E-014
  -2.2099999999999995E-002     2.9473880204956143E-014
  -2.0999999999999991E-002    -6.8365208242757158E-014
  -1.9899999999999987E-002    -1.9201621629522103E-013
  -1.8799999999999983E-002    -2.9645467396026415E-013
  -1.7699999999999994E-002    -3.2548044663106845E-013
  -1.6599999999999990E-002    -2.3350885027667578E-013
  -1.5499999999999986E-002    -3.0118611191220016E-015
  -1.4399999999999996E-002     3.4366422468207203E-013
  -1.3299999999999992E-002     7.3275549039922283E-013
  -1.2199999999999989E-002     1.0337130457171995E-012
  -1.1099999999999985E-002     1.0800296204246940E-012
  -9.9999999999999950E-003     7.2678202431980532E-013
  -8.8999999999999913E-003    -7.5430581106348399E-014
  -7.7999999999999875E-003    -1.2279996897818224E-012
  -6.6999999999999837E-003    -2.4742818471173988E-012
  -5.5999999999999939E-003    -3.4267796933384886E-012
  -4.4999999999999901E-003    -3.6274559744864376E-012
  -3.3999999999999864E-003    -2.6573671648572050E-012
  -2.2999999999999826E-003    -3.0402297433035352E-013
  -1.1999999999999927E-003     3.2564777697335900E-012
  -9.9999999999988987E-005     7.3510338441384881E-012
   1.0000000000000148E-003     1.0849128019574383E-011
   2.1000000000000185E-003     1.2364874749093424E-011
   3.2000000000000084E-003     1.0590577893820896E-011
   4.3000000000000121E-003     4.7172227062020067E-012
   5.4000000000000159E-003    -5.1288543724548052E-012
   6.5000000000000058E-003    -1.7563410795173873E-011
   7.6000000000000234E-003    -2.9900564663121187E-011
   8.7000000000000133E-003    -3.8495120285864104E-011
   9.8000000000000032E-003    -3.9456358319478468E-011
   1.0900000000000021E-002    -2.9622856251299012E-011
   1.2000000000000011E-002    -7.6443894617139740E-012
   1.3100000000000001E-002     2.5038868547988535E-011
   1.4200000000000018E-002     6.3623807611268290E-011
   1.5300000000000008E-002     1.0011131507114968E-010
   1.6400000000000026E-002     1.2439600738378687E-010
   1.7500000000000016E-002     1.2618821265686364E-010
   1.8600000000000005E-002     9.7445385094374615E-011
   1.9700000000000023E-002     3.4874221566116859E-011
   2.0800000000000013E-002    -5.8033147731784140E-011
   2.1900000000000003E-002    -1.7009459118977333E-010
   2.3000000000000020E-002    -2.8332353130267052E-010
   2.4100000000000010E-002    -3.7591502133338395E-010
   2.5200000000000000E-002    -4.2700809554929720E-010
   2.6300000000000018E-002    -4.2232797814456546E-010
   2.7400000000000008E-002    -3.5952157917407135E-010
   2.8500000000000025E-002    -2.5193336306017500E-010
   2.9600000000000015E-002    -1.2955797545899372E-010
   3.0700000000000005E-002    -3.6095210154130086E-011
   3.1800000000000023E-002    -2.1661426125030303E-011
   3.2900000000000013E-002    -1.3178140523262272E-010
   3.4000000000000002E-002    -3.9438602383867760E-010
   3.5100000000000020E-002    -8.0728479456837476E-010
   3.6200000000000010E-002    -1.3287112521354061E-009
   3.7300000000000028E-002    -1.8733292694861348E-009
   3.8400000000000017E-002    -2.3153805539521954E-009
   3.9500000000000007E-002    -2.4991959612918890E-009
   4.0600000000000025E-002    -2.2556432277553995E-009
   4.1700000000000015E-002    -1.4215084664925826E-009
   4.2800000000000005E-002     1.4194530273403672E-010
   4.3900000000000022E-002     2.5351942767315450E-009
   4.5000000000000012E-002     5.8151434778608291E-009
   4.6100000000000002E-002     1.0000620775940661E-008
   4.7200000000000020E-002     1.5089987925875903E-008
   4.8300000000000010E-002     2.1089659796302840E-008
   4.9400000000000027E-002     2.8050072486962563E-008
   5.0500000000000017E-002     3.6104573553075170E-008
   5.1600000000000007E-002     4.5506759249747120E-008
   5.2700000000000025E-002     5.6659633429489986E-008
   5.3800000000000014E-002     7.0135712348928791E-008
   5.4900000000000004E-002     8.6684913469525782E-008
   5.6000000000000022E-002     1.0723382359856259E-007
   5.7100000000000012E-002     1.3287846911680390E-007
   5.8200000000000002E-002     1.6487301479628513E-007
   5.9300000000000019E-002     2.0462853456137964E-007
   6.0400000000000009E-002     2.5372384016009164E-007
   6.1500000000000027E-002     3.1393071253660310E-007
   6.2600000000000017E-002     3.8726150819456961E-007
   6.3700000000000007E-002     4.7603091957171273E-007
   6.4800000000000024E-002     5.8293557003707974E-007
   6.5900000000000014E-002     7.1113413468992803E-007
   6.7000000000000004E-002     8.6432788748425082E-007
   6.8100000000000022E-002     1.0468231721461052E-006
   6.9200000000000012E-002     1.2636005521926563E-006
   7.0300000000000029E-002     1.5203647762973560E-006
   7.1400000000000019E-002     1.8235614334116690E-006
   7.2500000000000009E-002     2.1804228254040936E-006
   7.3600000000000027E-002     2.5989829737227410E-006
   7.4700000000000016E-002     3.0881649308867054E-006
   7.5800000000000006E-002     3.6578144317900296E-006
   7.6900000000000024E-002     4.3187496885366272E-006
   7.8000000000000014E-002     5.0828043640649412E-006
   7.9100000000000004E-002     5.9628860071825329E-006
   8.0200000000000021E-002     6.9730408540635835E-006
   8.1300000000000011E-002     8.1283733379677869E-006
   8.2400000000000029E-002     9.4450506367138587E-006
   8.3500000000000019E-002     1.0940143511106726E-005
   8.4600000000000009E-002     1.2631561730813701E-005
   8.5700000000000026E-002     1.4537870811182074E-005
   8.6800000000000016E-002     1.6678071915521286E-005
   8.7900000000000006E-002     1.9071412680204958E-005
   8.9000000000000024E-002     2.1737103452323936E-005
   9.0100000000000013E-002     2.4694041712791659E-005
   9.1200000000000003E-002     2.7960299121332355E-005
   9.2300000000000021E-002     3.1553096050629392E-005
   9.3400000000000011E-002     3.5487722925608978E-005
   9.4500000000000028E-002     3.9777569327270612E-005
   9.5600000000000018E-002     4.4433094444684684E-005
   9.6700000000000008E-002     4.9461592425359413E-005
   9.7800000000000026E-002     5.4866126447450370E-005
   9.8900000000000016E-002     6.0645070334430784E-005
  0.10000000000000001          6.6791202698368579E-005
  0.10110000000000002          7.3290961154270917E-005
  0.10220000000000001          8.0123420048039407E-005
  0.10330000000000003          8.7259992142207921E-005
  0.10440000000000002          9.4663919298909605E-005
  0.10550000000000001          1.0228860628558323E-004
  0.10660000000000003          1.1007806460838765E-004
  0.10770000000000002          1.1796591570600867E-004
  0.10880000000000001          1.2587582750711590E-004
  0.10990000000000003          1.3372008106671274E-004
  0.11100000000000002          1.4140040730126202E-004
  0.11210000000000001          1.4880910748615861E-004
  0.11320000000000002          1.5582902415189892E-004
  0.11430000000000001          1.6233211499638855E-004
  0.11540000000000003          1.6818205767776817E-004
  0.11650000000000002          1.7323580686934292E-004
  0.11760000000000001          1.7734432185534388E-004
  0.11870000000000003          1.8035543325822800E-004
  0.11980000000000002          1.8211394490208477E-004
  0.12090000000000001          1.8246511172037572E-004
  0.12200000000000003          1.8125718634109944E-004
  0.12310000000000001          1.7834510072134435E-004
  0.12420000000000003          1.7359326011501253E-004
  0.12530000000000002          1.6687579045537859E-004
  0.12640000000000001          1.5808080206625164E-004
  0.12750000000000003          1.4711750554852188E-004
  0.12860000000000002          1.3391602260526270E-004
  0.12970000000000001          1.1843032552860677E-004
  0.13080000000000003          1.0063978697871789E-004
  0.13190000000000002          8.0554316809866577E-005
  0.13300000000000001          5.8214671298628673E-005
  0.13410000000000000          3.3698583138175309E-005
  0.13520000000000004          7.1167219175549690E-006
  0.13630000000000003         -2.1385378204286098E-005
  0.13740000000000002         -5.1622744649648666E-005
  0.13850000000000001         -8.3377759438008070E-005
  0.13960000000000000         -1.1639704462140799E-004
  0.14070000000000005         -1.5039436402730644E-004
  0.14180000000000004         -1.8505351908970624E-004
  0.14290000000000003         -2.2002962941769511E-004
  0.14400000000000002         -2.5495645240880549E-004
  0.14510000000000001         -2.8945007943548262E-004
  0.14620000000000000         -3.2311273389495909E-004
  0.14730000000000004         -3.5553830093704164E-004
  0.14840000000000003         -3.8631921052001417E-004
  0.14950000000000002         -4.1505071567371488E-004
  0.15060000000000001         -4.4134067138656974E-004
  0.15170000000000000         -4.6481593744829297E-004
  0.15280000000000005         -4.8512814100831747E-004
  0.15390000000000004         -5.0195830408483744E-004
  0.15500000000000003         -5.1502289716154337E-004
  0.15610000000000002         -5.2407977636903524E-004
  0.15720000000000001         -5.2893540123477578E-004
  0.15830000000000000         -5.2944855997338891E-004
  0.15940000000000004         -5.2553258137777448E-004
  0.16050000000000003         -5.1715492736548185E-004
  0.16160000000000002         -5.0434219883754849E-004
  0.16270000000000001         -4.8717891331762075E-004
  0.16380000000000000         -4.6580820344388485E-004
  0.16490000000000005         -4.4043123489245772E-004
  0.16600000000000004         -4.1130348108708858E-004
  0.16710000000000003         -3.7872779648751020E-004
  0.16820000000000002         -3.4305104054510593E-004
  0.16930000000000001         -3.0466102180071175E-004
  0.17040000000000000         -2.6398073532618582E-004
  0.17150000000000004         -2.2146082483232021E-004
  0.17260000000000003         -1.7757301975507289E-004
  0.17370000000000002         -1.3280284474603832E-004
  0.17480000000000001         -8.7636202806606889E-005
  0.17590000000000000         -4.2555548134259880E-005
  0.17700000000000005          1.9631681880127871E-006
  0.17810000000000004          4.5457614760380238E-005
  0.17920000000000003          8.7492175225634128E-005
  0.18030000000000002          1.2766079453285784E-004
  0.18140000000000001          1.6559392679482698E-004
  0.18250000000000000          2.0096240041311830E-004
  0.18360000000000004          2.3347974638454616E-004
  0.18470000000000003          2.6290226378478110E-004
  0.18580000000000002          2.8903599013574421E-004
  0.18690000000000001          3.1173767638392746E-004
  0.18800000000000000          3.3091387012973428E-004
  0.18910000000000005          3.4652146860025823E-004
  0.19020000000000004          3.5856603062711656E-004
  0.19130000000000003          3.6709613050334156E-004
  0.19240000000000002          3.7220134981907904E-004
  0.19350000000000001          3.7401082227006555E-004
  0.19460000000000005          3.7268878077156842E-004
  0.19570000000000004          3.6843225825577974E-004
  0.19680000000000003          3.6146430647931993E-004
  0.19790000000000002          3.5202535218559206E-004
  0.19900000000000001          3.4037057776004076E-004
  0.20010000000000000          3.2676759292371571E-004
  0.20120000000000005          3.1149195274338126E-004
  0.20230000000000004          2.9482308309525251E-004
  0.20340000000000003          2.7703717933036387E-004
  0.20450000000000002          2.5840156013146043E-004
  0.20560000000000000          2.3917223734315485E-004
  0.20670000000000005          2.1959292644169182E-004
  0.20780000000000004          1.9989357679150999E-004
  0.20890000000000003          1.8028778140433133E-004
