 -0.12000000000000000          0.0000000000000000
 -0.11889999999999999          0.0000000000000000
 -0.11780000000000000          0.0000000000000000
 -0.11670000000000000          0.0000000000000000
 -0.11559999999999999          0.0000000000000000
 -0.11449999999999999          0.0000000000000000
 -0.11340000000000000          0.0000000000000000
 -0.11230000000000000          4.5173359149350863E-021
 -0.11119999999999999         -2.1335502255219704E-021
 -0.11009999999999999         -5.0255073772323631E-020
 -0.10900000000000000          6.3249311368262396E-021
 -0.10790000000000000          3.2296874106342003E-019
 -0.10679999999999999          1.0674489862714353E-019
 -0.10569999999999999         -1.4623056033028808E-018
 -0.10460000000000000         -1.2596287756393723E-018
 -0.10349999999999999          4.7662428136713723E-018
 -0.10239999999999999          7.2483752582878182E-018
 -0.10130000000000000         -1.0592402604224305E-017
 -0.10020000000000000         -2.7792540662842683E-017
  -9.9099999999999994E-002     1.2570427195313171E-017
  -9.7999999999999990E-002     7.9820467421864213E-017
  -9.6899999999999986E-002     1.2145806435568263E-017
  -9.5799999999999996E-002    -1.8955672240754162E-016
  -9.4699999999999993E-002    -1.2843969537311802E-016
  -9.3599999999999989E-002     3.9215282882379356E-016
  -9.2499999999999999E-002     5.3948952484768960E-016
  -9.1399999999999995E-002    -6.0574301261382248E-016
  -9.0299999999999991E-002    -1.6980247147458305E-015
  -8.9200000000000002E-002     1.2997139563954981E-016
  -8.8099999999999984E-002     3.8443746511109423E-015
  -8.6999999999999994E-002     2.7951549393470405E-015
  -8.5899999999999990E-002    -5.4412875606353692E-015
  -8.4799999999999986E-002    -9.5917392613025475E-015
  -8.3699999999999997E-002     2.5227900128497625E-015
  -8.2599999999999993E-002     1.8417193226212547E-014
  -8.1499999999999989E-002     8.2132337972276419E-015
  -8.0399999999999999E-002    -2.5318124807489732E-014
  -7.9299999999999995E-002    -2.8646783025148420E-014
  -7.8199999999999992E-002     2.6885415280782782E-014
  -7.7100000000000002E-002     6.7104484404063858E-014
  -7.5999999999999984E-002    -4.8576348496485837E-015
  -7.4899999999999994E-002    -1.2584722218315914E-013
  -7.3799999999999991E-002    -8.8558941267486563E-014
  -7.2699999999999987E-002     1.4607442317370045E-013
  -7.1599999999999997E-002     2.6607221200597442E-013
  -7.0499999999999993E-002    -1.4646290636462916E-014
  -6.9399999999999989E-002    -4.1285177316760513E-013
  -6.8300000000000000E-002    -2.8991471224572296E-013
  -6.7199999999999996E-002     3.7689458758788374E-013
  -6.6099999999999992E-002     6.6023027973580173E-013
  -6.5000000000000002E-002    -1.0487465930408835E-013
  -6.3899999999999985E-002    -1.0222483666846860E-012
  -6.2799999999999995E-002    -5.2547175595149542E-013
  -6.1699999999999991E-002     1.1612579387670907E-012
  -6.0599999999999994E-002     1.6429056465955272E-012
  -5.9499999999999990E-002    -4.3079713516087914E-013
  -5.8399999999999994E-002    -2.6582627158516781E-012
  -5.7299999999999990E-002    -1.4798687449080195E-012
  -5.6199999999999986E-002     2.3741711721592118E-012
  -5.5099999999999996E-002     3.6569883406223358E-012
  -5.3999999999999992E-002    -3.4669505764514663E-013
  -5.2899999999999989E-002    -4.7691733374988221E-012
  -5.1799999999999985E-002    -2.8353905594941109E-012
  -5.0699999999999995E-002     3.9462530465605994E-012
  -4.9599999999999991E-002     6.1617759505860903E-012
  -4.8499999999999988E-002    -6.3210049174033944E-013
  -4.7399999999999998E-002    -7.9608498612659950E-012
  -4.6299999999999994E-002    -4.8449191707156114E-012
  -4.5199999999999990E-002     5.9953869126216919E-012
  -4.4099999999999986E-002     1.0003503234101707E-011
  -4.2999999999999997E-002     7.0881500538813591E-013
  -4.1899999999999993E-002    -9.9523453714334131E-012
  -4.0799999999999989E-002    -7.5308769637016937E-012
  -3.9699999999999985E-002     4.1722601935856307E-012
  -3.8599999999999995E-002     8.2178474095084830E-012
  -3.7499999999999992E-002    -6.3675643533975257E-013
  -3.6399999999999988E-002    -8.0514752850979754E-012
  -3.5299999999999984E-002    -1.8638222475803046E-012
  -3.4199999999999994E-002     9.1511234354135773E-012
  -3.3099999999999991E-002     8.9053651605719431E-012
  -3.1999999999999987E-002    -8.5754266101328858E-013
  -3.0899999999999997E-002    -4.3756396075900206E-012
  -2.9799999999999993E-002     6.2387914929670774E-013
  -2.8699999999999989E-002    -1.9750785208716426E-012
  -2.7599999999999986E-002    -1.6756698459352570E-011
  -2.6499999999999996E-002    -2.0908524911433801E-011
  -2.5399999999999992E-002     2.9915822423454141E-012
  -2.4299999999999988E-002     3.0755717417285666E-011
  -2.3199999999999985E-002     2.1632666144522084E-011
  -2.2099999999999995E-002    -1.9661277814164713E-011
  -2.0999999999999991E-002    -3.8388278666978692E-011
  -1.9899999999999987E-002    -5.0626070176307270E-012
  -1.8799999999999983E-002     3.2627782420302509E-011
  -1.7699999999999994E-002     9.1365526255771101E-012
  -1.6599999999999990E-002    -5.9813959341070699E-011
  -1.5499999999999986E-002    -8.4284586254756988E-011
  -1.4399999999999996E-002    -1.9512400376009431E-011
  -1.3299999999999992E-002     6.4485861095420205E-011
  -1.2199999999999989E-002     6.8597308389151124E-011
  -1.1099999999999985E-002    -7.3586961177318777E-012
  -9.9999999999999950E-003    -7.1447903149390868E-011
  -8.8999999999999913E-003    -6.8271485686999256E-011
  -7.7999999999999875E-003    -4.3383685532916161E-011
  -6.6999999999999837E-003    -6.1262543649132084E-011
  -5.5999999999999939E-003    -1.0969072178346195E-010
  -4.4999999999999901E-003    -1.2988869702024175E-010
  -3.3999999999999864E-003    -1.1057483401133439E-010
  -2.2999999999999826E-003    -9.1532822987794304E-011
  -1.1999999999999927E-003    -8.1298127951878740E-011
  -9.9999999999988987E-005    -5.0245096278045409E-011
   1.0000000000000148E-003    -2.2869850110907031E-011
   2.1000000000000185E-003    -9.6192560861130261E-011
   3.2000000000000084E-003    -3.0066338307932483E-010
   4.3000000000000121E-003    -4.9897114218211414E-010
   5.4000000000000159E-003    -5.2124954352805730E-010
   6.5000000000000058E-003    -3.9115474748108170E-010
   7.6000000000000234E-003    -3.2843847086461153E-010
   8.7000000000000133E-003    -4.5443598883920799E-010
   9.8000000000000032E-003    -6.2209692952563955E-010
   1.0900000000000021E-002    -6.0696703219065284E-010
   1.2000000000000011E-002    -4.5506778900694655E-010
   1.3100000000000001E-002    -4.4534173571086910E-010
   1.4200000000000018E-002    -7.3806222244954256E-010
   1.5300000000000008E-002    -1.1769450969367767E-009
   1.6400000000000026E-002    -1.4920455981837222E-009
   1.7500000000000016E-002    -1.5567528377502526E-009
   1.8600000000000005E-002    -1.5422699783940175E-009
   1.9700000000000023E-002    -1.5542565012793830E-009
   2.0800000000000013E-002    -1.5885442961049989E-009
   2.1900000000000003E-002    -1.6310635064797907E-009
   2.3000000000000020E-002    -1.7125331153167167E-009
   2.4100000000000010E-002    -1.9057593281246454E-009
   2.5200000000000000E-002    -2.1340365030653174E-009
   2.6300000000000018E-002    -2.3208928112694593E-009
   2.7400000000000008E-002    -2.5344064624732709E-009
   2.8500000000000025E-002    -2.8791067308020502E-009
   2.9600000000000015E-002    -3.3606348814885223E-009
   3.0700000000000005E-002    -3.5097404982309399E-009
   3.1800000000000023E-002    -3.3453195769084232E-009
   3.2900000000000013E-002    -2.9692102110345786E-009
   3.4000000000000002E-002    -2.7378586064941146E-009
   3.5100000000000020E-002    -2.9521596278669904E-009
   3.6200000000000010E-002    -3.1454414628484528E-009
   3.7300000000000028E-002    -3.0418401131271366E-009
   3.8400000000000017E-002    -2.5871780273689637E-009
   3.9500000000000007E-002    -2.4727129233070855E-009
   4.0600000000000025E-002    -2.5948454496216300E-009
   4.1700000000000015E-002    -2.7107258659953004E-009
   4.2800000000000005E-002    -2.4579922541789756E-009
   4.3900000000000022E-002    -1.6067306374267787E-009
   4.5000000000000012E-002    -9.3761132191616525E-010
   4.6100000000000002E-002    -4.2692779866904118E-010
   4.7200000000000020E-002    -2.1585215559394300E-010
   4.8300000000000010E-002     5.3053433868299749E-010
   4.9400000000000027E-002     1.7854155931473770E-009
   5.0500000000000017E-002     3.0446170029563291E-009
   5.1600000000000007E-002     4.4648347241604824E-009
   5.2700000000000025E-002     4.4660977138732960E-009
   5.3800000000000014E-002     4.5267434245488403E-009
   5.4900000000000004E-002     6.0801874646188026E-009
   5.6000000000000022E-002     7.0791248418800024E-009
   5.7100000000000012E-002     8.3728979305419671E-009
   5.8200000000000002E-002     9.5214156559109142E-009
   5.9300000000000019E-002     9.9678159060090366E-009
   6.0400000000000009E-002     1.0124461269356289E-008
   6.1500000000000027E-002     1.1041799474753589E-008
   6.2600000000000017E-002     1.2318010611522823E-008
   6.3700000000000007E-002     1.4705870299280832E-008
   6.4800000000000024E-002     1.6586428230880301E-008
   6.5900000000000014E-002     1.5679528786449737E-008
   6.7000000000000004E-002     1.3636675788575303E-008
   6.8100000000000022E-002     1.2068348986815636E-008
   6.9200000000000012E-002     1.3522846842306535E-008
   7.0300000000000029E-002     1.5597931835031886E-008
   7.1400000000000019E-002     1.5550339682590675E-008
   7.2500000000000009E-002     1.1739080818529146E-008
   7.3600000000000027E-002     7.8430248962035876E-009
   7.4700000000000016E-002     7.9941431252450457E-009
   7.5800000000000006E-002     1.1471000149754218E-008
   7.6900000000000024E-002     1.2953873529397697E-008
   7.8000000000000014E-002     1.0211456569209076E-008
   7.9100000000000004E-002     3.5516909413502162E-009
   8.0200000000000021E-002    -1.7621596404282514E-009
   8.1300000000000011E-002    -3.0521258853610789E-009
   8.2400000000000029E-002    -1.0543361739223656E-009
   8.3500000000000019E-002     3.5460009928378611E-011
   8.4600000000000009E-002    -2.3497395140736899E-009
   8.5700000000000026E-002    -7.7732966730081898E-009
   8.6800000000000016E-002    -1.3542206467320739E-008
   8.7900000000000006E-002    -1.6660521851008525E-008
   8.9000000000000024E-002    -1.4931080372093675E-008
   9.0100000000000013E-002    -1.1204035033074433E-008
   9.1200000000000003E-002    -1.0169562969508661E-008
   9.2300000000000021E-002    -1.5668085495690320E-008
   9.3400000000000011E-002    -2.4251018970744553E-008
   9.4500000000000028E-002    -2.8887823688705794E-008
   9.5600000000000018E-002    -2.4180861757372440E-008
   9.6700000000000008E-002    -1.5330297031823648E-008
   9.7800000000000026E-002    -1.2109914848679182E-008
   9.8900000000000016E-002    -1.6769096333746347E-008
  0.10000000000000001         -2.4711061641369270E-008
  0.10110000000000002         -2.7921453593648948E-008
  0.10220000000000001         -2.2931875065523855E-008
  0.10330000000000003         -1.3742649684900243E-008
  0.10440000000000002         -7.0539964980298464E-009
  0.10550000000000001         -8.3216793456131199E-009
  0.10660000000000003         -1.7067208091248176E-008
  0.10770000000000002         -2.1317816845112247E-008
  0.10880000000000001         -1.5062230573903435E-008
  0.10990000000000003         -2.8820019704056676E-009
  0.11100000000000002          4.4174313096334572E-009
  0.11210000000000001          2.2832551405116419E-009
  0.11320000000000002         -2.6478286230258163E-009
  0.11430000000000001         -4.5017203298414188E-009
  0.11540000000000003         -8.4780155118480138E-010
  0.11650000000000002          4.9332196105922321E-009
  0.11760000000000001          1.1784388576074889E-008
  0.11870000000000003          1.6155714988030923E-008
  0.11980000000000002          1.2922964920392133E-008
  0.12090000000000001          4.9319761608046520E-009
  0.12200000000000003         -8.1175755006768213E-010
  0.12310000000000001          4.2803747213326915E-009
  0.12420000000000003          1.8153565761735990E-008
  0.12530000000000002          2.6030994249026662E-008
  0.12640000000000001          2.0350322316176062E-008
  0.12750000000000003          7.3889290241879735E-009
  0.12860000000000002          6.8576755385407751E-010
  0.12970000000000001          6.5994929521195900E-009
  0.13080000000000003          1.6507822664380001E-008
  0.13190000000000002          1.8656043820897139E-008
  0.13300000000000001          1.2583761588302877E-008
  0.13410000000000000          5.9135798480269841E-009
  0.13520000000000004          3.6428344785122135E-009
  0.13630000000000003          4.2686876255970674E-009
  0.13740000000000002          6.1059122202777871E-009
  0.13850000000000001          9.6302823493488177E-009
  0.13960000000000000          1.2533442728113187E-008
  0.14070000000000005          9.1460607976046049E-009
  0.14180000000000004         -1.6470000918644701E-009
  0.14290000000000003         -1.0104347580863760E-008
  0.14400000000000002         -6.3883289769250950E-009
  0.14510000000000001          5.7602922431954084E-009
  0.14620000000000000          1.2223813961043106E-008
  0.14730000000000004          5.2588728927105421E-009
  0.14840000000000003         -6.4063065963182453E-009
  0.14950000000000002         -9.9621129123761420E-009
  0.15060000000000001         -4.3637538027496703E-009
  0.15170000000000000          1.0129543870363023E-009
  0.15280000000000005          1.0895035984503920E-009
  0.15390000000000004         -4.1379114024131525E-010
  0.15500000000000003         -1.3981213409230975E-010
  0.15610000000000002         -1.5050066748401036E-009
  0.15720000000000001         -7.7825639266393409E-009
  0.15830000000000000         -1.1800892707469757E-008
  0.15940000000000004         -5.6836806372473347E-009
  0.16050000000000003          5.4341691146930771E-009
  0.16160000000000002          8.6217228911777966E-009
  0.16270000000000001         -1.3612999616441357E-009
  0.16380000000000000         -1.2859937115194953E-008
  0.16490000000000005         -1.2121824433108941E-008
  0.16600000000000004         -1.1639840202803953E-009
  0.16710000000000003          6.1488929503639156E-009
  0.16820000000000002          3.3836591306624086E-009
  0.16930000000000001         -1.9855526112166899E-009
  0.17040000000000000         -3.4399880721736054E-009
  0.17150000000000004         -3.7954932530226415E-009
  0.17260000000000003         -6.1482792190759028E-009
  0.17370000000000002         -5.4673896521251208E-009
  0.17480000000000001          3.1293141411481429E-009
  0.17590000000000000          1.2162092666301305E-008
  0.17700000000000005          8.2122380007376705E-009
  0.17810000000000004         -7.3590502580600514E-009
  0.17920000000000003         -1.6277576619927459E-008
  0.18030000000000002         -6.6845933233139476E-009
  0.18140000000000001          1.0170273512244421E-008
  0.18250000000000000          1.4067375708748386E-008
  0.18360000000000004          1.5505839945362254E-009
  0.18470000000000003         -1.0656171056666608E-008
  0.18580000000000002         -9.6088523804382930E-009
  0.18690000000000001         -7.4306505393195721E-010
  0.18800000000000000          3.8904355292856962E-009
  0.18910000000000005          3.2264950711180518E-009
  0.19020000000000004          3.8660421530778422E-009
  0.19130000000000003          4.9393058532132272E-009
  0.19240000000000002          9.0237546601645846E-011
  0.19350000000000001         -8.6491187545334469E-009
  0.19460000000000005         -8.8005149834202712E-009
  0.19570000000000004          3.3288360956618135E-009
  0.19680000000000003          1.3391193043332805E-008
  0.19790000000000002          6.9715446748830345E-009
  0.19900000000000001         -8.5982732045408738E-009
  0.20010000000000000         -1.2680414940291485E-008
  0.20120000000000005         -9.2337450185997483E-011
  0.20230000000000004          1.1683025213926612E-008
  0.20340000000000003          7.2391950212136180E-009
  0.20450000000000002         -5.6673257198269766E-009
  0.20560000000000000         -8.8276124188269023E-009
  0.20670000000000005         -2.6549115683671687E-010
  0.20780000000000004          5.2409516726470429E-009
  0.20890000000000003          6.2863297900506154E-010
