 -0.12000000000000000          0.0000000000000000
 -0.11889999999999999          0.0000000000000000
 -0.11780000000000000          0.0000000000000000
 -0.11670000000000000          0.0000000000000000
 -0.11559999999999999          0.0000000000000000
 -0.11449999999999999          0.0000000000000000
 -0.11340000000000000         -1.0370384665327475E-019
 -0.11230000000000000         -4.6410028092447451E-020
 -0.11119999999999999          8.2720775441687707E-019
 -0.11009999999999999          8.0861961018552686E-019
 -0.10900000000000000         -2.4883387807524313E-018
 -0.10790000000000000         -2.5798818251679091E-018
 -0.10679999999999999          4.4458083472096616E-018
 -0.10569999999999999         -8.2915939401437703E-018
 -0.10460000000000000         -4.1711799997848099E-017
 -0.10349999999999999          3.4793529360973042E-017
 -0.10239999999999999          2.8669150941823920E-016
 -0.10130000000000000          2.5638842927418377E-016
 -0.10020000000000000         -6.8406100240593517E-016
  -9.9099999999999994E-002    -1.7782988741900678E-015
  -9.7999999999999990E-002    -6.4952296928384506E-016
  -9.6899999999999986E-002     3.2767228160142641E-015
  -9.5799999999999996E-002     5.7871616061854012E-015
  -9.4699999999999993E-002     2.2170115424074337E-015
  -9.3599999999999989E-002    -5.0691072128424604E-015
  -9.2499999999999999E-002    -9.9055116051845887E-015
  -9.1399999999999995E-002    -1.3656574142210682E-014
  -9.0299999999999991E-002    -1.9275622154739207E-014
  -8.9200000000000002E-002    -7.1703109283936285E-015
  -8.8099999999999984E-002     5.4147807656938773E-014
  -8.6999999999999994E-002     1.3642898117650903E-013
  -8.5899999999999990E-002     1.1752874877739988E-013
  -8.4799999999999986E-002    -9.3426128107681333E-014
  -8.3699999999999997E-002    -3.7053040215055677E-013
  -8.2599999999999993E-002    -4.1808901176179636E-013
  -8.1499999999999989E-002    -1.0171674429387129E-013
  -8.0399999999999999E-002     3.5628203404018677E-013
  -7.9299999999999995E-002     6.6289020713566904E-013
  -7.8199999999999992E-002     8.2279631241979900E-013
  -7.7100000000000002E-002     9.0005558344916081E-013
  -7.5999999999999984E-002     4.4932590634316760E-013
  -7.4899999999999994E-002    -1.1745851687117170E-012
  -7.3799999999999991E-002    -3.4557825351333449E-012
  -7.2699999999999987E-002    -4.2359791889434728E-012
  -7.1599999999999997E-002    -1.7172249950139773E-012
  -7.0499999999999993E-002     2.9525602882746194E-012
  -6.9399999999999989E-002     6.3249392702469098E-012
  -6.8300000000000000E-002     6.5535138080163868E-012
  -6.7199999999999996E-002     5.3395517174426033E-012
  -6.6099999999999992E-002     4.4603604663906449E-012
  -6.5000000000000002E-002     1.5831619869233204E-012
  -6.3899999999999985E-002    -7.2067659999397460E-012
  -6.2799999999999995E-002    -1.9912882107120389E-011
  -6.1699999999999991E-002    -2.7178301276187256E-011
  -6.0599999999999994E-002    -2.1546923967274978E-011
  -5.9499999999999990E-002    -6.1066277902421806E-012
  -5.8399999999999994E-002     1.0584718865280784E-011
  -5.7299999999999990E-002     2.7202129437853273E-011
  -5.6199999999999986E-002     5.0020956127161398E-011
  -5.5099999999999996E-002     7.6652989511316605E-011
  -5.3999999999999992E-002     8.5816236061742046E-011
  -5.2899999999999989E-002     5.3101630731466898E-011
  -5.1799999999999985E-002    -2.2090437118427175E-011
  -5.0699999999999995E-002    -1.1234482094613085E-010
  -4.9599999999999991E-002    -1.8649741473364401E-010
  -4.8499999999999988E-002    -2.2949658839976905E-010
  -4.7399999999999998E-002    -2.3298951656869349E-010
  -4.6299999999999994E-002    -1.7724285927833705E-010
  -4.5199999999999990E-002    -3.9997088974175199E-011
  -4.4099999999999986E-002     1.7328703749708296E-010
  -4.2999999999999997E-002     4.1959927199464175E-010
  -4.1899999999999993E-002     6.4424438006582818E-010
  -4.0799999999999989E-002     8.0668693946961412E-010
  -3.9699999999999985E-002     8.7561513595346696E-010
  -3.8599999999999995E-002     8.1776274640787960E-010
  -3.7499999999999992E-002     6.2022115221438412E-010
  -3.6399999999999988E-002     3.2892108481341609E-010
  -3.5299999999999984E-002     4.5466956588580132E-011
  -3.4199999999999994E-002    -1.2486442435566403E-010
  -3.3099999999999991E-002    -1.0976153319575133E-010
  -3.1999999999999987E-002     1.4636282463786898E-010
  -3.0899999999999997E-002     6.9391387080841582E-010
  -2.9799999999999993E-002     1.5184300483639390E-009
  -2.8699999999999989E-002     2.4584030366980869E-009
  -2.7599999999999986E-002     3.2189420018369219E-009
  -2.6499999999999996E-002     3.4917841951198625E-009
  -2.5399999999999992E-002     3.0425022501390231E-009
  -2.4299999999999988E-002     1.6652387246907097E-009
  -2.3199999999999985E-002    -8.9585161511251954E-010
  -2.2099999999999995E-002    -4.8898285420762022E-009
  -2.0999999999999991E-002    -1.0389029192481303E-008
  -1.9899999999999987E-002    -1.7221699621927655E-008
  -1.8799999999999983E-002    -2.5130869829581570E-008
  -1.7699999999999994E-002    -3.4010362526259996E-008
  -1.6599999999999990E-002    -4.3996081444674928E-008
  -1.5499999999999986E-002    -5.5407394228268458E-008
  -1.4399999999999996E-002    -6.8721064394594578E-008
  -1.3299999999999992E-002    -8.4656392118631629E-008
  -1.2199999999999989E-002    -1.0424485452631416E-007
  -1.1099999999999985E-002    -1.2877301003300090E-007
  -9.9999999999999950E-003    -1.5969048661190755E-007
  -8.8999999999999913E-003    -1.9860776490077114E-007
  -7.7999999999999875E-003    -2.4732543124628137E-007
  -6.6999999999999837E-003    -3.0777445658713987E-007
  -5.5999999999999939E-003    -3.8194119156287343E-007
  -4.4999999999999901E-003    -4.7199890218507790E-007
  -3.3999999999999864E-003    -5.8066569863512996E-007
  -2.2999999999999826E-003    -7.1144415869639488E-007
  -1.1999999999999927E-003    -8.6852008962523541E-007
  -9.9999999999988987E-005    -1.0565510137894307E-006
   1.0000000000000148E-003    -1.2807654456992168E-006
   2.1000000000000185E-003    -1.5473558505618712E-006
   3.2000000000000084E-003    -1.8637250605024747E-006
   4.3000000000000121E-003    -2.2382803308573784E-006
   5.4000000000000159E-003    -2.6801301373780007E-006
   6.5000000000000058E-003    -3.1991378364182310E-006
   7.6000000000000234E-003    -3.8063813008193392E-006
   8.7000000000000133E-003    -4.5144847717892844E-006
   9.8000000000000032E-003    -5.3374333219835535E-006
   1.0900000000000021E-002    -6.2903318394091912E-006
   1.2000000000000011E-002    -7.3894398155971430E-006
   1.3100000000000001E-002    -8.6525205915677361E-006
   1.4200000000000018E-002    -1.0098960046889260E-005
   1.5300000000000008E-002    -1.1749654731829651E-005
   1.6400000000000026E-002    -1.3626910913444590E-005
   1.7500000000000016E-002    -1.5754358173580840E-005
   1.8600000000000005E-002    -1.8156719306716695E-005
   1.9700000000000023E-002    -2.0859326468780637E-005
   2.0800000000000013E-002    -2.3887780116638169E-005
   2.1900000000000003E-002    -2.7267611585557461E-005
   2.3000000000000020E-002    -3.1024537747725844E-005
   2.4100000000000010E-002    -3.5183711588615552E-005
   2.5200000000000000E-002    -3.9768819988239557E-005
   2.6300000000000018E-002    -4.4801239710068330E-005
   2.7400000000000008E-002    -5.0299982831347734E-005
   2.8500000000000025E-002    -5.6281427532667294E-005
   2.9600000000000015E-002    -6.2758888816460967E-005
   3.0700000000000005E-002    -6.9740905018988997E-005
   3.1800000000000023E-002    -7.7229866292327642E-005
   3.2900000000000013E-002    -8.5220344772096723E-005
   3.4000000000000002E-002    -9.3699978606309742E-005
   3.5100000000000020E-002    -1.0264713637297973E-004
   3.6200000000000010E-002    -1.1203012400073931E-004
   3.7300000000000028E-002    -1.2180605699541047E-004
   3.8400000000000017E-002    -1.3192115875426680E-004
   3.9500000000000007E-002    -1.4230978558771312E-004
   4.0600000000000025E-002    -1.5289272414520383E-004
   4.1700000000000015E-002    -1.6357621643692255E-004
   4.2800000000000005E-002    -1.7425398982595652E-004
   4.3900000000000022E-002    -1.8480577273294330E-004
   4.5000000000000012E-002    -1.9509755657054484E-004
   4.6100000000000002E-002    -2.0498083904385567E-004
   4.7200000000000020E-002    -2.1429480693768710E-004
   4.8300000000000010E-002    -2.2286627790890634E-004
   4.9400000000000027E-002    -2.3051118478178978E-004
   5.0500000000000017E-002    -2.3703573970124125E-004
   5.1600000000000007E-002    -2.4224098888225853E-004
   5.2700000000000025E-002    -2.4592565023340285E-004
   5.3800000000000014E-002    -2.4788492009975016E-004
   5.4900000000000004E-002    -2.4791620671749115E-004
   5.6000000000000022E-002    -2.4582000332884490E-004
   5.7100000000000012E-002    -2.4140774621628225E-004
   5.8200000000000002E-002    -2.3450391017831862E-004
   5.9300000000000019E-002    -2.2494973381981254E-004
   6.0400000000000009E-002    -2.1260966605041176E-004
   6.1500000000000027E-002    -1.9737303955480456E-004
   6.2600000000000017E-002    -1.7915485659614205E-004
   6.3700000000000007E-002    -1.5790111501701176E-004
   6.4800000000000024E-002    -1.3359906733967364E-004
   6.5900000000000014E-002    -1.0628029849613085E-004
   6.7000000000000004E-002    -7.6014410296920687E-005
   6.8100000000000022E-002    -4.2915853555314243E-005
   6.9200000000000012E-002    -7.1416620812669862E-006
   7.0300000000000029E-002     3.1100575142772868E-005
   7.1400000000000019E-002     7.1553775342181325E-005
   7.2500000000000009E-002     1.1391279258532450E-004
   7.3600000000000027E-002     1.5783170238137245E-004
   7.4700000000000016E-002     2.0292427507229149E-004
   7.5800000000000006E-002     2.4876417592167854E-004
   7.6900000000000024E-002     2.9489229200407863E-004
   7.8000000000000014E-002     3.4082311321981251E-004
   7.9100000000000004E-002     3.8604807923547924E-004
   8.0200000000000021E-002     4.3003950850106776E-004
   8.1300000000000011E-002     4.7226058086380363E-004
   8.2400000000000029E-002     5.1218277076259255E-004
   8.3500000000000019E-002     5.4929254110902548E-004
   8.4600000000000009E-002     5.8308866573497653E-004
   8.5700000000000026E-002     6.1308592557907104E-004
   8.6800000000000016E-002     6.3883012626320124E-004
   8.7900000000000006E-002     6.5992079908028245E-004
   8.9000000000000024E-002     6.7601661430671811E-004
   9.0100000000000013E-002     6.8683025892823935E-004
   9.1200000000000003E-002     6.9212866947054863E-004
   9.2300000000000021E-002     6.9173966767266393E-004
   9.3400000000000011E-002     6.8556930636987090E-004
   9.4500000000000028E-002     6.7360117100179195E-004
   9.5600000000000018E-002     6.5589812584221363E-004
   9.6700000000000008E-002     6.3259789021685719E-004
   9.7800000000000026E-002     6.0391164151951671E-004
   9.8900000000000016E-002     5.7012017350643873E-004
  0.10000000000000001          5.3156330250203609E-004
  0.10110000000000002          4.8864871496334672E-004
  0.10220000000000001          4.4184667058289051E-004
  0.10330000000000003          3.9168310468085110E-004
  0.10440000000000002          3.3872609492391348E-004
  0.10550000000000001          2.8356033726595342E-004
  0.10660000000000003          2.2678938694298267E-004
  0.10770000000000002          1.6902806237339973E-004
  0.10880000000000001          1.1091422493336722E-004
  0.10990000000000003          5.3082443628227338E-005
  0.11100000000000002         -3.8579196370847058E-006
  0.11210000000000001         -5.9326812333893031E-005
  0.11320000000000002         -1.1278408783255145E-004
  0.11430000000000001         -1.6372711979784071E-004
  0.11540000000000003         -2.1169375395402312E-004
  0.11650000000000002         -2.5626807473599911E-004
  0.11760000000000001         -2.9709233785979450E-004
  0.11870000000000003         -3.3387242001481354E-004
  0.11980000000000002         -3.6638803430832922E-004
  0.12090000000000001         -3.9448839379474521E-004
  0.12200000000000003         -4.1807850357145071E-004
  0.12310000000000001         -4.3711176840588450E-004
  0.12420000000000003         -4.5159921864978969E-004
  0.12530000000000002         -4.6161879436112940E-004
  0.12640000000000001         -4.6731554903090000E-004
  0.12750000000000003         -4.6887830831110477E-004
  0.12860000000000002         -4.6652712626382709E-004
  0.12970000000000001         -4.6051279059611261E-004
  0.13080000000000003         -4.5112328371033072E-004
  0.13190000000000002         -4.3867900967597961E-004
  0.13300000000000001         -4.2351882439106703E-004
  0.13410000000000000         -4.0598813211545348E-004
  0.13520000000000004         -3.8643614971078932E-004
  0.13630000000000003         -3.6521433503367007E-004
  0.13740000000000002         -3.4266922739334404E-004
  0.13850000000000001         -3.1913595739752054E-004
  0.13960000000000000         -2.9493690817616880E-004
  0.14070000000000005         -2.7038116240873933E-004
  0.14180000000000004         -2.4575681891292334E-004
  0.14290000000000003         -2.2132143203634769E-004
  0.14400000000000002         -1.9730343774426728E-004
  0.14510000000000001         -1.7391197616234422E-004
  0.14620000000000000         -1.5133766282815486E-004
  0.14730000000000004         -1.2974072888027877E-004
  0.14840000000000003         -1.0924370872089639E-004
  0.14950000000000002         -8.9939298050012439E-005
  0.15060000000000001         -7.1903603384271264E-005
  0.15170000000000000         -5.5197993788169697E-005
  0.15280000000000005         -3.9857353840488940E-005
  0.15390000000000004         -2.5886887669912539E-005
  0.15500000000000003         -1.3273092008603271E-005
  0.15610000000000002         -1.9926317236240720E-006
  0.15720000000000001          7.9875462688505650E-006
  0.15830000000000000          1.6718109691282734E-005
  0.15940000000000004          2.4262657461804338E-005
  0.16050000000000003          3.0687529942952096E-005
  0.16160000000000002          3.6059387639397755E-005
  0.16270000000000001          4.0452625398756936E-005
  0.16380000000000000          4.3953554268227890E-005
  0.16490000000000005          4.6647379349451512E-005
  0.16600000000000004          4.8608490033075213E-005
  0.16710000000000003          4.9906771891983226E-005
  0.16820000000000002          5.0619819376152009E-005
  0.16930000000000001          5.0831109547289088E-005
  0.17040000000000000          5.0611932238098234E-005
  0.17150000000000004          5.0016518798656762E-005
  0.17260000000000003          4.9097041483037174E-005
  0.17370000000000002          4.7916437324602157E-005
  0.17480000000000001          4.6537446905858815E-005
  0.17590000000000000          4.5003376726526767E-005
  0.17700000000000005          4.3339099647710100E-005
  0.17810000000000004          4.1573472117306665E-005
  0.17920000000000003          3.9750353607814759E-005
  0.18030000000000002          3.7910689570708200E-005
  0.18140000000000001          3.6073968658456579E-005
  0.18250000000000000          3.4245436836499721E-005
  0.18360000000000004          3.2437994377687573E-005
  0.18470000000000003          3.0674822482978925E-005
  0.18580000000000002          2.8971549909329042E-005
  0.18690000000000001          2.7328793294145726E-005
  0.18800000000000000          2.5746539904503152E-005
  0.18910000000000005          2.4237006073235534E-005
  0.19020000000000004          2.2812366296420805E-005
  0.19130000000000003          2.1466274120029993E-005
  0.19240000000000002          2.0181965737720020E-005
  0.19350000000000001          1.8958518921863288E-005
  0.19460000000000005          1.7814858438214287E-005
  0.19570000000000004          1.6762529412517324E-005
  0.19680000000000003          1.5784644347149879E-005
  0.19790000000000002          1.4855267181701493E-005
  0.19900000000000001          1.3971041880722623E-005
  0.20010000000000000          1.3150433005648665E-005
  0.20120000000000005          1.2401888852764387E-005
  0.20230000000000004          1.1708468264259864E-005
  0.20340000000000003          1.1050505236198660E-005
  0.20450000000000002          1.0430638212710619E-005
  0.20560000000000000          9.8625978353084065E-006
  0.20670000000000005          9.3436101451516151E-006
  0.20780000000000004          8.8538663476356305E-006
  0.20890000000000003          8.3843096945201978E-006
