 -0.12000000000000000          0.0000000000000000
 -0.11889999999999999          0.0000000000000000
 -0.11780000000000000          0.0000000000000000
 -0.11670000000000000          0.0000000000000000
 -0.11559999999999999          0.0000000000000000
 -0.11449999999999999          0.0000000000000000
 -0.11340000000000000          0.0000000000000000
 -0.11230000000000000          4.5173342993479524E-021
 -0.11119999999999999         -2.1335524469542795E-021
 -0.11009999999999999         -5.0255102852892041E-020
 -0.10900000000000000          6.3249476965943620E-021
 -0.10790000000000000          3.2296858596705518E-019
 -0.10679999999999999          1.0674420715585023E-019
 -0.10569999999999999         -1.4623040523392323E-018
 -0.10460000000000000         -1.2596238125556970E-018
 -0.10349999999999999          4.7662486039356601E-018
 -0.10239999999999999          7.2483595418561796E-018
 -0.10130000000000000         -1.0592428246823294E-017
 -0.10020000000000000         -2.7792524119230432E-017
  -9.9099999999999994E-002     1.2570547963682604E-017
  -9.7999999999999990E-002     7.9820480656754014E-017
  -9.6899999999999986E-002     1.2145650098432490E-017
  -9.5799999999999996E-002    -1.8955676211221103E-016
  -9.4699999999999993E-002    -1.2844002624536304E-016
  -9.3599999999999989E-002     3.9215232589798112E-016
  -9.2499999999999999E-002     5.3948968366636721E-016
  -9.1399999999999995E-002    -6.0574232439955284E-016
  -9.0299999999999991E-002    -1.6980229148008175E-015
  -8.9200000000000002E-002     1.2997053537171276E-016
  -8.8099999999999984E-002     3.8443699924297324E-015
  -8.6999999999999994E-002     2.7951545158305668E-015
  -8.5899999999999990E-002    -5.4412761256905813E-015
  -8.4799999999999986E-002    -9.5917231676765496E-015
  -8.3699999999999997E-002     2.5227798484543955E-015
  -8.2599999999999993E-002     1.8417171203355918E-014
  -8.1499999999999989E-002     8.2132575141501650E-015
  -8.0399999999999999E-002    -2.5318148524412255E-014
  -7.9299999999999995E-002    -2.8646840623388833E-014
  -7.8199999999999992E-002     2.6885466102759617E-014
  -7.7100000000000002E-002     6.7104477627800280E-014
  -7.5999999999999984E-002    -4.8577496226129366E-015
  -7.4899999999999994E-002    -1.2584726284074060E-013
  -7.3799999999999991E-002    -8.8558846399796470E-014
  -7.2699999999999987E-002     1.4607457225149917E-013
  -7.1599999999999997E-002     2.6607218490092011E-013
  -7.0499999999999993E-002    -1.4646134782400622E-014
  -6.9399999999999989E-002    -4.1285120396146457E-013
  -6.8300000000000000E-002    -2.8991435988001690E-013
  -6.7199999999999996E-002     3.7689401838174319E-013
  -6.6099999999999992E-002     6.6022897869319475E-013
  -6.5000000000000002E-002    -1.0487619073965698E-013
  -6.3899999999999985E-002    -1.0222480414240342E-012
  -6.2799999999999995E-002    -5.2546904544606421E-013
  -6.1699999999999991E-002     1.1612612997938254E-012
  -6.0599999999999994E-002     1.6429051044944409E-012
  -5.9499999999999990E-002    -4.3080258327679588E-013
  -5.8399999999999994E-002    -2.6582670526603680E-012
  -5.7299999999999990E-002    -1.4798687449080195E-012
  -5.6199999999999986E-002     2.3741822310213712E-012
  -5.5099999999999996E-002     3.6570009173675366E-012
  -5.3999999999999992E-002    -3.4669421738846296E-013
  -5.2899999999999989E-002    -4.7691954552231408E-012
  -5.1799999999999985E-002    -2.8354089909310431E-012
  -5.0699999999999995E-002     3.9462695264336212E-012
  -4.9599999999999991E-002     6.1618128134599548E-012
  -4.8499999999999988E-002    -6.3210217225370680E-013
  -4.7399999999999998E-002    -7.9608541980746850E-012
  -4.6299999999999994E-002    -4.8449135328643145E-012
  -4.5199999999999990E-002     5.9953296667469846E-012
  -4.4099999999999986E-002     1.0003384405543603E-011
  -4.2999999999999997E-002     7.0881972166758622E-013
  -4.1899999999999993E-002    -9.9522803193030640E-012
  -4.0799999999999989E-002    -7.5308067074009166E-012
  -3.9699999999999985E-002     4.1722502189256438E-012
  -3.8599999999999995E-002     8.2177467955468764E-012
  -3.7499999999999992E-002    -6.3660573123777708E-013
  -3.6399999999999988E-002    -8.0510832375924046E-012
  -3.5299999999999984E-002    -1.8632747254831994E-012
  -3.4199999999999994E-002     9.1512656827386074E-012
  -3.3099999999999991E-002     8.9045281564947842E-012
  -3.1999999999999987E-002    -8.5934216556907139E-013
  -3.0899999999999997E-002    -4.3763079098091406E-012
  -2.9799999999999993E-002     6.2683631072216195E-013
  -2.8699999999999989E-002    -1.9732045858367186E-012
  -2.7599999999999986E-002    -1.6758679513562136E-011
  -2.6499999999999996E-002    -2.0908620321224980E-011
  -2.5399999999999992E-002     2.9941624266754951E-012
  -2.4299999999999988E-002     3.0755689661710051E-011
  -2.3199999999999985E-002     2.1625236323874475E-011
  -2.2099999999999995E-002    -1.9675256215934134E-011
  -2.0999999999999991E-002    -3.8396810037033546E-011
  -1.9899999999999987E-002    -5.0508408219740453E-012
  -1.8799999999999983E-002     3.2660003174145302E-011
  -1.7699999999999994E-002     9.1870105273228475E-012
  -1.6599999999999990E-002    -5.9760335568981304E-011
  -1.5499999999999986E-002    -8.4337627159758455E-011
  -1.4399999999999996E-002    -1.9615371826819938E-011
  -1.3299999999999992E-002     6.4482370831786540E-011
  -1.2199999999999989E-002     6.8589217638859168E-011
  -1.1099999999999985E-002    -7.3892099036743097E-012
  -9.9999999999999950E-003    -7.1539892065874966E-011
  -8.8999999999999913E-003    -6.8164467126319295E-011
  -7.7999999999999875E-003    -4.2951010803538026E-011
  -6.6999999999999837E-003    -6.0893012854279505E-011
  -5.5999999999999939E-003    -1.0959342461314137E-010
  -4.4999999999999901E-003    -1.3067709414560369E-010
  -3.3999999999999864E-003    -1.1202815758393214E-010
  -2.2999999999999826E-003    -9.1873522678476149E-011
  -1.1999999999999927E-003    -8.0149428760556418E-011
  -9.9999999999988987E-005    -4.8641077277089551E-011
   1.0000000000000148E-003    -2.2792741652399862E-011
   2.1000000000000185E-003    -9.7697551437736507E-011
   3.2000000000000084E-003    -3.0175870135984439E-010
   4.3000000000000121E-003    -4.9805981561235058E-010
   5.4000000000000159E-003    -5.1984994087206360E-010
   6.5000000000000058E-003    -3.8958961057211638E-010
   7.6000000000000234E-003    -3.2920824399873538E-010
   8.7000000000000133E-003    -4.5478121268871519E-010
   9.8000000000000032E-003    -6.1789678929002889E-010
   1.0900000000000021E-002    -6.1245780669239025E-010
   1.2000000000000011E-002    -4.6531348218969981E-010
   1.3100000000000001E-002    -4.4420978007053691E-010
   1.4200000000000018E-002    -7.3699812919159058E-010
   1.5300000000000008E-002    -1.1758528595251505E-009
   1.6400000000000026E-002    -1.4816078364177088E-009
   1.7500000000000016E-002    -1.5407903841690995E-009
   1.8600000000000005E-002    -1.5015712007127036E-009
   1.9700000000000023E-002    -1.5613093040656167E-009
   2.0800000000000013E-002    -1.6537299307728404E-009
   2.1900000000000003E-002    -1.6926043899800902E-009
   2.3000000000000020E-002    -1.7256199802417882E-009
   2.4100000000000010E-002    -1.8677430713154308E-009
   2.5200000000000000E-002    -2.1389714444097763E-009
   2.6300000000000018E-002    -2.2719397474446623E-009
   2.7400000000000008E-002    -2.4627662131848638E-009
   2.8500000000000025E-002    -2.8634377091663055E-009
   2.9600000000000015E-002    -3.3402562937823177E-009
   3.0700000000000005E-002    -3.5273550746950377E-009
   3.1800000000000023E-002    -3.3000366883584320E-009
   3.2900000000000013E-002    -2.9511906252110975E-009
   3.4000000000000002E-002    -2.9118429889507524E-009
   3.5100000000000020E-002    -3.1889957341491026E-009
   3.6200000000000010E-002    -3.2031328700554695E-009
   3.7300000000000028E-002    -2.8534599127993943E-009
   3.8400000000000017E-002    -2.3506172563969585E-009
   3.9500000000000007E-002    -2.3091495382487892E-009
   4.0600000000000025E-002    -2.6888518078749257E-009
   4.1700000000000015E-002    -2.9353288688582779E-009
   4.2800000000000005E-002    -2.7333144636543238E-009
   4.3900000000000022E-002    -1.7893156956105827E-009
   4.5000000000000012E-002    -7.4017963980210766E-010
   4.6100000000000002E-002    -1.3276761634539724E-010
   4.7200000000000020E-002    -9.0866585089610652E-011
   4.8300000000000010E-002     7.9717243917087899E-010
   4.9400000000000027E-002     1.9745307611174212E-009
   5.0500000000000017E-002     3.3489311324075288E-009
   5.1600000000000007E-002     4.1467593803190539E-009
   5.2700000000000025E-002     4.2041690129224207E-009
   5.3800000000000014E-002     4.4513912555999013E-009
   5.4900000000000004E-002     5.6382289947976005E-009
   5.6000000000000022E-002     6.7690328897640484E-009
   5.7100000000000012E-002     8.3301454623097015E-009
   5.8200000000000002E-002     9.9112016371805112E-009
   5.9300000000000019E-002     1.0084450607905637E-008
   6.0400000000000009E-002     1.0284584739395086E-008
   6.1500000000000027E-002     1.0938925321113402E-008
   6.2600000000000017E-002     1.3236731710719596E-008
   6.3700000000000007E-002     1.5082630255847107E-008
   6.4800000000000024E-002     1.5412659593039280E-008
   6.5900000000000014E-002     1.4731081243724020E-008
   6.7000000000000004E-002     1.3258445008546005E-008
   6.8100000000000022E-002     1.3071840498923848E-008
   6.9200000000000012E-002     1.4811113224766359E-008
   7.0300000000000029E-002     1.6137020608653074E-008
   7.1400000000000019E-002     1.5055475088843195E-008
   7.2500000000000009E-002     1.0926841653713382E-008
   7.3600000000000027E-002     8.2791711264462720E-009
   7.4700000000000016E-002     9.1946983360458034E-009
   7.5800000000000006E-002     1.1363784579998537E-008
   7.6900000000000024E-002     1.2347450173422203E-008
   7.8000000000000014E-002     9.4854577525893546E-009
   7.9100000000000004E-002     3.4313811791975013E-009
   8.0200000000000021E-002    -1.5013672527430799E-009
   8.1300000000000011E-002    -2.8141462493636027E-009
   8.2400000000000029E-002    -1.2923497827443953E-009
   8.3500000000000019E-002     1.2243596414496238E-010
   8.4600000000000009E-002    -1.4757083333094556E-009
   8.5700000000000026E-002    -6.7646941381838133E-009
   8.6800000000000016E-002    -1.3419575672912742E-008
   8.7900000000000006E-002    -1.7324776280247534E-008
   8.9000000000000024E-002    -1.5759987093133532E-008
   9.0100000000000013E-002    -1.0981970888224168E-008
   9.1200000000000003E-002    -9.7563788159504838E-009
   9.2300000000000021E-002    -1.5866252311980134E-008
   9.3400000000000011E-002    -2.6176170564440326E-008
   9.4500000000000028E-002    -3.0446738463751899E-008
   9.5600000000000018E-002    -2.3424469475230580E-008
   9.6700000000000008E-002    -1.3212424043729243E-008
   9.7800000000000026E-002    -1.0215156720505547E-008
   9.8900000000000016E-002    -1.7018264131252181E-008
  0.10000000000000001         -2.6932475805097056E-008
  0.10110000000000002         -2.9451006966496607E-008
  0.10220000000000001         -2.1750960144117926E-008
  0.10330000000000003         -1.1647355968591455E-008
  0.10440000000000002         -6.8004180064917819E-009
  0.10550000000000001         -1.0815511153339230E-008
  0.10660000000000003         -1.7817788133811518E-008
  0.10770000000000002         -2.1872804012446068E-008
  0.10880000000000001         -1.5215874782370520E-008
  0.10990000000000003         -2.5081814403193903E-009
  0.11100000000000002          6.0578084770668283E-009
  0.11210000000000001          6.0741052188006961E-009
  0.11320000000000002         -9.1179180872202892E-010
  0.11430000000000001         -8.5142168870788737E-009
  0.11540000000000003         -7.3310171266882662E-009
  0.11650000000000002          3.0841547093984900E-009
  0.11760000000000001          1.7011201336458726E-008
  0.11870000000000003          2.1385469395340806E-008
  0.11980000000000002          1.1524678100727215E-008
  0.12090000000000001         -7.8529238667357504E-010
  0.12200000000000003         -3.1418589951925924E-009
  0.12310000000000001          8.3696249930653721E-009
  0.12420000000000003          2.3197006981945378E-008
  0.12530000000000002          2.6800412555871844E-008
  0.12640000000000001          1.7262358653624688E-008
  0.12750000000000003          4.2937511324225852E-009
  0.12860000000000002         -3.2948931777410095E-011
  0.12970000000000001          7.0508705540817118E-009
  0.13080000000000003          1.6593663332287178E-008
  0.13190000000000002          2.0969880054622081E-008
  0.13300000000000001          1.7557065135065386E-008
  0.13410000000000000          8.5879445776981811E-009
  0.13520000000000004         -8.4922824328259594E-010
  0.13630000000000003         -3.8663761081636494E-009
  0.13740000000000002          3.2851548148471466E-009
  0.13850000000000001          1.5117946006171223E-008
  0.13960000000000000          1.9189348776649240E-008
  0.14070000000000005          9.2320400213452558E-009
  0.14180000000000004         -6.0356883935241967E-009
  0.14290000000000003         -1.1285149703610386E-008
  0.14400000000000002         -2.5160933336820790E-009
  0.14510000000000001          8.9580005635525595E-009
  0.14620000000000000          9.9047587909240065E-009
  0.14730000000000004          1.1912408837133626E-009
  0.14840000000000003         -6.7466152664508172E-009
  0.14950000000000002         -7.8714803564139402E-009
  0.15060000000000001         -5.5997317893741183E-009
  0.15170000000000000         -3.2655933512870661E-009
  0.15280000000000005          1.9254925431866354E-010
  0.15390000000000004          5.0335264845102756E-009
  0.15500000000000003          4.8244692685273094E-009
  0.15610000000000002         -3.9688083930400353E-009
  0.15720000000000001         -1.4093020972438808E-008
  0.15830000000000000         -1.3429062306613559E-008
  0.15940000000000004         -1.2000096472064570E-009
  0.16050000000000003          9.3784606747249200E-009
  0.16160000000000002          6.1166454123906533E-009
  0.16270000000000001         -6.1557181574301012E-009
  0.16380000000000000         -1.2179660835442974E-008
  0.16490000000000005         -7.0409371666357856E-009
  0.16600000000000004          6.2567911962574385E-010
  0.16710000000000003          2.8340580993102549E-009
  0.16820000000000002          1.8004392421389070E-009
  0.16930000000000001          2.0254553589893476E-009
  0.17040000000000000          5.3749493744703614E-010
  0.17150000000000004         -6.8700445332581239E-009
  0.17260000000000003         -1.3448341995569990E-008
  0.17370000000000002         -7.3815171752755759E-009
  0.17480000000000001          9.1354550590949657E-009
  0.17590000000000000          1.7515322525696320E-008
  0.17700000000000005          5.5026596612606227E-009
  0.17810000000000004         -1.3846920943194618E-008
  0.17920000000000003         -1.7780537930889295E-008
  0.18030000000000002         -2.4519766217423467E-009
  0.18140000000000001          1.2323635445454784E-008
  0.18250000000000000          1.0721293186577441E-008
  0.18360000000000004         -8.5666385096772046E-010
  0.18470000000000003         -6.2974727654818707E-009
  0.18580000000000002         -2.9844595683670150E-009
  0.18690000000000001         -3.5238439943796607E-010
  0.18800000000000000         -1.5479855175470902E-009
  0.18910000000000005          7.6960210426690878E-010
  0.19020000000000004          7.6571629037403000E-009
  0.19130000000000003          7.8800450609151085E-009
  0.19240000000000002         -4.6798294128791440E-009
  0.19350000000000001         -1.6240015554558340E-008
  0.19460000000000005         -9.0708880406964454E-009
  0.19570000000000004          1.1229551510893998E-008
  0.19680000000000003          1.9637605319644535E-008
  0.19790000000000002          4.9390345147060088E-009
  0.19900000000000001         -1.4181190444162439E-008
  0.20010000000000000         -1.4416300153641259E-008
  0.20120000000000005          1.3694236855599229E-009
  0.20230000000000004          1.0685457851877800E-008
  0.20340000000000003          3.8601766227941425E-009
  0.20450000000000002         -4.9344537345064055E-009
  0.20560000000000000         -2.1306936215381711E-009
  0.20670000000000005          4.7753525578286826E-009
  0.20780000000000004          1.9514239113505027E-009
  0.20890000000000003         -6.8787411322546177E-009
