 -0.12000000000000000          0.0000000000000000
 -0.11889999999999999          0.0000000000000000
 -0.11780000000000000          0.0000000000000000
 -0.11670000000000000          0.0000000000000000
 -0.11559999999999999          0.0000000000000000
 -0.11449999999999999          0.0000000000000000
 -0.11340000000000000          0.0000000000000000
 -0.11230000000000000          4.5173359149350863E-021
 -0.11119999999999999          2.6953102687640040E-021
 -0.11009999999999999         -3.9686141849293848E-020
 -0.10900000000000000         -4.3154348599015303E-020
 -0.10790000000000000          1.2673965702779164E-019
 -0.10679999999999999          1.1275584565515592E-019
 -0.10569999999999999         -2.9436511982467190E-019
 -0.10460000000000000          7.7179890598864766E-019
 -0.10349999999999999          3.4095638318932972E-018
 -0.10239999999999999         -2.6647621365444255E-018
 -0.10130000000000000         -2.4008318400588140E-017
 -0.10020000000000000         -2.3006930242308994E-017
  -9.9099999999999994E-002     5.9794477731514616E-017
  -9.7999999999999990E-002     1.6465785805075644E-016
  -9.6899999999999986E-002     6.5371924991388167E-017
  -9.5799999999999996E-002    -3.2096632705197004E-016
  -9.4699999999999993E-002    -5.9947475704590384E-016
  -9.3599999999999989E-002    -2.6554662890923607E-016
  -9.2499999999999999E-002     5.2617866677938429E-016
  -9.1399999999999995E-002     1.2265286950961709E-015
  -9.0299999999999991E-002     1.9775508812956699E-015
  -8.9200000000000002E-002     2.6896692677442526E-015
  -8.8099999999999984E-002     1.9473856557637801E-016
  -8.6999999999999994E-002    -9.5672523858303729E-015
  -8.5899999999999990E-002    -2.1019364837538378E-014
  -8.4799999999999986E-002    -1.4576932190609945E-014
  -8.3699999999999997E-002     2.3028613385786198E-014
  -8.2599999999999993E-002     6.8656275868488048E-014
  -8.1499999999999989E-002     7.0093948277994561E-014
  -8.0399999999999999E-002     1.8027275161471186E-015
  -7.9299999999999995E-002    -9.8447556259439323E-014
  -7.8199999999999992E-002    -1.7167488947349846E-013
  -7.7100000000000002E-002    -1.9459228065704659E-013
  -7.5999999999999984E-002    -1.4046687532749680E-013
  -7.4899999999999994E-002     9.1882732433830328E-014
  -7.3799999999999991E-002     5.6259554306881121E-013
  -7.2699999999999987E-002     1.0080229836603727E-012
  -7.1599999999999997E-002     8.3523953812308926E-013
  -7.0499999999999993E-002    -2.9889700198411362E-013
  -6.9399999999999989E-002    -1.8545861461133351E-012
  -6.8300000000000000E-002    -2.6645745072190197E-012
  -6.7199999999999996E-002    -2.0365252453163896E-012
  -6.6099999999999992E-002    -3.4666480840453429E-013
  -6.5000000000000002E-002     1.7393217942307526E-012
  -6.3899999999999985E-002     4.1749247288447311E-012
  -6.2799999999999995E-002     6.7709891513056952E-012
  -6.1699999999999991E-002     7.5979630573264068E-012
  -6.0599999999999994E-002     3.6871360999113367E-012
  -5.9499999999999990E-002    -5.3345860714926197E-012
  -5.8399999999999994E-002    -1.5047055615391436E-011
  -5.7299999999999990E-002    -1.9570281159508873E-011
  -5.6199999999999986E-002    -1.7235577548513348E-011
  -5.5099999999999996E-002    -1.0806336728230725E-011
  -5.3999999999999992E-002    -1.1948085749946546E-012
  -5.2899999999999989E-002     1.5830881744394176E-011
  -5.1799999999999985E-002     4.2452260456959934E-011
  -5.0699999999999995E-002     6.8811470410601316E-011
  -4.9599999999999991E-002     7.5453948644721436E-011
  -4.8499999999999988E-002     4.9081034375619836E-011
  -4.7399999999999998E-002    -6.5035823948456084E-012
  -4.6299999999999994E-002    -7.7459059999451796E-011
  -4.5199999999999990E-002    -1.5275572473605337E-010
  -4.4099999999999986E-002    -2.2125684617790853E-010
  -4.2999999999999997E-002    -2.5614388388106590E-010
  -4.1899999999999993E-002    -2.1505949798772406E-010
  -4.0799999999999989E-002    -6.9064476360125582E-011
  -3.9699999999999985E-002     1.6694967630570545E-010
  -3.8599999999999995E-002     4.3755249423682585E-010
  -3.7499999999999992E-002     6.7744648779566319E-010
  -3.6399999999999988E-002     8.2886347785304793E-010
  -3.5299999999999984E-002     8.2946899349067849E-010
  -3.4199999999999994E-002     6.0446780913991915E-010
  -3.3099999999999991E-002     9.7094290940624717E-011
  -3.1999999999999987E-002    -6.8152078425143259E-010
  -3.0899999999999997E-002    -1.6310326422797061E-009
  -2.9799999999999993E-002    -2.5782562751430760E-009
  -2.8699999999999989E-002    -3.2951066319952815E-009
  -2.7599999999999986E-002    -3.5026812561511633E-009
  -2.6499999999999996E-002    -2.8971869348026758E-009
  -2.5399999999999992E-002    -1.2209991906431128E-009
  -2.4299999999999988E-002     1.6695239635211578E-009
  -2.3199999999999985E-002     5.8055014129365645E-009
  -2.2099999999999995E-002     1.1159306367858335E-008
  -2.0999999999999991E-002     1.7666989649001152E-008
  -1.9899999999999987E-002     2.5200625586307979E-008
  -1.8799999999999983E-002     3.3585827452498052E-008
  -1.7699999999999994E-002     4.2738868444303080E-008
  -1.6599999999999990E-002     5.2840015030142240E-008
  -1.5499999999999986E-002     6.4385233145003440E-008
  -1.4399999999999996E-002     7.8097251332565065E-008
  -1.3299999999999992E-002     9.4849177401101770E-008
  -1.2199999999999989E-002     1.1570792679549413E-007
  -1.1099999999999985E-002     1.4199834197370365E-007
  -9.9999999999999950E-003     1.7523099415939214E-007
  -8.8999999999999913E-003     2.1693168150704878E-007
  -7.7999999999999875E-003     2.6858717205868743E-007
  -6.6999999999999837E-003     3.3180518244080304E-007
  -5.5999999999999939E-003     4.0853214500202739E-007
  -4.4999999999999901E-003     5.0113544602936599E-007
  -3.3999999999999864E-003     6.1238239368321956E-007
  -2.2999999999999826E-003     7.4549961937009357E-007
  -1.1999999999999927E-003     9.0435349875406246E-007
  -9.9999999999988987E-005     1.0935951877399930E-006
   1.0000000000000148E-003     1.3186765954742441E-006
   2.1000000000000185E-003     1.5858488495723577E-006
   3.2000000000000084E-003     1.9022552351088962E-006
   4.3000000000000121E-003     2.2760316369385691E-006
   5.4000000000000159E-003     2.7162570859218249E-006
   6.5000000000000058E-003     3.2328600809705677E-006
   7.6000000000000234E-003     3.8367288652807474E-006
   8.7000000000000133E-003     4.5400724957289640E-006
   9.8000000000000032E-003     5.3566209317068569E-006
   1.0900000000000021E-002     6.3015017985890154E-006
   1.2000000000000011E-002     7.3909509410441387E-006
   1.3100000000000001E-002     8.6424170149257407E-006
   1.4200000000000018E-002     1.0074974852614105E-005
   1.5300000000000008E-002     1.1709561476891395E-005
   1.6400000000000026E-002     1.3568740541813895E-005
   1.7500000000000016E-002     1.5676216207793914E-005
   1.8600000000000005E-002     1.8056529370369390E-005
   1.9700000000000023E-002     2.0735033103846945E-005
   2.0800000000000013E-002     2.3737762603559531E-005
   2.1900000000000003E-002     2.7090893127024174E-005
   2.3000000000000020E-002     3.0820152460364625E-005
   2.4100000000000010E-002     3.4950622648466378E-005
   2.5200000000000000E-002     3.9506390749011189E-005
   2.6300000000000018E-002     4.4510248699225485E-005
   2.7400000000000008E-002     4.9982565542450175E-005
   2.8500000000000025E-002     5.5940650781849399E-005
   2.9600000000000015E-002     6.2398175941780210E-005
   3.0700000000000005E-002     6.9364432420115918E-005
   3.1800000000000023E-002     7.6842872658744454E-005
   3.2900000000000013E-002     8.4829618572257459E-005
   3.4000000000000002E-002     9.3312810349743813E-005
   3.5100000000000020E-002     1.0227129678241909E-004
   3.6200000000000010E-002     1.1167437332915142E-004
   3.7300000000000028E-002     1.2148063251515850E-004
   3.8400000000000017E-002     1.3163682888261974E-004
   3.9500000000000007E-002     1.4207685308065265E-004
   4.0600000000000025E-002     1.5272168093360960E-004
   4.1700000000000015E-002     1.6347886412404478E-004
   4.2800000000000005E-002     1.7424247926101089E-004
   4.3900000000000022E-002     1.8489155627321452E-004
   4.5000000000000012E-002     1.9529035489540547E-004
   4.6100000000000002E-002     2.0528884488157928E-004
   4.7200000000000020E-002     2.1472340449690819E-004
   4.8300000000000010E-002     2.2342006559483707E-004
   4.9400000000000027E-002     2.3119270917959511E-004
   5.0500000000000017E-002     2.3784491349942982E-004
   5.1600000000000007E-002     2.4317414499819279E-004
   5.2700000000000025E-002     2.4697542539797723E-004
   5.3800000000000014E-002     2.4904144811443985E-004
   5.4900000000000004E-002     2.4916577967815101E-004
   5.6000000000000022E-002     2.4714530445635319E-004
   5.7100000000000012E-002     2.4278956698253751E-004
   5.8200000000000002E-002     2.3592084471601993E-004
   5.9300000000000019E-002     2.2637832444161177E-004
   6.0400000000000009E-002     2.1402054699137807E-004
   6.1500000000000027E-002     1.9873339624609798E-004
   6.2600000000000017E-002     1.8043156887870282E-004
   6.3700000000000007E-002     1.5906408953014761E-004
   6.4800000000000024E-002     1.3461844355333596E-004
   6.5900000000000014E-002     1.0712489893194288E-004
   6.7000000000000004E-002     7.6657423051074147E-005
   6.8100000000000022E-002     4.3328094761818647E-005
   6.9200000000000012E-002     7.2997377174033318E-006
   7.0300000000000029E-002    -3.1215658964356408E-005
   7.1400000000000019E-002    -7.1953843871597201E-005
   7.2500000000000009E-002    -1.1460636596893892E-004
   7.3600000000000027E-002    -1.5881794388405979E-004
   7.4700000000000016E-002    -2.0419710199348629E-004
   7.5800000000000006E-002    -2.5031543918885291E-004
   7.6900000000000024E-002    -2.9670901130884886E-004
   7.8000000000000014E-002    -3.4288145252503455E-004
   7.9100000000000004E-002    -3.8831023266538978E-004
   8.0200000000000021E-002    -4.3246356653980911E-004
   8.1300000000000011E-002    -4.7480748617090285E-004
   8.2400000000000029E-002    -5.1481195259839296E-004
   8.3500000000000019E-002    -5.5195507593452930E-004
   8.4600000000000009E-002    -5.8572745183482766E-004
   8.5700000000000026E-002    -6.1564322095364332E-004
   8.6800000000000016E-002    -6.4125575590878725E-004
   8.7900000000000006E-002    -6.6216837149113417E-004
   8.9000000000000024E-002    -6.7803810816258192E-004
   9.0100000000000013E-002    -6.8857864243909717E-004
   9.1200000000000003E-002    -6.9356343010440469E-004
   9.2300000000000021E-002    -6.9283024640753865E-004
   9.3400000000000011E-002    -6.8629102315753698E-004
   9.4500000000000028E-002    -6.7393563222140074E-004
   9.5600000000000018E-002    -6.5583456307649612E-004
   9.6700000000000008E-002    -6.3213682733476162E-004
   9.7800000000000026E-002    -6.0306244995445013E-004
   9.8900000000000016E-002    -5.6889653205871582E-004
  0.10000000000000001         -5.2998907631263137E-004
  0.10110000000000002         -4.8675373545847833E-004
  0.10220000000000001         -4.3967572855763137E-004
  0.10330000000000003         -3.8928809226490557E-004
  0.10440000000000002         -3.3615494612604380E-004
  0.10550000000000001         -2.8085909434594214E-004
  0.10660000000000003         -2.2400610032491386E-004
  0.10770000000000002         -1.6622392286080867E-004
  0.10880000000000001         -1.0815316636580974E-004
  0.10990000000000003         -5.0418409955454990E-005
  0.11100000000000002          6.3804600358707830E-006
  0.11210000000000001          6.1671227740589529E-005
  0.11320000000000002          1.1490719043649733E-004
  0.11430000000000001          1.6558986681047827E-004
  0.11540000000000003          2.1326520072761923E-004
  0.11650000000000002          2.5752812507562339E-004
  0.11760000000000001          2.9802860808558762E-004
  0.11870000000000003          3.3448261092416942E-004
  0.11980000000000002          3.6667712265625596E-004
  0.12090000000000001          3.9446732262149453E-004
  0.12200000000000003          4.1776071884669363E-004
  0.12310000000000001          4.3651208397932351E-004
  0.12420000000000003          4.5073748333379626E-004
  0.12530000000000002          4.6052705147303641E-004
  0.12640000000000001          4.6603422379121184E-004
  0.12750000000000003          4.6744968858547509E-004
  0.12860000000000002          4.6498700976371765E-004
  0.12970000000000001          4.5889118337072432E-004
  0.13080000000000003          4.4944958062842488E-004
  0.13190000000000002          4.3698868830688298E-004
  0.13300000000000001          4.2185187339782715E-004
  0.13410000000000000          4.0437883581034839E-004
  0.13520000000000004          3.8490933366119862E-004
  0.13630000000000003          3.6378877121023834E-004
  0.13740000000000002          3.4136269823648036E-004
  0.13850000000000001          3.1796528492122889E-004
  0.13960000000000000          2.9391283169388771E-004
  0.14070000000000005          2.6950828032568097E-004
  0.14180000000000004          2.4503850727342069E-004
  0.14290000000000003          2.2076205641496927E-004
  0.14400000000000002          1.9690206681843847E-004
  0.14510000000000001          1.7365600797347724E-004
  0.14620000000000000          1.5120855823624879E-004
  0.14730000000000004          1.2972606054972857E-004
  0.14840000000000003          1.0933868179563433E-004
  0.14950000000000002          9.0135064965579659E-005
  0.15060000000000001          7.2179260314442217E-005
  0.15170000000000000          5.5527743825223297E-005
  0.15280000000000005          4.0225051634479314E-005
  0.15390000000000004          2.6284456907887943E-005
  0.15500000000000003          1.3684961231774651E-005
  0.15610000000000002          2.3940599476190982E-006
  0.15720000000000001         -7.6167048064235132E-006
  0.15830000000000000         -1.6381134628318250E-005
  0.15940000000000004         -2.3959066311363131E-005
  0.16050000000000003         -3.0431678169406950E-005
  0.16160000000000002         -3.5879707866115496E-005
  0.16270000000000001         -4.0368991903960705E-005
  0.16380000000000000         -4.3962714698864147E-005
  0.16490000000000005         -4.6740729885641485E-005
  0.16600000000000004         -4.8793706810101867E-005
  0.16710000000000003         -5.0204762374050915E-005
  0.16820000000000002         -5.1043178245890886E-005
  0.16930000000000001         -5.1376995543250814E-005
  0.17040000000000000         -5.1279908802825958E-005
  0.17150000000000004         -5.0819471653085202E-005
  0.17260000000000003         -5.0046804972225800E-005
  0.17370000000000002         -4.9008052883436903E-005
  0.17480000000000001         -4.7760484449099749E-005
  0.17590000000000000         -4.6367935283342376E-005
  0.17700000000000005         -4.4874723243992776E-005
  0.17810000000000004         -4.3296826333971694E-005
  0.17920000000000003         -4.1646115278126672E-005
  0.18030000000000002         -3.9957085391506553E-005
  0.18140000000000001         -3.8278609281405807E-005
  0.18250000000000000         -3.6639889003708959E-005
  0.18360000000000004         -3.5038727219216526E-005
  0.18470000000000003         -3.3467513276264071E-005
  0.18580000000000002         -3.1939140171743929E-005
  0.18690000000000001         -3.0478593544103205E-005
  0.18800000000000000         -2.9096021535224281E-005
  0.18910000000000005         -2.7781758035416715E-005
  0.19020000000000004         -2.6529125534580089E-005
  0.19130000000000003         -2.5346749680466019E-005
  0.19240000000000002         -2.4242037397925742E-005
  0.19350000000000001         -2.3204047465696931E-005
  0.19460000000000005         -2.2215324861463159E-005
  0.19570000000000004         -2.1274803657433949E-005
  0.19680000000000003         -2.0395584215293638E-005
  0.19790000000000002         -1.9577582861529663E-005
  0.19900000000000001         -1.8797829397954047E-005
  0.20010000000000000         -1.8035389075521380E-005
  0.20120000000000005         -1.7294833014602773E-005
  0.20230000000000004         -1.6592515748925507E-005
  0.20340000000000003         -1.5923622413538396E-005
  0.20450000000000002         -1.5260939107974991E-005
  0.20560000000000000         -1.4587682926503476E-005
  0.20670000000000005         -1.3916751413489692E-005
  0.20780000000000004         -1.3265570487419609E-005
  0.20890000000000003         -1.2624856026377529E-005
