 -0.12000000000000000          0.0000000000000000
 -0.11889999999999999          0.0000000000000000
 -0.11780000000000000          0.0000000000000000
 -0.11670000000000000          0.0000000000000000
 -0.11559999999999999          0.0000000000000000
 -0.11449999999999999          0.0000000000000000
 -0.11340000000000000          0.0000000000000000
 -0.11230000000000000          0.0000000000000000
 -0.11119999999999999          0.0000000000000000
 -0.11009999999999999          0.0000000000000000
 -0.10900000000000000          0.0000000000000000
 -0.10790000000000000          0.0000000000000000
 -0.10679999999999999          0.0000000000000000
 -0.10569999999999999          0.0000000000000000
 -0.10460000000000000          0.0000000000000000
 -0.10349999999999999          0.0000000000000000
 -0.10239999999999999          0.0000000000000000
 -0.10130000000000000          8.7372360549116669E-041
 -0.10020000000000000         -1.3908966258241340E-039
  -9.9099999999999994E-002     6.3197804039878514E-039
  -9.7999999999999990E-002     1.3530901537760361E-038
  -9.6899999999999986E-002    -1.8106569821110972E-037
  -9.5799999999999996E-002     1.0931557346167184E-037
  -9.4699999999999993E-002     2.6626466277867894E-036
  -9.3599999999999989E-002    -3.9958352605127916E-036
  -9.2499999999999999E-002    -2.9495044499380197E-035
  -9.1399999999999995E-002     5.4106547079848386E-035
  -9.0299999999999991E-002     2.8228038946495726E-034
  -8.9200000000000002E-002    -4.9113526918022734E-034
  -8.8099999999999984E-002    -2.4500336515929532E-033
  -8.6999999999999994E-002     3.2310552408243128E-033
  -8.5899999999999990E-002     1.9282462560055312E-032
  -8.4799999999999986E-002    -1.3873791177363249E-032
  -8.3699999999999997E-002    -1.3467855068331499E-031
  -8.2599999999999993E-002     7.0790797119372422E-033
  -8.1499999999999989E-002     8.1077616362090607E-031
  -8.0399999999999999E-002     5.3403606435540550E-031
  -7.9299999999999995E-002    -4.0412623094264194E-030
  -7.8199999999999992E-002    -6.0495084556593655E-030
  -7.7100000000000002E-002     1.5387378286388109E-029
  -7.5999999999999984E-002     4.3040128692306936E-029
  -7.4899999999999994E-002    -3.3347549209437903E-029
  -7.3799999999999991E-002    -2.2751763953137159E-028
  -7.2699999999999987E-002    -7.3391761465566817E-029
  -7.1599999999999997E-002     8.9952840279589949E-028
  -7.0499999999999993E-002     1.2210278365688468E-027
  -6.9399999999999989E-002    -2.3506839713791243E-027
  -6.8300000000000000E-002    -7.2753960394051332E-027
  -6.7199999999999996E-002     1.0803633060346473E-027
  -6.6099999999999992E-002     2.8146794372854850E-026
  -6.5000000000000002E-002     2.7526281315188659E-026
  -6.3899999999999985E-002    -6.7843757319261364E-026
  -6.2799999999999995E-002    -1.7226679759839474E-025
  -6.1699999999999991E-002     2.6997100477717178E-026
  -6.0599999999999994E-002     5.9450352476014827E-025
  -5.9499999999999990E-002     6.1972429536858240E-025
  -5.8399999999999994E-002    -1.1094572311540650E-024
  -5.7299999999999990E-002    -3.2302061382393319E-024
  -5.6199999999999986E-002    -6.4326099585578939E-025
  -5.5099999999999996E-002     8.6069986461850212E-024
  -5.3999999999999992E-002     1.2517666143291456E-023
  -5.2899999999999989E-002    -8.2880093285235163E-024
  -5.1799999999999985E-002    -4.4519674419622648E-023
  -5.0699999999999995E-002    -3.4456955246292559E-023
  -4.9599999999999991E-002     7.1907517721041263E-023
  -4.8499999999999988E-002     1.8037405572074303E-022
  -4.7399999999999998E-002     5.4532458697652247E-023
  -4.6299999999999994E-002    -3.6871646486488316E-022
  -4.5199999999999990E-002    -6.1462109500813978E-022
  -4.4099999999999986E-002     4.6967923171637783E-023
  -4.2999999999999997E-002     1.4654909102441413E-021
  -4.1899999999999993E-002     1.8647019861580314E-021
  -4.0799999999999989E-002    -6.7264485643479573E-022
  -3.9699999999999985E-002    -4.9037152910122300E-021
  -3.8599999999999995E-002    -5.3731200937968996E-021
  -3.7499999999999992E-002     2.5210092177013379E-021
  -3.6399999999999988E-002     1.4352155545640428E-020
  -3.5299999999999984E-002     1.5697144759303116E-020
  -3.4199999999999994E-002    -4.8019191651895726E-021
  -3.3099999999999991E-002    -3.7193843432497308E-020
  -3.1999999999999987E-002    -4.7783328855044473E-020
  -3.0899999999999997E-002    -4.6137549628793655E-021
  -2.9799999999999993E-002     8.3212340445394415E-020
  -2.8699999999999989E-002     1.4621917884204724E-019
  -2.7599999999999986E-002     8.5385615333209713E-020
  -2.6499999999999996E-002    -1.4169942520096628E-019
  -2.5399999999999992E-002    -4.1784131669139456E-019
  -2.4299999999999988E-002    -4.4558394631005156E-019
  -2.3199999999999985E-002     6.7234875162489589E-020
  -2.2099999999999995E-002     1.0197741085495148E-018
  -2.0999999999999991E-002     1.6366842720182206E-018
  -1.9899999999999987E-002     8.0437922387163861E-019
  -1.8799999999999983E-002    -1.8127944365507870E-018
  -1.7699999999999994E-002    -4.6456940606912631E-018
  -1.6599999999999990E-002    -4.5247701813033610E-018
  -1.5499999999999986E-002     8.5958505115827454E-019
  -1.4399999999999996E-002     9.7221407710082902E-018
  -1.3299999999999992E-002     1.5263414595514284E-017
  -1.2199999999999989E-002     9.3279288249420561E-018
  -1.1099999999999985E-002    -1.0540265410215087E-017
  -9.9999999999999950E-003    -3.5327983989633354E-017
  -8.8999999999999913E-003    -4.5425139499051748E-017
  -7.7999999999999875E-003    -2.0663664878927951E-017
  -6.6999999999999837E-003     4.2963082727901964E-017
  -5.5999999999999939E-003     1.1818899528967509E-016
  -4.4999999999999901E-003     1.4611553921175136E-016
  -3.3999999999999864E-003     6.2949993097392105E-017
  -2.2999999999999826E-003    -1.4690792529901796E-016
  -1.1999999999999927E-003    -3.9762749392947372E-016
  -9.9999999999988987E-005    -4.9734206536482207E-016
   1.0000000000000148E-003    -2.3487371300458574E-016
   2.1000000000000185E-003     4.4985125735287840E-016
   3.2000000000000084E-003     1.2979854533177277E-015
   4.3000000000000121E-003     1.7106246474735934E-015
   5.4000000000000159E-003     9.9630249305449189E-016
   6.5000000000000058E-003    -1.1249280459850832E-015
   7.6000000000000234E-003    -3.9870971616244501E-015
   8.7000000000000133E-003    -5.8213728434085288E-015
   9.8000000000000032E-003    -4.3668588778117585E-015
   1.0900000000000021E-002     1.6991526449942180E-015
   1.2000000000000011E-002     1.1063658059899499E-014
   1.3100000000000001E-002     1.8930400324558561E-014
   1.4200000000000018E-002     1.8214298342159041E-014
   1.5300000000000008E-002     3.2196027256996967E-015
   1.6400000000000026E-002    -2.5259494880946684E-014
   1.7500000000000016E-002    -5.6121546889971799E-014
   1.8600000000000005E-002    -6.8897619272083321E-014
   1.9700000000000023E-002    -4.1805717687550675E-014
   2.0800000000000013E-002     3.4091565020207687E-014
   2.1900000000000003E-002     1.4036004075592551E-013
   2.3000000000000020E-002     2.2576042326815510E-013
   2.4100000000000010E-002     2.1904814117082450E-013
   2.5200000000000000E-002     6.2692506622250704E-014
   2.6300000000000018E-002    -2.4159737795417802E-013
   2.7400000000000008E-002    -5.9720923952649718E-013
   2.8500000000000025E-002    -8.1451804936211181E-013
   2.9600000000000015E-002    -6.7051648521693208E-013
   3.0700000000000005E-002    -2.2924641785576627E-014
   3.1800000000000023E-002     1.0582418188270770E-012
   3.2900000000000013E-002     2.2083196816319317E-012
   3.4000000000000002E-002     2.8079973242445266E-012
   3.5100000000000020E-002     2.1872790037513745E-012
   3.6200000000000010E-002    -3.4517568382567976E-014
   3.7300000000000028E-002    -3.5873465656366399E-012
   3.8400000000000017E-002    -7.3472590858547626E-012
   3.9500000000000007E-002    -9.4718382442904314E-012
   4.0600000000000025E-002    -7.9644450756699570E-012
   4.1700000000000015E-002    -1.5850205262873951E-012
   4.2800000000000005E-002     9.1780246597172876E-012
   4.3900000000000022E-002     2.1508227490696363E-011
   4.5000000000000012E-002     3.0469494982643397E-011
   4.6100000000000002E-002     3.0261331634973132E-011
   4.7200000000000020E-002     1.6384340065234149E-011
   4.8300000000000010E-002    -1.1866248435243865E-011
   4.9400000000000027E-002    -4.9503009330598147E-011
   5.0500000000000017E-002    -8.5532102234164853E-011
   5.1600000000000007E-002    -1.0488896556859473E-010
   5.2700000000000025E-002    -9.2614187152673111E-011
   5.3800000000000014E-002    -3.9413403096766331E-011
   5.4900000000000004E-002     5.2986941223576167E-011
   5.6000000000000022E-002     1.6859250107081891E-010
   5.7100000000000012E-002     2.7762653287410899E-010
   5.8200000000000002E-002     3.4149663652449647E-010
   5.9300000000000019E-002     3.2173516628652976E-010
   6.0400000000000009E-002     1.9113911842172371E-010
   6.1500000000000027E-002    -5.5550581495866780E-011
   6.2600000000000017E-002    -3.9428843523481305E-010
   6.3700000000000007E-002    -7.6993905695488252E-010
   6.4800000000000024E-002    -1.1010546918654995E-009
   6.5900000000000014E-002    -1.2906435920001513E-009
   6.7000000000000004E-002    -1.2408656324680578E-009
   6.8100000000000022E-002    -8.6860157955115369E-010
   6.9200000000000012E-002    -1.1850465053697690E-010
   7.0300000000000029E-002     1.0295569952134542E-009
   7.1400000000000019E-002     2.5608517528752373E-009
   7.2500000000000009E-002     4.4347587824233869E-009
   7.3600000000000027E-002     6.6016108135613649E-009
   7.4700000000000016E-002     9.0249141493359275E-009
   7.5800000000000006E-002     1.1705048486021497E-008
   7.6900000000000024E-002     1.4699818251528995E-008
   7.8000000000000014E-002     1.8137573221110870E-008
   7.9100000000000004E-002     2.2220243423021202E-008
   8.0200000000000021E-002     2.7216227493909173E-008
   8.1300000000000011E-002     3.3446241332057980E-008
   8.2400000000000029E-002     4.1267558259505677E-008
   8.3500000000000019E-002     5.1063477002344371E-008
   8.4600000000000009E-002     6.3243199122098304E-008
   8.5700000000000026E-002     7.8256128688281024E-008
   8.6800000000000016E-002     9.6618123279768042E-008
   8.7900000000000006E-002     1.1894512397248036E-007
   8.9000000000000024E-002     1.4598656150610623E-007
   9.0100000000000013E-002     1.7865140478079411E-007
   9.1200000000000003E-002     2.1802334515541588E-007
   9.2300000000000021E-002     2.6536727659731696E-007
   9.3400000000000011E-002     3.2213577583206643E-007
   9.4500000000000028E-002     3.8997666251816554E-007
   9.5600000000000018E-002     4.7075829456844076E-007
   9.6700000000000008E-002     5.6660741165615036E-007
   9.7800000000000026E-002     6.7995262043041294E-007
   9.8900000000000016E-002     8.1357580938856700E-007
  0.10000000000000001          9.7065139925689436E-007
  0.10110000000000002          1.1547746225915034E-006
  0.10220000000000001          1.3699695955438074E-006
  0.10330000000000003          1.6207001181101077E-006
  0.10440000000000002          1.9118631371384254E-006
  0.10550000000000001          2.2488034119305667E-006
  0.10660000000000003          2.6373334094387246E-006
  0.10770000000000002          3.0837650228932034E-006
  0.10880000000000001          3.5949267385149142E-006
  0.10990000000000003          4.1781745494517963E-006
  0.11100000000000002          4.8413803597213700E-006
  0.11210000000000001          5.5928626352397259E-006
  0.11320000000000002          6.4413143263664097E-006
  0.11430000000000001          7.3957353379228152E-006
  0.11540000000000003          8.4653047451865859E-006
  0.11650000000000002          9.6593093985575251E-006
  0.11760000000000001          1.0986962479364593E-005
  0.11870000000000003          1.2457349839678500E-005
  0.11980000000000002          1.4079098036745563E-005
  0.12090000000000001          1.5860414350754581E-005
  0.12200000000000003          1.7808564734878018E-005
  0.12310000000000001          1.9929775589844212E-005
  0.12420000000000003          2.2228699890547432E-005
  0.12530000000000002          2.4708444470888935E-005
  0.12640000000000001          2.7369915187591687E-005
  0.12750000000000003          3.0211760531528853E-005
  0.12860000000000002          3.3229829568881541E-005
  0.12970000000000001          3.6416953662410378E-005
  0.13080000000000003          3.9762606320437044E-005
  0.13190000000000002          4.3252082832623273E-005
  0.13300000000000001          4.6866894990671426E-005
  0.13410000000000000          5.0584258133312687E-005
  0.13520000000000004          5.4376207117456943E-005
  0.13630000000000003          5.8210363931721076E-005
  0.13740000000000002          6.2048813560977578E-005
  0.13850000000000001          6.5849031670950353E-005
  0.13960000000000000          6.9563851866405457E-005
  0.14070000000000005          7.3140501626767218E-005
  0.14180000000000004          7.6521922892425209E-005
  0.14290000000000003          7.9646728408988565E-005
  0.14400000000000002          8.2449696492403746E-005
  0.14510000000000001          8.4862149378750473E-005
  0.14620000000000000          8.6813866801094264E-005
  0.14730000000000004          8.8232125563081354E-005
  0.14840000000000003          8.9044493506662548E-005
  0.14950000000000002          8.9178611233364791E-005
  0.15060000000000001          8.8564345787744969E-005
  0.15170000000000000          8.7134983914438635E-005
  0.15280000000000005          8.4827646787744015E-005
  0.15390000000000004          8.1585458246991038E-005
  0.15500000000000003          7.7359807619359344E-005
  0.15610000000000002          7.2110502514988184E-005
  0.15720000000000001          6.5807507780846208E-005
  0.15830000000000000          5.8433386584511027E-005
  0.15940000000000004          4.9983635108219460E-005
  0.16050000000000003          4.0466627979185432E-005
  0.16160000000000002          2.9907285352237523E-005
  0.16270000000000001          1.8346634533372708E-005
  0.16380000000000000          5.8413761507836170E-006
  0.16490000000000005         -7.5341336014389526E-006
  0.16600000000000004         -2.1691272195312195E-005
  0.16710000000000003         -3.6523251765174791E-005
  0.16820000000000002         -5.1907496526837349E-005
  0.16930000000000001         -6.7707835114561021E-005
  0.17040000000000000         -8.3774772065225989E-005
  0.17150000000000004         -9.9945267720613629E-005
  0.17260000000000003         -1.1604949395405129E-004
  0.17370000000000002         -1.3190988101996481E-004
  0.17480000000000001         -1.4734228898305446E-004
  0.17590000000000000         -1.6216139192692935E-004
  0.17700000000000005         -1.7618118727114052E-004
  0.17810000000000004         -1.8921993614640087E-004
  0.17920000000000003         -2.0110263722017407E-004
  0.18030000000000002         -2.1166348597034812E-004
  0.18140000000000001         -2.2074910521041602E-004
  0.18250000000000000         -2.2822181927040219E-004
  0.18360000000000004         -2.3396070173475891E-004
  0.18470000000000003         -2.3786569363437593E-004
  0.18580000000000002         -2.3985841835383326E-004
  0.18690000000000001         -2.3988453904166818E-004
  0.18800000000000000         -2.3791436979081482E-004
  0.18910000000000005         -2.3394353047478944E-004
  0.19020000000000004         -2.2799479484092444E-004
  0.19130000000000003         -2.2011637338437140E-004
  0.19240000000000002         -2.1038363047409803E-004
  0.19350000000000001         -1.9889551913365722E-004
  0.19460000000000005         -1.8577523587737232E-004
  0.19570000000000004         -1.7116412345785648E-004
  0.19680000000000003         -1.5522495959885418E-004
  0.19790000000000002         -1.3813753321301192E-004
  0.19900000000000001         -1.2009403144475073E-004
  0.20010000000000000         -1.0129813745152205E-004
  0.20120000000000005         -8.1960679381154478E-005
  0.20230000000000004         -6.2295315728988498E-005
  0.20340000000000003         -4.2516356188571081E-005
  0.20450000000000002         -2.2835962226963602E-005
  0.20560000000000000         -3.4612096442288021E-006
  0.20670000000000005          1.5410359992529266E-005
  0.20780000000000004          3.3592124964343384E-005
  0.20890000000000003          5.0913851737277582E-005
