 -0.12000000000000000          0.0000000000000000
 -0.11889999999999999          0.0000000000000000
 -0.11780000000000000          0.0000000000000000
 -0.11670000000000000          0.0000000000000000
 -0.11559999999999999          0.0000000000000000
 -0.11449999999999999          0.0000000000000000
 -0.11340000000000000          0.0000000000000000
 -0.11230000000000000          4.5173359149350863E-021
 -0.11119999999999999          2.6953082492800867E-021
 -0.11009999999999999         -3.9686161236339454E-020
 -0.10900000000000000         -4.3154387373106517E-020
 -0.10790000000000000          1.2673964410309456E-019
 -0.10679999999999999          1.1275597490212664E-019
 -0.10569999999999999         -2.9436555926437232E-019
 -0.10460000000000000          7.7179792371167025E-019
 -0.10349999999999999          3.4095663134351348E-018
 -0.10239999999999999         -2.6647582074365159E-018
 -0.10130000000000000         -2.4008321709310590E-017
 -0.10020000000000000         -2.3006936859753895E-017
  -9.9099999999999994E-002     5.9794444644290114E-017
  -9.7999999999999990E-002     1.6465787128564624E-016
  -9.6899999999999986E-002     6.5371997783282072E-017
  -9.5799999999999996E-002    -3.2096630058219043E-016
  -9.4699999999999993E-002    -5.9947491586458145E-016
  -9.3599999999999989E-002    -2.6554665537901567E-016
  -9.2499999999999999E-002     5.2617850796070668E-016
  -9.1399999999999995E-002     1.2265284833379341E-015
  -9.0299999999999991E-002     1.9775513048121435E-015
  -8.9200000000000002E-002     2.6896703265354366E-015
  -8.8099999999999984E-002     1.9473853910659841E-016
  -8.6999999999999994E-002    -9.5672557739621619E-015
  -8.5899999999999990E-002    -2.1019364837538378E-014
  -8.4799999999999986E-002    -1.4576916944016895E-014
  -8.3699999999999997E-002     2.3028623550181565E-014
  -8.2599999999999993E-002     6.8656262315960892E-014
  -8.1499999999999989E-002     7.0093927949203827E-014
  -8.0399999999999999E-002     1.8027234927406191E-015
  -7.9299999999999995E-002    -9.8447529154385011E-014
  -7.8199999999999992E-002    -1.7167490302602562E-013
  -7.7100000000000002E-002    -1.9459230776210090E-013
  -7.5999999999999984E-002    -1.4046683466991533E-013
  -7.4899999999999994E-002     9.1882922169210512E-014
  -7.3799999999999991E-002     5.6259559727891983E-013
  -7.2699999999999987E-002     1.0080227668199382E-012
  -7.1599999999999997E-002     8.3523883339167715E-013
  -7.0499999999999993E-002    -2.9889713750938518E-013
  -6.9399999999999989E-002    -1.8545850619111626E-012
  -6.8300000000000000E-002    -2.6645734230168472E-012
  -6.7199999999999996E-002    -2.0365254621568241E-012
  -6.6099999999999992E-002    -3.4666551313594640E-013
  -6.5000000000000002E-002     1.7393221194914044E-012
  -6.3899999999999985E-002     4.1749251625256001E-012
  -6.2799999999999995E-002     6.7709861155396123E-012
  -6.1699999999999991E-002     7.5979587205177168E-012
  -6.0599999999999994E-002     3.6871352325495987E-012
  -5.9499999999999990E-002    -5.3345799999604537E-012
  -5.8399999999999994E-002    -1.5047046941774056E-011
  -5.7299999999999990E-002    -1.9570277690061921E-011
  -5.6199999999999986E-002    -1.7235572344342920E-011
  -5.5099999999999996E-002    -1.0806328054613346E-011
  -5.3999999999999992E-002    -1.1948070571116132E-012
  -5.2899999999999989E-002     1.5830853988818561E-011
  -5.1799999999999985E-002     4.2452208415255654E-011
  -5.0699999999999995E-002     6.8811456532813509E-011
  -4.9599999999999991E-002     7.5453997216978763E-011
  -4.8499999999999988E-002     4.9081069070089356E-011
  -4.7399999999999998E-002    -6.5036062472934031E-012
  -4.6299999999999994E-002    -7.7459115510603027E-011
  -4.5199999999999990E-002    -1.5275569698047775E-010
  -4.4099999999999986E-002    -2.2125673515560607E-010
  -4.2999999999999997E-002    -2.5614377285876344E-010
  -4.1899999999999993E-002    -2.1505940084320940E-010
  -4.0799999999999989E-002    -6.9064365337823119E-011
  -3.9699999999999985E-002     1.6694962079455422E-010
  -3.8599999999999995E-002     4.3755213341434285E-010
  -3.7499999999999992E-002     6.7744582166184841E-010
  -3.6399999999999988E-002     8.2886286723038438E-010
  -3.5299999999999984E-002     8.2946893797952725E-010
  -3.4199999999999994E-002     6.0446919691869994E-010
  -3.3099999999999991E-002     9.7096650164552045E-011
  -3.1999999999999987E-002    -6.8151922993919811E-010
  -3.0899999999999997E-002    -1.6310341965919406E-009
  -2.9799999999999993E-002    -2.5782602719459646E-009
  -2.8699999999999989E-002    -3.2951108508427751E-009
  -2.7599999999999986E-002    -3.5026825884187929E-009
  -2.6499999999999996E-002    -2.8971827159551822E-009
  -2.5399999999999992E-002    -1.2209948607733168E-009
  -2.4299999999999988E-002     1.6695236304542505E-009
  -2.3199999999999985E-002     5.8055005247581448E-009
  -2.2099999999999995E-002     1.1159310808750433E-008
  -2.0999999999999991E-002     1.7666993201714831E-008
  -1.9899999999999987E-002     2.5200614928166942E-008
  -1.8799999999999983E-002     3.3585809688929658E-008
  -1.7699999999999994E-002     4.2738875549730437E-008
  -1.6599999999999990E-002     5.2840057662706386E-008
  -1.5499999999999986E-002     6.4385268672140228E-008
  -1.4399999999999996E-002     7.8097201594573562E-008
  -1.3299999999999992E-002     9.4849134768537624E-008
  -1.2199999999999989E-002     1.1570794100634885E-007
  -1.1099999999999985E-002     1.4199837039541308E-007
  -9.9999999999999950E-003     1.7523106521366572E-007
  -8.8999999999999913E-003     2.1693170992875821E-007
  -7.7999999999999875E-003     2.6858705837184971E-007
  -6.6999999999999837E-003     3.3180518244080304E-007
  -5.5999999999999939E-003     4.0853279870134429E-007
  -4.4999999999999901E-003     5.0113550287278485E-007
  -3.3999999999999864E-003     6.1238154103193665E-007
  -2.2999999999999826E-003     7.4549933515299927E-007
  -1.1999999999999927E-003     9.0435571564739803E-007
  -9.9999999999988987E-005     1.0935980299109360E-006
   1.0000000000000148E-003     1.3186769365347573E-006
   2.1000000000000185E-003     1.5858461210882524E-006
   3.2000000000000084E-003     1.9022528476853040E-006
   4.3000000000000121E-003     2.2760323190595955E-006
   5.4000000000000159E-003     2.7162589049112285E-006
   6.5000000000000058E-003     3.2328568977391114E-006
   7.6000000000000234E-003     3.8367224988178350E-006
   8.7000000000000133E-003     4.5400656745187007E-006
   9.8000000000000032E-003     5.3566222959489096E-006
   1.0900000000000021E-002     6.3015022533363663E-006
   1.2000000000000011E-002     7.3909550337702967E-006
   1.3100000000000001E-002     8.6424270193674602E-006
   1.4200000000000018E-002     1.0074988495034631E-005
   1.5300000000000008E-002     1.1709561476891395E-005
   1.6400000000000026E-002     1.3568727808888070E-005
   1.7500000000000016E-002     1.5676190741942264E-005
   1.8600000000000005E-002     1.8056507542496547E-005
   1.9700000000000023E-002     2.0735033103846945E-005
   2.0800000000000013E-002     2.3737773517495953E-005
   2.1900000000000003E-002     2.7090858566225506E-005
   2.3000000000000020E-002     3.0820112442597747E-005
   2.4100000000000010E-002     3.4950637200381607E-005
   2.5200000000000000E-002     3.9506518078269437E-005
   2.6300000000000018E-002     4.4510325096780434E-005
   2.7400000000000008E-002     4.9982532800640911E-005
   2.8500000000000025E-002     5.5940578022273257E-005
   2.9600000000000015E-002     6.2398234149441123E-005
   3.0700000000000005E-002     6.9364541559480131E-005
   3.1800000000000023E-002     7.6842938142362982E-005
   3.2900000000000013E-002     8.4829545812681317E-005
   3.4000000000000002E-002     9.3312621174845845E-005
   3.5100000000000020E-002     1.0227125312667340E-004
   3.6200000000000010E-002     1.1167454795213416E-004
   3.7300000000000028E-002     1.2148077803431079E-004
   3.8400000000000017E-002     1.3163672701921314E-004
   3.9500000000000007E-002     1.4207660569809377E-004
   4.0600000000000025E-002     1.5272144810296595E-004
   4.1700000000000015E-002     1.6347899509128183E-004
   4.2800000000000005E-002     1.7424281395506114E-004
   4.3900000000000022E-002     1.8489171634428203E-004
   4.5000000000000012E-002     1.9528984557837248E-004
   4.6100000000000002E-002     2.0528836466837674E-004
   4.7200000000000020E-002     2.1472387015819550E-004
   4.8300000000000010E-002     2.2342099691741168E-004
   4.9400000000000027E-002     2.3119275283534080E-004
   5.0500000000000017E-002     2.3784380755387247E-004
   5.1600000000000007E-002     2.4317372299265116E-004
   5.2700000000000025E-002     2.4697621120139956E-004
   5.3800000000000014E-002     2.4904205929487944E-004
   5.4900000000000004E-002     2.4916502297855914E-004
   5.6000000000000022E-002     2.4714451865293086E-004
   5.7100000000000012E-002     2.4278946511913091E-004
   5.8200000000000002E-002     2.3592184879817069E-004
   5.9300000000000019E-002     2.2637796064373106E-004
   6.0400000000000009E-002     2.1401971753221005E-004
   6.1500000000000027E-002     1.9873288692906499E-004
   6.2600000000000017E-002     1.8043129239231348E-004
   6.3700000000000007E-002     1.5906379849184304E-004
   6.4800000000000024E-002     1.3461896742228419E-004
   6.5900000000000014E-002     1.0712671792134643E-004
   6.7000000000000004E-002     7.6657983299810439E-005
   6.8100000000000022E-002     4.3328065657988191E-005
   6.9200000000000012E-002     7.2992716013686731E-006
   7.0300000000000029E-002    -3.1216328352456912E-005
   7.1400000000000019E-002    -7.1954098530113697E-005
   7.2500000000000009E-002    -1.1460437235655263E-004
   7.3600000000000027E-002    -1.5881657600402832E-004
   7.4700000000000016E-002    -2.0419966313056648E-004
   7.5800000000000006E-002    -2.5032041594386101E-004
   7.6900000000000024E-002    -2.9670959338545799E-004
   7.8000000000000014E-002    -3.4287595190107822E-004
   7.9100000000000004E-002    -3.8830548874102533E-004
   8.0200000000000021E-002    -4.3246449786238372E-004
   8.1300000000000011E-002    -4.7481158981099725E-004
   8.2400000000000029E-002    -5.1481381524354219E-004
   8.3500000000000019E-002    -5.5195309687405825E-004
   8.4600000000000009E-002    -5.8572529815137386E-004
   8.5700000000000026E-002    -6.1564432689920068E-004
   8.6800000000000016E-002    -6.4125802600756288E-004
   8.7900000000000006E-002    -6.6216831328347325E-004
   8.9000000000000024E-002    -6.7803642014041543E-004
   9.0100000000000013E-002    -6.8857934093102813E-004
   9.1200000000000003E-002    -6.9356616586446762E-004
   9.2300000000000021E-002    -6.9283094489946961E-004
   9.3400000000000011E-002    -6.8628741428256035E-004
   9.4500000000000028E-002    -6.7393161589279771E-004
   9.5600000000000018E-002    -6.5583497053012252E-004
   9.6700000000000008E-002    -6.3214061083272099E-004
   9.7800000000000026E-002    -6.0306396335363388E-004
   9.8900000000000016E-002    -5.6889356346800923E-004
  0.10000000000000001         -5.2998517639935017E-004
  0.10110000000000002         -4.8675513244234025E-004
  0.10220000000000001         -4.3968000682070851E-004
  0.10330000000000003         -3.8928948924876750E-004
  0.10440000000000002         -3.3615203574299812E-004
  0.10550000000000001         -2.8085766825824976E-004
  0.10660000000000003         -2.2400901070795953E-004
  0.10770000000000002         -1.6622625116724521E-004
  0.10880000000000001         -1.0814749111887068E-004
  0.10990000000000003         -5.0411330448696390E-005
  0.11100000000000002          6.3785955717321485E-006
  0.11210000000000001          6.1660044593736529E-005
  0.11320000000000002          1.1490139149827883E-004
  0.11430000000000001          1.6559555660933256E-004
  0.11540000000000003          2.1327513968572021E-004
  0.11650000000000002          2.5753013323992491E-004
  0.11760000000000001          2.9802211793139577E-004
  0.11870000000000003          3.3447652822360396E-004
  0.11980000000000002          3.6667924723587930E-004
  0.12090000000000001          3.9447384187951684E-004
  0.12200000000000003          4.1776348371058702E-004
  0.12310000000000001          4.3651007581502199E-004
  0.12420000000000003          4.5073599903844297E-004
  0.12530000000000002          4.6052751713432372E-004
  0.12640000000000001          4.6603239024989307E-004
  0.12750000000000003          4.6744552673771977E-004
  0.12860000000000002          4.6498593292199075E-004
  0.12970000000000001          4.5889508328400552E-004
  0.13080000000000003          4.4945580884814262E-004
  0.13190000000000002          4.3699113302864134E-004
  0.13300000000000001          4.2184998164884746E-004
  0.13410000000000000          4.0437924326397479E-004
  0.13520000000000004          3.8491576560772955E-004
  0.13630000000000003          3.6379782250151038E-004
  0.13740000000000002          3.4136825706809759E-004
  0.13850000000000001          3.1796735129319131E-004
  0.13960000000000000          2.9391780844889581E-004
  0.14070000000000005          2.6951948530040681E-004
  0.14180000000000004          2.4505343753844500E-004
  0.14290000000000003          2.2077831090427935E-004
  0.14400000000000002          1.9692190107889473E-004
  0.14510000000000001          1.7368250701110810E-004
  0.14620000000000000          1.5124025230761617E-004
  0.14730000000000004          1.2975919526070356E-004
  0.14840000000000003          1.0937472688965499E-004
  0.14950000000000002          9.0181092673446983E-005
  0.15060000000000001          7.2240836743731052E-005
  0.15170000000000000          5.5603686632821336E-005
  0.15280000000000005          4.0310926124220714E-005
  0.15390000000000004          2.6380563213024288E-005
  0.15500000000000003          1.3798322470393032E-005
  0.15610000000000002          2.5320321128674550E-006
  0.15720000000000001         -7.4520603448036127E-006
  0.15830000000000000         -1.6190389942494221E-005
  0.15940000000000004         -2.3739768948871642E-005
  0.16050000000000003         -3.0180026442394592E-005
  0.16160000000000002         -3.5590066545410082E-005
  0.16270000000000001         -4.0035636629909277E-005
  0.16380000000000000         -4.3579497287282720E-005
  0.16490000000000005         -4.6300458052428439E-005
  0.16600000000000004         -4.8290454287780449E-005
  0.16710000000000003         -4.9635022151051089E-005
  0.16820000000000002         -5.0403155910316855E-005
  0.16930000000000001         -5.0658123655011877E-005
  0.17040000000000000         -5.0470105634303764E-005
  0.17150000000000004         -4.9908638175111264E-005
  0.17260000000000003         -4.9029440560843796E-005
  0.17370000000000002         -4.7879671910777688E-005
  0.17480000000000001         -4.6513450797647238E-005
  0.17590000000000000         -4.4990822061663494E-005
  0.17700000000000005         -4.3355994421290234E-005
  0.17810000000000004         -4.1628056351328269E-005
  0.17920000000000003         -3.9821563404984772E-005
  0.18030000000000002         -3.7970803532516584E-005
  0.18140000000000001         -3.6122877645539120E-005
  0.18250000000000000         -3.4306121960980818E-005
  0.18360000000000004         -3.2520918466616422E-005
  0.18470000000000003         -3.0762799724470824E-005
  0.18580000000000002         -2.9046022973489016E-005
  0.18690000000000001         -2.7394777134759352E-005
  0.18800000000000000         -2.5818810172495432E-005
  0.18910000000000005         -2.4311098968610168E-005
  0.19020000000000004         -2.2869009626447223E-005
  0.19130000000000003         -2.1504305550479330E-005
  0.19240000000000002         -2.0225430489517748E-005
  0.19350000000000001         -1.9022591004613787E-005
  0.19460000000000005         -1.7880051018437371E-005
  0.19570000000000004         -1.6799011063994840E-005
  0.19680000000000003         -1.5794379578437656E-005
  0.19790000000000002         -1.4869089682179037E-005
  0.19900000000000001         -1.4005474440637045E-005
  0.20010000000000000         -1.3186748219595756E-005
  0.20120000000000005         -1.2417113794072066E-005
  0.20230000000000004         -1.1709586033248343E-005
  0.20340000000000003         -1.1060444194299635E-005
  0.20450000000000002         -1.0450509762449656E-005
  0.20560000000000000         -9.8710142992786132E-006
  0.20670000000000005         -9.3338076112559065E-006
  0.20780000000000004         -8.8490469352109358E-006
  0.20890000000000003         -8.4032208178541623E-006
