 -0.12000000000000000          0.0000000000000000
 -0.11889999999999999          0.0000000000000000
 -0.11780000000000000         -2.8803398555155013E-010
 -0.11670000000000000         -3.7413230846716772E-010
 -0.11559999999999999          3.5014202648397941E-010
 -0.11449999999999999          9.4072993839233732E-010
 -0.11340000000000000          9.4344317080885531E-011
 -0.11230000000000000         -1.0913582260130283E-009
 -0.11119999999999999         -5.3995030668829713E-010
 -0.11009999999999999          4.0800393619200293E-010
 -0.10900000000000000         -1.7057468770786954E-009
 -0.10790000000000000         -5.1608433082606098E-009
 -0.10679999999999999         -2.5409652160135465E-009
 -0.10569999999999999          7.8289525973218588E-009
 -0.10460000000000000          1.4875270792913398E-008
 -0.10349999999999999          7.4609038946960027E-009
 -0.10239999999999999         -7.8668911385193496E-009
 -0.10130000000000000         -1.2319264719451439E-008
 -0.10020000000000000         -5.1224768871094284E-010
  -9.9099999999999994E-002     1.0257084959164331E-008
  -9.7999999999999990E-002     3.9317424871398998E-009
  -9.6899999999999986E-002    -1.0295727825848644E-008
  -9.5799999999999996E-002    -1.0654888527028561E-008
  -9.4699999999999993E-002     4.9943009727826393E-009
  -9.3599999999999989E-002     1.5762278593456358E-008
  -9.2499999999999999E-002     8.8268627962406754E-009
  -9.1399999999999995E-002    -2.6692419385909716E-009
  -9.0299999999999991E-002    -2.5360051836287312E-009
  -8.9200000000000002E-002     1.5046878187874313E-009
  -8.8099999999999984E-002    -9.5545065192936818E-009
  -8.6999999999999994E-002    -3.3973446278423580E-008
  -8.5899999999999990E-002    -5.0857106970170207E-008
  -8.4799999999999986E-002    -5.4565532536798855E-008
  -8.3699999999999997E-002    -6.5483540367949900E-008
  -8.2599999999999993E-002    -9.6673886673670495E-008
  -8.1499999999999989E-002    -1.2998566489841323E-007
  -8.0399999999999999E-002    -1.4490592548099812E-007
  -7.9299999999999995E-002    -1.5748260295822547E-007
  -7.8199999999999992E-002    -2.0287149027353735E-007
  -7.7100000000000002E-002    -2.8166010679342435E-007
  -7.5999999999999984E-002    -3.5502949913279735E-007
  -7.4899999999999994E-002    -4.0535513790018740E-007
  -7.3799999999999991E-002    -4.7338579634015332E-007
  -7.2699999999999987E-002    -6.0896184095327044E-007
  -7.1599999999999997E-002    -8.0216472042593523E-007
  -7.0499999999999993E-002    -9.9894145932921674E-007
  -6.9399999999999989E-002    -1.1834115412057145E-006
  -6.8300000000000000E-002    -1.4076318848310621E-006
  -6.7199999999999996E-002    -1.7256323872061330E-006
  -6.6099999999999992E-002    -2.1305861537257442E-006
  -6.5000000000000002E-002    -2.5860865662252763E-006
  -6.3899999999999985E-002    -3.0978612812759820E-006
  -6.2799999999999995E-002    -3.7148961382627022E-006
  -6.1699999999999991E-002    -4.4658136175712571E-006
  -6.0599999999999994E-002    -5.3392104746308178E-006
  -5.9499999999999990E-002    -6.3407273955817800E-006
  -5.8399999999999994E-002    -7.5280340752215125E-006
  -5.7299999999999990E-002    -8.9556588136474602E-006
  -5.6199999999999986E-002    -1.0613616723276209E-005
  -5.5099999999999996E-002    -1.2469049579522107E-005
  -5.3999999999999992E-002    -1.4561904208676424E-005
  -5.2899999999999989E-002    -1.7006861526169814E-005
  -5.1799999999999985E-002    -1.9883955246768892E-005
  -5.0699999999999995E-002    -2.3173875888460316E-005
  -4.9599999999999991E-002    -2.6839132260647602E-005
  -4.8499999999999988E-002    -3.0936836992623284E-005
  -4.7399999999999998E-002    -3.5597397072706372E-005
  -4.6299999999999994E-002    -4.0901799366110936E-005
  -4.5199999999999990E-002    -4.6839311835356057E-005
  -4.4099999999999986E-002    -5.3402491175802425E-005
  -4.2999999999999997E-002    -6.0669652157230303E-005
  -4.1899999999999993E-002    -6.8749264755751938E-005
  -4.0799999999999989E-002    -7.7679142123088241E-005
  -3.9699999999999985E-002    -8.7439191702287644E-005
  -3.8599999999999995E-002    -9.8054581030737609E-005
  -3.7499999999999992E-002    -1.0961782390950248E-004
  -3.6399999999999988E-002    -1.2218939082231373E-004
  -3.5299999999999984E-002    -1.3573023898061365E-004
  -3.4199999999999994E-002    -1.5017819532658905E-004
  -3.3099999999999991E-002    -1.6554951434955001E-004
  -3.1999999999999987E-002    -1.8190081755165011E-004
  -3.0899999999999997E-002    -1.9920036720577627E-004
  -2.9799999999999993E-002    -2.1730475418735296E-004
  -2.8699999999999989E-002    -2.3608340416103601E-004
  -2.7599999999999986E-002    -2.5549568817950785E-004
  -2.6499999999999996E-002    -2.7549927472136915E-004
  -2.5399999999999992E-002    -2.9592035571113229E-004
  -2.4299999999999988E-002    -3.1648433650843799E-004
  -2.3199999999999985E-002    -3.3696257742121816E-004
  -2.2099999999999995E-002    -3.5721354652196169E-004
  -2.0999999999999991E-002    -3.7705645081587136E-004
  -1.9899999999999987E-002    -3.9616427966393530E-004
  -1.8799999999999983E-002    -4.1414375300519168E-004
  -1.7699999999999994E-002    -4.3067365186288953E-004
  -1.6599999999999990E-002    -4.4549623271450400E-004
  -1.5499999999999986E-002    -4.5828367001377046E-004
  -1.4399999999999996E-002    -4.6860132715664804E-004
  -1.3299999999999992E-002    -4.7602233826182783E-004
  -1.2199999999999989E-002    -4.8021686961874366E-004
  -1.1099999999999985E-002    -4.8088098992593586E-004
  -9.9999999999999950E-003    -4.7762622125446796E-004
  -8.8999999999999913E-003    -4.7001920756883919E-004
  -7.7999999999999875E-003    -4.5772013254463673E-004
  -6.6999999999999837E-003    -4.4053283636458218E-004
  -5.5999999999999939E-003    -4.1827023960649967E-004
  -4.4999999999999901E-003    -3.9066837052814662E-004
  -3.3999999999999864E-003    -3.5748028312809765E-004
  -2.2999999999999826E-003    -3.1863080221228302E-004
  -1.1999999999999927E-003    -2.7419769321568310E-004
  -9.9999999999988987E-005    -2.2426905343309045E-004
   1.0000000000000148E-003    -1.6890585538931191E-004
   2.1000000000000185E-003    -1.0825697972904891E-004
   3.2000000000000084E-003    -4.2663046770030633E-005
   4.3000000000000121E-003     2.7415795557317324E-005
   5.4000000000000159E-003     1.0152481263503432E-004
   6.5000000000000058E-003     1.7919651872944087E-004
   7.6000000000000234E-003     2.5982770603150129E-004
   8.7000000000000133E-003     3.4263523411937058E-004
   9.8000000000000032E-003     4.2678220779635012E-004
   1.0900000000000021E-002     5.1148002967238426E-004
   1.2000000000000011E-002     5.9593579499050975E-004
   1.3100000000000001E-002     6.7923124879598618E-004
   1.4200000000000018E-002     7.6034502126276493E-004
   1.5300000000000008E-002     8.3828502101823688E-004
   1.6400000000000026E-002     9.1215054271742702E-004
   1.7500000000000016E-002     9.8105799406766891E-004
   1.8600000000000005E-002     1.0440761689096689E-003
   1.9700000000000023E-002     1.1002910323441029E-003
   2.0800000000000013E-002     1.1489236494526267E-003
   2.1900000000000003E-002     1.1893288465216756E-003
   2.3000000000000020E-002     1.2208983534947038E-003
   2.4100000000000010E-002     1.2430441565811634E-003
   2.5200000000000000E-002     1.2553000124171376E-003
   2.6300000000000018E-002     1.2574138818308711E-003
   2.7400000000000008E-002     1.2493025278672576E-003
   2.8500000000000025E-002     1.2309420853853226E-003
   2.9600000000000015E-002     1.2023758608847857E-003
   3.0700000000000005E-002     1.1637972202152014E-003
   3.1800000000000023E-002     1.1156077962368727E-003
   3.2900000000000013E-002     1.0583420516923070E-003
   3.4000000000000002E-002     9.9260208662599325E-004
   3.5100000000000020E-002     9.1907964088022709E-004
   3.6200000000000010E-002     8.3860050654038787E-004
   3.7300000000000028E-002     7.5210747309029102E-004
   3.8400000000000017E-002     6.6057342337444425E-004
   3.9500000000000007E-002     5.6498614139854908E-004
   4.0600000000000025E-002     4.6638990170322359E-004
   4.1700000000000015E-002     3.6590793752111495E-004
   4.2800000000000005E-002     2.6468178839422762E-004
   4.3900000000000022E-002     1.6380065062548965E-004
   4.5000000000000012E-002     6.4276006014551967E-005
   4.6100000000000002E-002    -3.2907828426687047E-005
   4.7200000000000020E-002    -1.2678928032983094E-004
   4.8300000000000010E-002    -2.1645678498316556E-004
   4.9400000000000027E-002    -3.0110287480056286E-004
   5.0500000000000017E-002    -3.8002105429768562E-004
   5.1600000000000007E-002    -4.5260883052833378E-004
   5.2700000000000025E-002    -5.1836279453709722E-004
   5.3800000000000014E-002    -5.7690212270244956E-004
   5.4900000000000004E-002    -6.2794820405542850E-004
   5.6000000000000022E-002    -6.7130994284525514E-004
   5.7100000000000012E-002    -7.0690043503418565E-004
   5.8200000000000002E-002    -7.3475000681355596E-004
   5.9300000000000019E-002    -7.5499998638406396E-004
   6.0400000000000009E-002    -7.6787738362327218E-004
   6.1500000000000027E-002    -7.7368190977722406E-004
   6.2600000000000017E-002    -7.7279051765799522E-004
   6.3700000000000007E-002    -7.6564645860344172E-004
   6.4800000000000024E-002    -7.5272686081007123E-004
   6.5900000000000014E-002    -7.3453818913549185E-004
   6.7000000000000004E-002    -7.1163813117891550E-004
   6.8100000000000022E-002    -6.8463728530332446E-004
   6.9200000000000012E-002    -6.5415265271440148E-004
   7.0300000000000029E-002    -6.2075740424916148E-004
   7.1400000000000019E-002    -5.8499420993030071E-004
   7.2500000000000009E-002    -5.4742395877838135E-004
   7.3600000000000027E-002    -5.0862232455983758E-004
   7.4700000000000016E-002    -4.6911920071579516E-004
   7.5800000000000006E-002    -4.2936298996210098E-004
   7.6900000000000024E-002    -3.8976501673460007E-004
   7.8000000000000014E-002    -3.5074685001745820E-004
   7.9100000000000004E-002    -3.1270345789380372E-004
   8.0200000000000021E-002    -2.7592637343332171E-004
   8.1300000000000011E-002    -2.4061663134489208E-004
   8.2400000000000029E-002    -2.0697203581221402E-004
   8.3500000000000019E-002    -1.7522495181765407E-004
   8.4600000000000009E-002    -1.4556149835698307E-004
   8.5700000000000026E-002    -1.1804069799836725E-004
   8.6800000000000016E-002    -9.2641850642394274E-005
   8.7900000000000006E-002    -6.9377900217659771E-005
   8.9000000000000024E-002    -4.8308538680430502E-005
   9.0100000000000013E-002    -2.9437753255479038E-005
   9.1200000000000003E-002    -1.2656610124395229E-005
   9.2300000000000021E-002     2.1669511625077575E-006
   9.3400000000000011E-002     1.5096066817932297E-005
   9.4500000000000028E-002     2.6164065275224857E-005
   9.5600000000000018E-002     3.5494747862685472E-005
   9.6700000000000008E-002     4.3295145587762818E-005
   9.7800000000000026E-002     4.9723515985533595E-005
   9.8900000000000016E-002     5.4828462452860549E-005
  0.10000000000000001          5.8659334172261879E-005
  0.10110000000000002          6.1384773289319128E-005
  0.10220000000000001          6.3229228544514626E-005
  0.10330000000000003          6.4316620409954339E-005
  0.10440000000000002          6.4656756876502186E-005
  0.10550000000000001          6.4299427322112024E-005
  0.10660000000000003          6.3413019233848900E-005
  0.10770000000000002          6.2171275203581899E-005
  0.10880000000000001          6.0615842812694609E-005
  0.10990000000000003          5.8716097555588931E-005
  0.11100000000000002          5.6532997405156493E-005
  0.11210000000000001          5.4232110414886847E-005
  0.11320000000000002          5.1917366363340989E-005
  0.11430000000000001          4.9541020416654646E-005
  0.11540000000000003          4.7037105105118826E-005
  0.11650000000000002          4.4480268115876243E-005
  0.11760000000000001          4.2024570575449616E-005
  0.11870000000000003          3.9711561839794740E-005
  0.11980000000000002          3.7442128814291209E-005
  0.12090000000000001          3.5154364013578743E-005
  0.12200000000000003          3.2936870411504060E-005
  0.12310000000000001          3.0903378501534462E-005
  0.12420000000000003          2.9026228730799630E-005
  0.12530000000000002          2.7188276362721808E-005
  0.12640000000000001          2.5373894459335133E-005
  0.12750000000000003          2.3697746655670926E-005
  0.12860000000000002          2.2224819986149669E-005
  0.12970000000000001          2.0859757569269277E-005
  0.13080000000000003          1.9485380107653327E-005
  0.13190000000000002          1.8140342945116572E-005
  0.13300000000000001          1.6959649656200781E-005
  0.13410000000000000          1.5963747500791214E-005
  0.13520000000000004          1.5019179045339115E-005
  0.13630000000000003          1.4032978469913360E-005
  0.13740000000000002          1.3085405043966603E-005
  0.13850000000000001          1.2298070032557007E-005
  0.13960000000000000          1.1640782759059221E-005
  0.14070000000000005          1.0974561519105919E-005
  0.14180000000000004          1.0260399903927464E-005
  0.14290000000000003          9.6124649644480087E-006
  0.14400000000000002          9.1136516857659444E-006
  0.14510000000000001          8.6809495769557543E-006
  0.14620000000000000          8.1892985690501519E-006
  0.14730000000000004          7.6615533544099890E-006
  0.14840000000000003          7.2292650656891055E-006
  0.14950000000000002          6.9251386776159052E-006
  0.15060000000000001          6.6284314925724175E-006
  0.15170000000000000          6.2473068282997701E-006
  0.15280000000000005          5.8566629377310164E-006
  0.15390000000000004          5.5784307733119931E-006
  0.15500000000000003          5.3911921895632986E-006
  0.15610000000000002          5.1619390433188528E-006
  0.15720000000000001          4.8500583034183364E-006
  0.15830000000000000          4.5676169975195080E-006
  0.15940000000000004          4.4037192310497630E-006
  0.16050000000000003          4.2854162529692985E-006
  0.16160000000000002          4.0888489820645191E-006
  0.16270000000000001          3.8281436900433619E-006
  0.16380000000000000          3.6310589166532736E-006
  0.16490000000000005          3.5417247090663295E-006
  0.16600000000000004          3.4538052204879932E-006
  0.16710000000000003          3.2743378142185975E-006
  0.16820000000000002          3.0635812890977832E-006
  0.16930000000000001          2.9383900255197659E-006
  0.17040000000000000          2.8920028398715658E-006
  0.17150000000000004          2.8077351998945232E-006
  0.17260000000000003          2.6402469757158542E-006
  0.17370000000000002          2.4830121674312977E-006
  0.17480000000000001          2.4206929083447903E-006
  0.17590000000000000          2.3981021968211280E-006
  0.17700000000000005          2.3065729237714550E-006
  0.17810000000000004          2.1510124952328624E-006
  0.17920000000000003          2.0401121219038032E-006
  0.18030000000000002          2.0181605577818118E-006
  0.18140000000000001          1.9992473880847683E-006
  0.18250000000000000          1.9009643210665672E-006
  0.18360000000000004          1.7690390450297855E-006
  0.18470000000000003          1.7034371921909042E-006
  0.18580000000000002          1.7045866798071074E-006
  0.18690000000000001          1.6764424799475819E-006
  0.18800000000000000          1.5759205780341290E-006
  0.18910000000000005          1.4759143596165814E-006
  0.19020000000000004          1.4491957927020849E-006
  0.19130000000000003          1.4565368928742828E-006
  0.19240000000000002          1.4100893395152525E-006
  0.19350000000000001          1.3093310826661764E-006
  0.19460000000000005          1.2397165392030729E-006
  0.19570000000000004          1.2400694231473608E-006
  0.19680000000000003          1.2447341077859164E-006
  0.19790000000000002          1.1859102642119979E-006
  0.19900000000000001          1.0956011919915909E-006
  0.20010000000000000          1.0535515002629836E-006
  0.20120000000000005          1.0661467513273237E-006
  0.20230000000000004          1.0613422318783705E-006
  0.20340000000000003          1.0005178410210647E-006
  0.20450000000000002          9.3287013669396401E-007
  0.20560000000000000          9.1473253860385739E-007
  0.20670000000000005          9.2411886498666718E-007
  0.20780000000000004          9.0004829189638258E-007
  0.20890000000000003          8.3879876910941675E-007
