 -0.12000000000000000          0.0000000000000000
 -0.11889999999999999          0.0000000000000000
 -0.11780000000000000          0.0000000000000000
 -0.11670000000000000          1.2546758770826116E-011
 -0.11559999999999999          1.3697683612368117E-011
 -0.11449999999999999         -3.8519892137101053E-011
 -0.11340000000000000         -6.0436974869126914E-011
 -0.11230000000000000          8.1728186718255103E-011
 -0.11119999999999999          2.1664806060250896E-010
 -0.11009999999999999         -3.4040447544070318E-011
 -0.10900000000000000         -4.8208020908546700E-010
 -0.10790000000000000         -2.7206761843423521E-010
 -0.10679999999999999          7.1667305423517291E-010
 -0.10569999999999999          1.0246075099473728E-009
 -0.10460000000000000         -4.2161263369422386E-010
 -0.10349999999999999         -1.8818466784864540E-009
 -0.10239999999999999         -6.0493432485486665E-010
 -0.10130000000000000          2.4258617337125088E-009
 -0.10020000000000000          2.5024653460548052E-009
  -9.9099999999999994E-002    -1.8537313906108466E-009
  -9.7999999999999990E-002    -4.8300945465484801E-009
  -9.6899999999999986E-002    -6.5602351329019370E-010
  -9.5799999999999996E-002     6.4043961245374703E-009
  -9.4699999999999993E-002     5.8166027550043964E-009
  -9.3599999999999989E-002    -3.7803453700746559E-009
  -9.2499999999999999E-002    -9.8755350563806132E-009
  -9.1399999999999995E-002    -2.5647051149491062E-009
  -9.0299999999999991E-002     9.5434833369267835E-009
  -8.9200000000000002E-002     9.3253937905046769E-009
  -8.8099999999999984E-002    -4.2170507086325415E-009
  -8.6999999999999994E-002    -1.2694445494787487E-008
  -8.5899999999999990E-002    -3.9122056705309660E-009
  -8.4799999999999986E-002     9.9854098323248763E-009
  -8.3699999999999997E-002     9.7387813369209653E-009
  -8.2599999999999993E-002    -2.9503710585743192E-009
  -8.1499999999999989E-002    -8.7990672525961600E-009
  -8.0399999999999999E-002    -8.1166323662174023E-010
  -7.9299999999999995E-002     5.8460782881297746E-009
  -7.8199999999999992E-002    -3.1181196513685450E-010
  -7.7100000000000002E-002    -7.3375661102659251E-009
  -7.5999999999999984E-002     2.9655655101740175E-012
  -7.4899999999999994E-002     1.1607552252712594E-008
  -7.3799999999999991E-002     4.7745833953172223E-009
  -7.2699999999999987E-002    -1.6708392891473522E-008
  -7.1599999999999997E-002    -2.0920763788012664E-008
  -7.0499999999999993E-002     5.0177240140669710E-009
  -6.9399999999999989E-002     2.8315609412743470E-008
  -6.8300000000000000E-002     1.2551435446539472E-008
  -6.7199999999999996E-002    -2.6886841197892863E-008
  -6.6099999999999992E-002    -3.8675004532251478E-008
  -6.5000000000000002E-002    -6.8518137830153591E-009
  -6.3899999999999985E-002     2.4598476144888082E-008
  -6.2799999999999995E-002     1.2646397706816970E-008
  -6.1699999999999991E-002    -2.5252751001403340E-008
  -6.0599999999999994E-002    -3.9291016662446054E-008
  -5.9499999999999990E-002    -1.9398248340962709E-008
  -5.8399999999999994E-002    -3.7859568813303213E-009
  -5.7299999999999990E-002    -1.5916022277906450E-008
  -5.6199999999999986E-002    -3.1360642083200219E-008
  -5.5099999999999996E-002    -2.4929983410970635E-008
  -5.3999999999999992E-002    -1.7675588992460689E-008
  -5.2899999999999989E-002    -4.2294768576311981E-008
  -5.1799999999999985E-002    -8.0371343358365266E-008
  -5.0699999999999995E-002    -7.9852888745790551E-008
  -4.9599999999999991E-002    -3.7810114150715890E-008
  -4.8499999999999988E-002    -1.9385041127861768E-008
  -4.7399999999999998E-002    -6.9054493678777362E-008
  -4.6299999999999994E-002    -1.3942074872375088E-007
  -4.5199999999999990E-002    -1.5008048137588048E-007
  -4.4099999999999986E-002    -1.0023786956026015E-007
  -4.2999999999999997E-002    -7.1704810977735178E-008
  -4.1899999999999993E-002    -1.1487724549397171E-007
  -4.0799999999999989E-002    -1.8243193267153401E-007
  -3.9699999999999985E-002    -2.0372880271679605E-007
  -3.8599999999999995E-002    -1.8445119565058121E-007
  -3.7499999999999992E-002    -1.8548398372786323E-007
  -3.6399999999999988E-002    -2.2245640707296843E-007
  -3.5299999999999984E-002    -2.4792561248432321E-007
  -3.4199999999999994E-002    -2.3874721932770626E-007
  -3.3099999999999991E-002    -2.4091104933177121E-007
  -3.1999999999999987E-002    -2.9366930220930954E-007
  -3.0899999999999997E-002    -3.5287732202959887E-007
  -2.9799999999999993E-002    -3.4675491633606725E-007
  -2.8699999999999989E-002    -2.8991919975851488E-007
  -2.7599999999999986E-002    -2.7519436684997345E-007
  -2.6499999999999996E-002    -3.4240667901030974E-007
  -2.5399999999999992E-002    -4.1526922700541036E-007
  -2.4299999999999988E-002    -4.0556852809459087E-007
  -2.3199999999999985E-002    -3.3581014236006013E-007
  -2.2099999999999995E-002    -3.0296038744381804E-007
  -2.0999999999999991E-002    -3.3681956779219036E-007
  -1.9899999999999987E-002    -3.6626690302909992E-007
  -1.8799999999999983E-002    -3.3341834182465391E-007
  -1.7699999999999994E-002    -2.7649895173453842E-007
  -1.6599999999999990E-002    -2.5826886940194527E-007
  -1.5499999999999986E-002    -2.5989626806222077E-007
  -1.4399999999999996E-002    -2.1473861977483466E-007
  -1.3299999999999992E-002    -1.2114210790059587E-007
  -1.2199999999999989E-002    -5.5730026815581368E-008
  -1.1099999999999985E-002    -5.3951627165815808E-008
  -9.9999999999999950E-003    -4.5863711051197242E-008
  -8.8999999999999913E-003     4.3609752253814804E-008
  -7.7999999999999875E-003     1.8383335032012837E-007
  -6.6999999999999837E-003     2.7498933263814251E-007
  -5.5999999999999939E-003     2.9075900442876446E-007
  -4.4999999999999901E-003     3.1519485332864861E-007
  -3.3999999999999864E-003     4.1623553670433466E-007
  -2.2999999999999826E-003     5.4820321793158655E-007
  -1.1999999999999927E-003     6.2710358861295390E-007
  -9.9999999999988987E-005     6.5562142026465153E-007
   1.0000000000000148E-003     7.1111935540102422E-007
   2.1000000000000185E-003     8.1666104279065621E-007
   3.2000000000000084E-003     9.0095664972977829E-007
   4.3000000000000121E-003     9.1813046765309991E-007
   5.4000000000000159E-003     9.2169392473806511E-007
   6.5000000000000058E-003     9.8103566870122449E-007
   7.6000000000000234E-003     1.0674043551262002E-006
   8.7000000000000133E-003     1.0939944559140713E-006
   9.8000000000000032E-003     1.0425347909404081E-006
   1.0900000000000021E-002     9.9263638730917592E-007
   1.2000000000000011E-002     1.0088117505802074E-006
   1.3100000000000001E-002     1.0401162171547185E-006
   1.4200000000000018E-002     1.0001439250117983E-006
   1.5300000000000008E-002     8.9382308487984119E-007
   1.6400000000000026E-002     8.0478349673285265E-007
   1.7500000000000016E-002     7.6793980952061247E-007
   1.8600000000000005E-002     7.2235741299664369E-007
   1.9700000000000023E-002     6.1323402178459219E-007
   2.0800000000000013E-002     4.7580533646396361E-007
   2.1900000000000003E-002     3.7683764730900293E-007
   2.3000000000000020E-002     3.0877615131430503E-007
   2.4100000000000010E-002     2.0688025870185811E-007
   2.5200000000000000E-002     5.6193577790963900E-008
   2.6300000000000018E-002    -8.2202667783803918E-008
   2.7400000000000008E-002    -1.6315736672822823E-007
   2.8500000000000025E-002    -2.2918862896403880E-007
   2.9600000000000015E-002    -3.4060502684951643E-007
   3.0700000000000005E-002    -4.7950680936992285E-007
   3.1800000000000023E-002    -5.7851639212458394E-007
   3.2900000000000013E-002    -6.2002197864785558E-007
   3.4000000000000002E-002    -6.5777481950135552E-007
   3.5100000000000020E-002    -7.3831017743941629E-007
   3.6200000000000010E-002    -8.2278205582042574E-007
   3.7300000000000028E-002    -8.5490574974755873E-007
   3.8400000000000017E-002    -8.4413551348916371E-007
   3.9500000000000007E-002    -8.4713917658518767E-007
   4.0600000000000025E-002    -8.7477820898129721E-007
   4.1700000000000015E-002    -8.8145657173299696E-007
   4.2800000000000005E-002    -8.4075401218797197E-007
   4.3900000000000022E-002    -7.8779055456834612E-007
   4.5000000000000012E-002    -7.6241087754169712E-007
   4.6100000000000002E-002    -7.4266068850192823E-007
   4.7200000000000020E-002    -6.9040333983139135E-007
   4.8300000000000010E-002    -6.0683112224069191E-007
   4.9400000000000027E-002    -5.2817409823546768E-007
   5.0500000000000017E-002    -4.7475714382017031E-007
   5.1600000000000007E-002    -4.2671464939303405E-007
   5.2700000000000025E-002    -3.5676990250976814E-007
   5.3800000000000014E-002    -2.7541750569071155E-007
   5.4900000000000004E-002    -2.0862579219738109E-007
   5.6000000000000022E-002    -1.5312299694869580E-007
   5.7100000000000012E-002    -8.8387800190048438E-008
   5.8200000000000002E-002    -1.9675960416520866E-008
   5.9300000000000019E-002     2.7958357406987489E-008
   6.0400000000000009E-002     5.5496276019084689E-008
   6.1500000000000027E-002     8.9937501002168574E-008
   6.2600000000000017E-002     1.4674402848413592E-007
   6.3700000000000007E-002     1.9864803846303403E-007
   6.4800000000000024E-002     2.1712666864459607E-007
   6.5900000000000014E-002     2.1313482534424111E-007
   6.7000000000000004E-002     2.2000183719228517E-007
   6.8100000000000022E-002     2.4318896407748980E-007
   6.9200000000000012E-002     2.5501589107079781E-007
   7.0300000000000029E-002     2.4485075300617609E-007
   7.1400000000000019E-002     2.3519180558650987E-007
   7.2500000000000009E-002     2.3926037329147221E-007
   7.3600000000000027E-002     2.3454887809748470E-007
   7.4700000000000016E-002     2.0189544613913313E-007
   7.5800000000000006E-002     1.6690778181782662E-007
   7.6900000000000024E-002     1.6590101381552813E-007
   7.8000000000000014E-002     1.8539668644734775E-007
   7.9100000000000004E-002     1.7387948503255757E-007
   8.0200000000000021E-002     1.2057473952609143E-007
   8.1300000000000011E-002     7.5122500220459187E-008
   8.2400000000000029E-002     7.6127143699977751E-008
   8.3500000000000019E-002     9.0690122078740387E-008
   8.4600000000000009E-002     6.7986206886416767E-008
   8.5700000000000026E-002     2.0182829629789012E-008
   8.6800000000000016E-002     4.6245482998585885E-009
   8.7900000000000006E-002     3.0784974569542101E-008
   8.9000000000000024E-002     3.8869202967362071E-008
   9.0100000000000013E-002    -6.7246310742063997E-009
   9.1200000000000003E-002    -5.4581338559955839E-008
   9.2300000000000021E-002    -4.1000475903274491E-008
   9.3400000000000011E-002     9.2387191230614008E-009
   9.4500000000000028E-002     1.3643357554826707E-008
   9.5600000000000018E-002    -4.2989086068700999E-008
   9.6700000000000008E-002    -8.3341674894654716E-008
   9.7800000000000026E-002    -5.4232256019304259E-008
   9.8900000000000016E-002    -6.2642064868612124E-009
  0.10000000000000001         -1.3527463593732136E-008
  0.10110000000000002         -5.7440196599145565E-008
  0.10220000000000001         -5.9740990820955631E-008
  0.10330000000000003         -1.1967371094101509E-008
  0.10440000000000002          7.5669035481951141E-009
  0.10550000000000001         -3.9905888371549736E-008
  0.10660000000000003         -8.3142815299197537E-008
  0.10770000000000002         -4.5529198189342424E-008
  0.10880000000000001          2.9454927386041163E-008
  0.10990000000000003          3.4220558831066228E-008
  0.11100000000000002         -4.0073540930052332E-008
  0.11210000000000001         -8.4799324895357131E-008
  0.11320000000000002         -3.2770376634516651E-008
  0.11430000000000001          4.0527027067582821E-008
  0.11540000000000003          3.0626633673591641E-008
  0.11650000000000002         -3.8761754694860429E-008
  0.11760000000000001         -5.6219210620156446E-008
  0.11870000000000003          4.4182297820327676E-009
  0.11980000000000002          4.5445176510838792E-008
  0.12090000000000001          1.8410759583531444E-009
  0.12200000000000003         -5.5486228944801042E-008
  0.12310000000000001         -3.0401640316313205E-008
  0.12420000000000003          4.4553786437973031E-008
  0.12530000000000002          5.4020194539816657E-008
  0.12640000000000001         -2.0107993492501919E-008
  0.12750000000000003         -6.6681309363048058E-008
  0.12860000000000002         -1.4046233509645845E-008
  0.12970000000000001          5.8064376418087704E-008
  0.13080000000000003          4.0707448079047026E-008
  0.13190000000000002         -3.6781774070959727E-008
  0.13300000000000001         -5.2300201502930577E-008
  0.13410000000000000          1.8200740470319943E-008
  0.13520000000000004          6.2773189313247713E-008
  0.13630000000000003          8.1410407304360888E-009
  0.13740000000000002         -6.3075390244193841E-008
  0.13850000000000001         -3.7402507757633430E-008
  0.13960000000000000          5.1841777093386554E-008
  0.14070000000000005          7.0798115814341145E-008
  0.14180000000000004         -1.1677321332115298E-008
  0.14290000000000003         -7.5369584351392405E-008
  0.14400000000000002         -2.8637293425504140E-008
  0.14510000000000001          5.5457139325199023E-008
  0.14620000000000000          5.2939501671289690E-008
  0.14730000000000004         -2.4687288657787576E-008
  0.14840000000000003         -5.4979111041575379E-008
  0.14950000000000002          3.5405141041167099E-009
  0.15060000000000001          5.1976886794591337E-008
  0.15170000000000000          1.0853548282341308E-008
  0.15280000000000005         -5.3580301084821258E-008
  0.15390000000000004         -3.4889811928451309E-008
  0.15500000000000003          4.3305806940452385E-008
  0.15610000000000002          6.0448861916029273E-008
  0.15720000000000001         -1.3731736636657388E-008
  0.15830000000000000         -6.8613147163887334E-008
  0.15940000000000004         -2.0237754583263268E-008
  0.16050000000000003          5.9578177058483561E-008
  0.16160000000000002          5.1607010220777738E-008
  0.16270000000000001         -3.0584594412630395E-008
  0.16380000000000000         -6.3269069983107329E-008
  0.16490000000000005         -1.0899826596855178E-009
  0.16600000000000004          5.7505037176497353E-008
  0.16710000000000003          2.4194852343839557E-008
  0.16820000000000002         -4.5323560016186093E-008
  0.16930000000000001         -4.1020932428637025E-008
  0.17040000000000000          3.0572429920994182E-008
  0.17150000000000004          5.8218731169290550E-008
  0.17260000000000003         -1.8036581117542028E-009
  0.17370000000000002         -5.9285213183102314E-008
  0.17480000000000001         -2.9087541264516403E-008
  0.17590000000000000          4.0484181340616487E-008
  0.17700000000000005          4.5046522956226909E-008
  0.17810000000000004         -1.6838049177181347E-008
  0.17920000000000003         -4.6966906808165731E-008
  0.18030000000000002         -1.7092214310565623E-009
  0.18140000000000001          4.4131191145879711E-008
  0.18250000000000000          1.7564955712146002E-008
  0.18360000000000004         -3.8518958689337524E-008
  0.18470000000000003         -3.4549941574368859E-008
  0.18580000000000002          2.4678417531731611E-008
  0.18690000000000001          4.7008235526391218E-008
  0.18800000000000000         -4.1430547881304847E-009
  0.18910000000000005         -5.2619729018488215E-008
  0.19020000000000004         -2.5208136023024963E-008
  0.19130000000000003          3.7923133078265892E-008
  0.19240000000000002          4.5126576253551320E-008
  0.19350000000000001         -9.8305248386054700E-009
  0.19460000000000005         -4.3244799741160023E-008
  0.19570000000000004         -9.7872439042134829E-009
  0.19680000000000003          3.3815837241490954E-008
  0.19790000000000002          2.1000865046971740E-008
  0.19900000000000001         -2.4157067457508674E-008
  0.20010000000000000         -2.9484413133218368E-008
  0.20120000000000005          1.2287529216337134E-008
  0.20230000000000004          3.5218970850792175E-008
  0.20340000000000003          4.4202717042196582E-009
  0.20450000000000002         -3.1691371304987115E-008
  0.20560000000000000         -1.8121621536693056E-008
  0.20670000000000005          2.3027808992992504E-008
  0.20780000000000004          2.8947724217687210E-008
  0.20890000000000003         -7.6995858577788567E-009
