 -0.12000000000000000          0.0000000000000000
 -0.11889999999999999          0.0000000000000000
 -0.11780000000000000          0.0000000000000000
 -0.11670000000000000          0.0000000000000000
 -0.11559999999999999          0.0000000000000000
 -0.11449999999999999          0.0000000000000000
 -0.11340000000000000          0.0000000000000000
 -0.11230000000000000          0.0000000000000000
 -0.11119999999999999          0.0000000000000000
 -0.11009999999999999          0.0000000000000000
 -0.10900000000000000          0.0000000000000000
 -0.10790000000000000          0.0000000000000000
 -0.10679999999999999          0.0000000000000000
 -0.10569999999999999          0.0000000000000000
 -0.10460000000000000          0.0000000000000000
 -0.10349999999999999          0.0000000000000000
 -0.10239999999999999          1.2766613737139105E-039
 -0.10130000000000000         -1.9186280096962494E-038
 -0.10020000000000000          7.7817612575311761E-038
  -9.9099999999999994E-002     2.3086024499034322E-037
  -9.7999999999999990E-002    -2.3180827160612614E-036
  -9.6899999999999986E-002     1.2028741533609144E-037
  -9.5799999999999996E-002     3.4851309634765465E-035
  -9.4699999999999993E-002    -3.1063081068952053E-035
  -9.3599999999999989E-002    -3.9044586691989612E-034
  -9.2499999999999999E-002     4.4235946270755081E-034
  -9.1399999999999995E-002     3.7066349085700707E-033
  -9.0299999999999991E-002    -3.6973999310764231E-033
  -8.9200000000000002E-002    -3.1138419236580223E-032
  -8.8099999999999984E-002     1.8877033089088766E-032
  -8.6999999999999994E-002     2.3176232348919650E-031
  -8.5899999999999990E-002    -1.5813671300958869E-032
  -8.4799999999999986E-002    -1.4998312037678372E-030
  -8.3699999999999997E-002    -8.3818022832275590E-031
  -8.2599999999999993E-002     8.1725558252218659E-030
  -8.1499999999999989E-002     1.0656439711560236E-029
  -8.0399999999999999E-002    -3.5342776520636622E-029
  -7.9299999999999995E-002    -8.3639929607674033E-029
  -7.8199999999999992E-002     1.0256866123218555E-028
  -7.7100000000000002E-002     4.8924985785901990E-028
  -7.5999999999999984E-002    -1.8458112587007268E-029
  -7.4899999999999994E-002    -2.1878808761341936E-027
  -7.3799999999999991E-002    -2.0646985894841805E-027
  -7.2699999999999987E-002     7.0269934470379563E-027
  -7.1599999999999997E-002     1.5547776677541540E-026
  -7.0499999999999993E-002    -1.1227678537711822E-026
  -6.9399999999999989E-002    -7.1161274878313397E-026
  -6.8300000000000000E-002    -3.5715742195127441E-026
  -6.7199999999999996E-002     2.1690043668223479E-025
  -6.6099999999999992E-002     3.6787554564802003E-025
  -6.5000000000000002E-002    -3.2414864054497332E-025
  -6.3899999999999985E-002    -1.5971674289709479E-024
  -6.2799999999999995E-002    -8.0030067024568746E-025
  -6.1699999999999991E-002     4.1233262533531998E-024
  -6.0599999999999994E-002     7.3580716944563997E-024
  -5.9499999999999990E-002    -3.6587388505673158E-024
  -5.8399999999999994E-002    -2.6110456614812336E-023
  -5.7299999999999990E-002    -2.1189883075954719E-023
  -5.6199999999999986E-002     4.7535893557066049E-023
  -5.5099999999999996E-002     1.1690393549556880E-022
  -5.3999999999999992E-002     1.7467314728532803E-023
  -5.2899999999999989E-002    -2.8513133818965939E-022
  -5.1799999999999985E-002    -4.0361458583925514E-022
  -5.0699999999999995E-002     2.0385917693209260E-022
  -4.9599999999999991E-002     1.2484834288841573E-021
  -4.8499999999999988E-002     1.1123673855762188E-021
  -4.7399999999999998E-002    -1.4838032874842267E-021
  -4.6299999999999994E-002    -4.4647255316102232E-021
  -4.5199999999999990E-002    -2.5258511323416141E-021
  -4.4099999999999986E-002     6.3875165590125394E-021
  -4.2999999999999997E-002     1.3827068724492582E-020
  -4.1899999999999993E-002     5.2616243867191343E-021
  -4.0799999999999989E-002    -2.0818924327609287E-020
  -3.9699999999999985E-002    -3.8786770341249962E-020
  -3.8599999999999995E-002    -1.3625527460713744E-020
  -3.7499999999999992E-002     5.3746570826167283E-020
  -3.6399999999999988E-002     1.0212784140416249E-019
  -3.5299999999999984E-002     5.2514433604981264E-020
  -3.4199999999999994E-002    -1.0379747315885810E-019
  -3.3099999999999991E-002    -2.5564665650744292E-019
  -3.1999999999999987E-002    -2.2517937149921867E-019
  -3.0899999999999997E-002     9.4254878505550556E-020
  -2.9799999999999993E-002     5.8873241099845175E-019
  -2.8699999999999989E-002     8.5428763141912010E-019
  -2.7599999999999986E-002     3.4697799438489551E-019
  -2.6499999999999996E-002    -1.1131513225757525E-018
  -2.5399999999999992E-002    -2.6784956094594903E-018
  -2.4299999999999988E-002    -2.4453191850450797E-018
  -2.3199999999999985E-002     1.0944699654291252E-018
  -2.2099999999999995E-002     6.6298923142819194E-018
  -2.0999999999999991E-002     9.1416824925808415E-018
  -1.9899999999999987E-002     3.0897547139746766E-018
  -1.8799999999999983E-002    -1.1339908352995612E-017
  -1.7699999999999994E-002    -2.4515188210181034E-017
  -1.6599999999999990E-002    -2.1833060037061517E-017
  -1.5499999999999986E-002     4.4463327797180202E-018
  -1.4399999999999996E-002     4.4554793293413253E-017
  -1.3299999999999992E-002     7.1257315049702959E-017
  -1.2199999999999989E-002     5.3101220073588685E-017
  -1.1099999999999985E-002    -2.4462736687539046E-017
  -9.9999999999999950E-003    -1.3876203591505295E-016
  -8.8999999999999913E-003    -2.2124501905771305E-016
  -7.7999999999999875E-003    -1.7593313712813206E-016
  -6.6999999999999837E-003     6.2253851128757278E-017
  -5.5999999999999939E-003     4.4271407832997486E-016
  -4.4999999999999901E-003     7.4575999401468168E-016
  -3.3999999999999864E-003     6.4074368454379105E-016
  -2.2999999999999826E-003    -1.0890692370353174E-016
  -1.1999999999999927E-003    -1.3684635708478506E-015
  -9.9999999999988987E-005    -2.4684856718101052E-015
   1.0000000000000148E-003    -2.3659131582711617E-015
   2.1000000000000185E-003    -2.2081112643048203E-016
   3.2000000000000084E-003     3.7787478089071000E-015
   4.3000000000000121E-003     7.8174618877878063E-015
   5.4000000000000159E-003     8.7108936058268027E-015
   6.5000000000000058E-003     3.4190347273065904E-015
   7.6000000000000234E-003    -8.5064537336775048E-015
   8.7000000000000133E-003    -2.2798513497532778E-014
   9.8000000000000032E-003    -3.0460924310259790E-014
   1.0900000000000021E-002    -2.1164021124270467E-014
   1.2000000000000011E-002     1.0285394870599828E-014
   1.3100000000000001E-002     5.6970622880694877E-014
   1.4200000000000018E-002     9.6729631140872463E-014
   1.5300000000000008E-002     9.7258654038409609E-014
   1.6400000000000026E-002     3.1205218937275722E-014
   1.7500000000000016E-002    -1.0240776732476850E-013
   1.8600000000000005E-002    -2.6050239439537326E-013
   1.9700000000000023E-002    -3.5581089398613319E-013
   2.0800000000000013E-002    -2.8496489564745764E-013
   2.1900000000000003E-002     1.6266056494904264E-014
   2.3000000000000020E-002     5.0909883947403145E-013
   2.4100000000000010E-002     1.0130897856730492E-012
   2.5200000000000000E-002     1.2298689627474046E-012
   2.6300000000000018E-002     8.4987469535849347E-013
   2.7400000000000008E-002    -2.7420164121043367E-013
   2.8500000000000025E-002    -1.9502132114074255E-012
   2.9600000000000015E-002    -3.5632462692253286E-012
   3.0700000000000005E-002    -4.1808505442386679E-012
   3.1800000000000023E-002    -2.8850723893247832E-012
   3.2900000000000013E-002     7.3309929090811798E-013
   3.4000000000000002E-002     6.0950918791269348E-012
   3.5100000000000020E-002     1.1422332697741400E-011
   3.6200000000000010E-002     1.4019354253880234E-011
   3.7300000000000028E-002     1.1140592788561055E-011
   3.8400000000000017E-002     1.2862322968862361E-012
   3.9500000000000007E-002    -1.4497666955826105E-011
   4.0600000000000025E-002    -3.1919741155794767E-011
   4.1700000000000015E-002    -4.3917307290808338E-011
   4.2800000000000005E-002    -4.2567949165572827E-011
   4.3900000000000022E-002    -2.2160853013764026E-011
   4.5000000000000012E-002     1.7460189544182825E-011
   4.6100000000000002E-002     6.8601374580978813E-011
   4.7200000000000020E-002     1.1579949499296305E-010
   4.8300000000000010E-002     1.3905940288161389E-010
   4.9400000000000027E-002     1.1998915749877881E-010
   5.0500000000000017E-002     4.9327313067504264E-011
   5.1600000000000007E-002    -6.6642344420664301E-011
   5.2700000000000025E-002    -2.0359315622275886E-010
   5.3800000000000014E-002    -3.2269012462116109E-010
   5.4900000000000004E-002    -3.8061065410488482E-010
   5.6000000000000022E-002    -3.4424385564335580E-010
   5.7100000000000012E-002    -2.0606223671837398E-010
   5.8200000000000002E-002     5.1641043871675230E-012
   5.9300000000000019E-002     2.2340371219620181E-010
   6.0400000000000009E-002     3.5714356472205111E-010
   6.1500000000000027E-002     3.1334806971372586E-010
   6.2600000000000017E-002     2.8927112441512470E-011
   6.3700000000000007E-002    -4.9822612702143942E-010
   6.4800000000000024E-002    -1.1879337513676091E-009
   6.5900000000000014E-002    -1.8741044272019280E-009
   6.7000000000000004E-002    -2.3228428069899110E-009
   6.8100000000000022E-002    -2.2705515245746710E-009
   6.9200000000000012E-002    -1.4743218867963037E-009
   7.0300000000000029E-002     2.3801224879882454E-010
   7.1400000000000019E-002     2.9322184680324881E-009
   7.2500000000000009E-002     6.5584511155236669E-009
   7.3600000000000027E-002     1.0974797071128251E-008
   7.4700000000000016E-002     1.6001113323227401E-008
   7.5800000000000006E-002     2.1492533974765138E-008
   7.6900000000000024E-002     2.7415765657679003E-008
   7.8000000000000014E-002     3.3909763885731081E-008
   7.9100000000000004E-002     4.1316681631542451E-008
   8.0200000000000021E-002     5.0177099808479397E-008
   8.1300000000000011E-002     6.1191997247078689E-008
   8.2400000000000029E-002     7.5166177282426361E-008
   8.3500000000000019E-002     9.2952127772605309E-008
   8.4600000000000009E-002     1.1541647637614005E-007
   8.5700000000000026E-002     1.4344071530558722E-007
   8.6800000000000016E-002     1.7796413942505751E-007
   8.7900000000000006E-002     2.2005977484695904E-007
   8.9000000000000024E-002     2.7102848321192141E-007
   9.0100000000000013E-002     3.3248593922508007E-007
   9.1200000000000003E-002     4.0642677845426078E-007
   9.2300000000000021E-002     4.9525749545864528E-007
   9.3400000000000011E-002     6.0180207128723850E-007
   9.4500000000000028E-002     7.2929827865664265E-007
   9.5600000000000018E-002     8.8139665876951767E-007
   9.6700000000000008E-002     1.0621886303852079E-006
   9.7800000000000026E-002     1.2762536698573967E-006
   9.8900000000000016E-002     1.5287423593690619E-006
  0.10000000000000001          1.8254862652611337E-006
  0.10110000000000002          2.1730936623498565E-006
  0.10220000000000001          2.5790357085497817E-006
  0.10330000000000003          3.0516748665831983E-006
  0.10440000000000002          3.6002797969558742E-006
  0.10550000000000001          4.2349997784185689E-006
  0.10660000000000003          4.9668219617160503E-006
  0.10770000000000002          5.8076002460438758E-006
  0.10880000000000001          6.7699952523980755E-006
  0.10990000000000003          7.8675357144675218E-006
  0.11100000000000002          9.1145129772485234E-006
  0.11210000000000001          1.0525979632802773E-005
  0.11320000000000002          1.2117763617425226E-005
  0.11430000000000001          1.3906179447076283E-005
  0.11540000000000003          1.5907948181848042E-005
  0.11650000000000002          1.8139917301596142E-005
  0.11760000000000001          2.0618650523829274E-005
  0.11870000000000003          2.3360284103546292E-005
  0.11980000000000002          2.6380070266895927E-005
  0.12090000000000001          2.9691862437175587E-005
  0.12200000000000003          3.3307962439721450E-005
  0.12310000000000001          3.7238238292047754E-005
  0.12420000000000003          4.1489802242722362E-005
  0.12530000000000002          4.6066415961831808E-005
  0.12640000000000001          5.0967737479368225E-005
  0.12750000000000003          5.6188910093624145E-005
  0.12860000000000002          6.1719838413409889E-005
  0.12970000000000001          6.7544438934419304E-005
  0.13080000000000003          7.3639894253574312E-005
  0.13190000000000002          7.9976212873589247E-005
  0.13300000000000001          8.6515858129132539E-005
  0.13410000000000000          9.3213529908098280E-005
  0.13520000000000004          1.0001465125242248E-004
  0.13630000000000003          1.0685486631700769E-004
  0.13740000000000002          1.1366090620867908E-004
  0.13850000000000001          1.2035091640427709E-004
  0.13960000000000000          1.2683335808105767E-004
  0.14070000000000005          1.3300807040650398E-004
  0.14180000000000004          1.3876656885258853E-004
  0.14290000000000003          1.4399270003195852E-004
  0.14400000000000002          1.4856296184007078E-004
  0.14510000000000001          1.5235051978379488E-004
  0.14620000000000000          1.5522392641287297E-004
  0.14730000000000004          1.5704944962635636E-004
  0.14840000000000003          1.5769268793519586E-004
  0.14950000000000002          1.5702260134276003E-004
  0.15060000000000001          1.5491143858525902E-004
  0.15170000000000000          1.5123895718716085E-004
  0.15280000000000005          1.4589350030291826E-004
  0.15390000000000004          1.3877547462470829E-004
  0.15500000000000003          1.2980282190255821E-004
  0.15610000000000002          1.1891016038134694E-004
  0.15720000000000001          1.0605063289403915E-004
  0.15830000000000000          9.1201574832666665E-005
  0.15940000000000004          7.4365663749631494E-005
  0.16050000000000003          5.5574124417034909E-005
  0.16160000000000002          3.4886736102635041E-005
  0.16270000000000001          1.2391230484354310E-005
  0.16380000000000000         -1.1792115401476622E-005
  0.16490000000000005         -3.7511887057917193E-005
  0.16600000000000004         -6.4585707150399685E-005
  0.16710000000000003         -9.2801499704364687E-005
  0.16820000000000002         -1.2191718269605190E-004
  0.16930000000000001         -1.5166398952715099E-004
  0.17040000000000000         -1.8174995784647763E-004
  0.17150000000000004         -2.1186265803407878E-004
  0.17260000000000003         -2.4167360970750451E-004
  0.17370000000000002         -2.7084225439466536E-004
  0.17480000000000001         -2.9901953530497849E-004
  0.17590000000000000         -3.2585280132479966E-004
  0.17700000000000005         -3.5099321394227445E-004
  0.17810000000000004         -3.7410104414448142E-004
  0.17920000000000003         -3.9485120214521885E-004
  0.18030000000000002         -4.1293833055533469E-004
  0.18140000000000001         -4.2808221769519150E-004
  0.18250000000000000         -4.4003341463394463E-004
  0.18360000000000004         -4.4857786269858479E-004
  0.18470000000000003         -4.5354041503742337E-004
  0.18580000000000002         -4.5479193795472383E-004
  0.18690000000000001         -4.5224931091070175E-004
  0.18800000000000000         -4.4587670709006488E-004
  0.18910000000000005         -4.3568661203607917E-004
  0.19020000000000004         -4.2174279224127531E-004
  0.19130000000000003         -4.0416070260107517E-004
  0.19240000000000002         -3.8310454692691565E-004
  0.19350000000000001         -3.5878419294022024E-004
  0.19460000000000005         -3.3145453198812902E-004
  0.19570000000000004         -3.0140712624415755E-004
  0.19680000000000003         -2.6896869530901313E-004
  0.19790000000000002         -2.3449728905688971E-004
  0.19900000000000001         -1.9837664149235934E-004
  0.20010000000000000         -1.6100924403872341E-004
  0.20120000000000005         -1.2280663941055536E-004
  0.20230000000000004         -8.4186125604901463E-005
  0.20340000000000003         -4.5562763261841610E-005
  0.20450000000000002         -7.3476676334394142E-006
  0.20560000000000000          3.0063261874602176E-005
  0.20670000000000005          6.6292552219238132E-005
  0.20780000000000004          1.0098785423906520E-004
  0.20890000000000003          1.3382706674747169E-004
