 -0.12000000000000000          0.0000000000000000
 -0.11889999999999999          0.0000000000000000
 -0.11780000000000000         -2.8803398555155013E-010
 -0.11670000000000000         -3.7413230846716772E-010
 -0.11559999999999999          3.5014202648397941E-010
 -0.11449999999999999          9.4072993839233732E-010
 -0.11340000000000000          9.4344476675445321E-011
 -0.11230000000000000         -1.0913584480576333E-009
 -0.11119999999999999         -5.3994969606563359E-010
 -0.11009999999999999          4.0800357536951992E-010
 -0.10900000000000000         -1.7057483203686274E-009
 -0.10790000000000000         -5.1608437523498196E-009
 -0.10679999999999999         -2.5409638837459170E-009
 -0.10569999999999999          7.8289543736786982E-009
 -0.10460000000000000          1.4875272569270237E-008
 -0.10349999999999999          7.4609056710528421E-009
 -0.10239999999999999         -7.8668955794114481E-009
 -0.10130000000000000         -1.2319264719451439E-008
 -0.10020000000000000         -5.1224563479834728E-010
  -9.9099999999999994E-002     1.0257084070985911E-008
  -9.7999999999999990E-002     3.9317256117499255E-009
  -9.6899999999999986E-002    -1.0295743813060199E-008
  -9.5799999999999996E-002    -1.0654835236323379E-008
  -9.4699999999999993E-002     4.9943418289899455E-009
  -9.3599999999999989E-002     1.5762239513605891E-008
  -9.2499999999999999E-002     8.8267837483613221E-009
  -9.1399999999999995E-002    -2.6692648091852789E-009
  -9.0299999999999991E-002    -2.5359971900229539E-009
  -8.9200000000000002E-002     1.5046889290104559E-009
  -8.8099999999999984E-002    -9.5546361933429580E-009
  -8.6999999999999994E-002    -3.3973414304000471E-008
  -8.5899999999999990E-002    -5.0856943545340982E-008
  -8.4799999999999986E-002    -5.4565155949148902E-008
  -8.3699999999999997E-002    -6.5483412470257463E-008
  -8.2599999999999993E-002    -9.6674106941918581E-008
  -8.1499999999999989E-002    -1.2998607701319997E-007
  -8.0399999999999999E-002    -1.4490586863757926E-007
  -7.9299999999999995E-002    -1.5748177872865199E-007
  -7.8199999999999992E-002    -2.0287141921926377E-007
  -7.7100000000000002E-002    -2.8166093102299783E-007
  -7.5999999999999984E-002    -3.5502969808476337E-007
  -7.4899999999999994E-002    -4.0535363154958759E-007
  -7.3799999999999991E-002    -4.7338656372630794E-007
  -7.2699999999999987E-002    -6.0896371678609285E-007
  -7.1599999999999997E-002    -8.0216574360747472E-007
  -7.0499999999999993E-002    -9.9893918559246231E-007
  -6.9399999999999989E-002    -1.1834086990347714E-006
  -6.8300000000000000E-002    -1.4076324532652507E-006
  -6.7199999999999996E-002    -1.7256346609428874E-006
  -6.6099999999999992E-002    -2.1305852442310425E-006
  -6.5000000000000002E-002    -2.5860908863251098E-006
  -6.3899999999999985E-002    -3.0978624181443593E-006
  -6.2799999999999995E-002    -3.7148890896787634E-006
  -6.1699999999999991E-002    -4.4658145270659588E-006
  -6.0599999999999994E-002    -5.3392045629152562E-006
  -5.9499999999999990E-002    -6.3407287598238327E-006
  -5.8399999999999994E-002    -7.5280368037056178E-006
  -5.7299999999999990E-002    -8.9556579041527584E-006
  -5.6199999999999986E-002    -1.0613619451760314E-005
  -5.5099999999999996E-002    -1.2469081411836669E-005
  -5.3999999999999992E-002    -1.4561925127054565E-005
  -5.2899999999999989E-002    -1.7006857888191007E-005
  -5.1799999999999985E-002    -1.9883884306182154E-005
  -5.0699999999999995E-002    -2.3173846784629859E-005
  -4.9599999999999991E-002    -2.6839201382244937E-005
  -4.8499999999999988E-002    -3.0936895200284198E-005
  -4.7399999999999998E-002    -3.5597378882812336E-005
  -4.6299999999999994E-002    -4.0901712054619566E-005
  -4.5199999999999990E-002    -4.6839286369504407E-005
  -4.4099999999999986E-002    -5.3402636694954708E-005
  -4.2999999999999997E-002    -6.0669797676382586E-005
  -4.1899999999999993E-002    -6.8749170168302953E-005
  -4.0799999999999989E-002    -7.7678865636698902E-005
  -3.9699999999999985E-002    -8.7439133494626731E-005
  -3.8599999999999995E-002    -9.8054930276703089E-005
  -3.7499999999999992E-002    -1.0961802763631567E-004
  -3.6399999999999988E-002    -1.2218889605719596E-004
  -3.5299999999999984E-002    -1.3572967145591974E-004
  -3.4199999999999994E-002    -1.5017841360531747E-004
  -3.3099999999999991E-002    -1.6555027104914188E-004
  -3.1999999999999987E-002    -1.8190150149166584E-004
  -3.0899999999999997E-002    -1.9920010527130216E-004
  -2.9799999999999993E-002    -2.1730407024733722E-004
  -2.8699999999999989E-002    -2.3608272022102028E-004
  -2.7599999999999986E-002    -2.5549554266035557E-004
  -2.6499999999999996E-002    -2.7549962396733463E-004
  -2.5399999999999992E-002    -2.9592041391879320E-004
  -2.4299999999999988E-002    -3.1648456933908165E-004
  -2.3199999999999985E-002    -3.3696330501697958E-004
  -2.2099999999999995E-002    -3.5721485619433224E-004
  -2.0999999999999991E-002    -3.7705604336224496E-004
  -1.9899999999999987E-002    -3.9616250433027744E-004
  -1.8799999999999983E-002    -4.1414203587919474E-004
  -1.7699999999999994E-002    -4.3067397200502455E-004
  -1.6599999999999990E-002    -4.4549829908646643E-004
  -1.5499999999999986E-002    -4.5828463044017553E-004
  -1.4399999999999996E-002    -4.6860045404173434E-004
  -1.3299999999999992E-002    -4.7602161066606641E-004
  -1.2199999999999989E-002    -4.8021695693023503E-004
  -1.1099999999999985E-002    -4.8088256153278053E-004
  -9.9999999999999950E-003    -4.7762726899236441E-004
  -8.8999999999999913E-003    -4.7001798520796001E-004
  -7.7999999999999875E-003    -4.5771914301440120E-004
  -6.6999999999999837E-003    -4.4053231249563396E-004
  -5.5999999999999939E-003    -4.1826814413070679E-004
  -4.4999999999999901E-003    -3.9066505269147456E-004
  -3.3999999999999864E-003    -3.5748045775108039E-004
  -2.2999999999999826E-003    -3.1863426556810737E-004
  -1.1999999999999927E-003    -2.7420083642937243E-004
  -9.9999999999988987E-005    -2.2426898067351431E-004
   1.0000000000000148E-003    -1.6890550614334643E-004
   2.1000000000000185E-003    -1.0825846402440220E-004
   3.2000000000000084E-003    -4.2664581997087225E-005
   4.3000000000000121E-003     2.7416519515099935E-005
   5.4000000000000159E-003     1.0152725735679269E-004
   6.5000000000000058E-003     1.7919830861501396E-004
   7.6000000000000234E-003     2.5982692022807896E-004
   8.7000000000000133E-003     3.4263369161635637E-004
   9.8000000000000032E-003     4.2678273166529834E-004
   1.0900000000000021E-002     5.1148165948688984E-004
   1.2000000000000011E-002     5.9593544574454427E-004
   1.3100000000000001E-002     6.7922839662060142E-004
   1.4200000000000018E-002     7.6034298399463296E-004
   1.5300000000000008E-002     8.3828595234081149E-004
   1.6400000000000026E-002     9.1215275460854173E-004
   1.7500000000000016E-002     9.8105939105153084E-004
   1.8600000000000005E-002     1.0440762853249907E-003
   1.9700000000000023E-002     1.1002917308360338E-003
   2.0800000000000013E-002     1.1489255120977759E-003
   2.1900000000000003E-002     1.1893289629369974E-003
   2.3000000000000020E-002     1.2208960251882672E-003
   2.4100000000000010E-002     1.2430406641215086E-003
   2.5200000000000000E-002     1.2552990810945630E-003
   2.6300000000000018E-002     1.2574153952300549E-003
   2.7400000000000008E-002     1.2493038084357977E-003
   2.8500000000000025E-002     1.2309427838772535E-003
   2.9600000000000015E-002     1.2023751623928547E-003
   3.0700000000000005E-002     1.1637971037998796E-003
   3.1800000000000023E-002     1.1156062828376889E-003
   3.2900000000000013E-002     1.0583411203697324E-003
   3.4000000000000002E-002     9.9260255228728056E-004
   3.5100000000000020E-002     9.1908336617052555E-004
   3.6200000000000010E-002     8.3860446466132998E-004
   3.7300000000000028E-002     7.5210741488263011E-004
   3.8400000000000017E-002     6.6056812647730112E-004
   3.9500000000000007E-002     5.6498113553971052E-004
   4.0600000000000025E-002     4.6638972708024085E-004
   4.1700000000000015E-002     3.6590796662494540E-004
   4.2800000000000005E-002     2.6467998395673931E-004
   4.3900000000000022E-002     1.6380003944505006E-004
   4.5000000000000012E-002     6.4279207435902208E-005
   4.6100000000000002E-002    -3.2904583349591121E-005
   4.7200000000000020E-002    -1.2678938219323754E-004
   4.8300000000000010E-002    -2.1645917149726301E-004
   4.9400000000000027E-002    -3.0109853832982481E-004
   5.0500000000000017E-002    -3.8001532084308565E-004
   5.1600000000000007E-002    -4.5260787010192871E-004
   5.2700000000000025E-002    -5.1836832426488400E-004
   5.3800000000000014E-002    -5.7690846733748913E-004
   5.4900000000000004E-002    -6.2794977566227317E-004
   5.6000000000000022E-002    -6.7131005926057696E-004
   5.7100000000000012E-002    -7.0690095890313387E-004
   5.8200000000000002E-002    -7.3474866803735495E-004
   5.9300000000000019E-002    -7.5499439844861627E-004
   6.0400000000000009E-002    -7.6787162106484175E-004
   6.1500000000000027E-002    -7.7368272468447685E-004
   6.2600000000000017E-002    -7.7279761899262667E-004
   6.3700000000000007E-002    -7.6564966002479196E-004
   6.4800000000000024E-002    -7.5272063259035349E-004
   6.5900000000000014E-002    -7.3452992364764214E-004
   6.7000000000000004E-002    -7.1163970278576016E-004
   6.8100000000000022E-002    -6.8464979995042086E-004
   6.9200000000000012E-002    -6.5416330471634865E-004
   7.0300000000000029E-002    -6.2075530877336860E-004
   7.1400000000000019E-002    -5.8498291764408350E-004
   7.2500000000000009E-002    -5.4741464555263519E-004
   7.3600000000000027E-002    -5.0862116040661931E-004
   7.4700000000000016E-002    -4.6912257676012814E-004
   7.5800000000000006E-002    -4.2936686077155173E-004
   7.6900000000000024E-002    -3.8976935320533812E-004
   7.8000000000000014E-002    -3.5075042978860438E-004
   7.9100000000000004E-002    -3.1270078034140170E-004
   8.0200000000000021E-002    -2.7591848629526794E-004
   8.1300000000000011E-002    -2.4061325530055910E-004
   8.2400000000000029E-002    -2.0698034495580941E-004
   8.3500000000000019E-002    -1.7523847054690123E-004
   8.4600000000000009E-002    -1.4556413225363940E-004
   8.5700000000000026E-002    -1.1802753579104319E-004
   8.6800000000000016E-002    -9.2625967226922512E-005
   8.7900000000000006E-002    -6.9375637394841760E-005
   8.9000000000000024E-002    -4.8320198402507231E-005
   9.0100000000000013E-002    -2.9448603527271189E-005
   9.1200000000000003E-002    -1.2656101716856938E-005
   9.2300000000000021E-002     2.1748110157204792E-006
   9.3400000000000011E-002     1.5099957636266481E-005
   9.4500000000000028E-002     2.6162910216953605E-005
   9.5600000000000018E-002     3.5493449104251340E-005
   9.6700000000000008E-002     4.3295276554999873E-005
   9.7800000000000026E-002     4.9721387767931446E-005
   9.8900000000000016E-002     5.4824286053190008E-005
  0.10000000000000001          5.8660469221649691E-005
  0.10110000000000002          6.1393337091431022E-005
  0.10220000000000001          6.3235565903596580E-005
  0.10330000000000003          6.4310792367905378E-005
  0.10440000000000002          6.4644416852388531E-005
  0.10550000000000001          6.4294072217307985E-005
  0.10660000000000003          6.3419902289751917E-005
  0.10770000000000002          6.2179919041227549E-005
  0.10880000000000001          6.0617174312938005E-005
  0.10990000000000003          5.8713707403512672E-005
  0.11100000000000002          5.6534328905399889E-005
  0.11210000000000001          5.4234998970059678E-005
  0.11320000000000002          5.1913313654949889E-005
  0.11430000000000001          4.9530768592376262E-005
  0.11540000000000003          4.7033136070240289E-005
  0.11650000000000002          4.4488944695331156E-005
  0.11760000000000001          4.2035062506329268E-005
  0.11870000000000003          3.9709982956992462E-005
  0.11980000000000002          3.7430781958391890E-005
  0.12090000000000001          3.5148994356859475E-005
  0.12200000000000003          3.2945146813290194E-005
  0.12310000000000001          3.0915434763301164E-005
  0.12420000000000003          2.9028906283201650E-005
  0.12530000000000002          2.7182237317902036E-005
  0.12640000000000001          2.5368237402290106E-005
  0.12750000000000003          2.3695949494140223E-005
  0.12860000000000002          2.2223000996746123E-005
  0.12970000000000001          2.0857532945228741E-005
  0.13080000000000003          1.9488377802190371E-005
  0.13190000000000002          1.8148739400203340E-005
  0.13300000000000001          1.6963571397354826E-005
  0.13410000000000000          1.5956204151734710E-005
  0.13520000000000004          1.5008451555331703E-005
  0.13630000000000003          1.4033319530426525E-005
  0.13740000000000002          1.3097097507852595E-005
  0.13850000000000001          1.2305679774726741E-005
  0.13960000000000000          1.1634439943009056E-005
  0.14070000000000005          1.0962929991364945E-005
  0.14180000000000004          1.0258420843456406E-005
  0.14290000000000003          9.6206522357533686E-006
  0.14400000000000002          9.1190695457044058E-006
  0.14510000000000001          8.6768313849461265E-006
  0.14620000000000000          8.1835414675879292E-006
  0.14730000000000004          7.6632459240499884E-006
  0.14840000000000003          7.2351522248936817E-006
  0.14950000000000002          6.9261091084626969E-006
  0.15060000000000001          6.6237307692063041E-006
  0.15170000000000000          6.2448925746139139E-006
  0.15280000000000005          5.8598143368726596E-006
  0.15390000000000004          5.5815080486354418E-006
  0.15500000000000003          5.3898952501185704E-006
  0.15610000000000002          5.1605288717837539E-006
  0.15720000000000001          4.8530641834076960E-006
  0.15830000000000000          4.5704268814006355E-006
  0.15940000000000004          4.3990344238409307E-006
  0.16050000000000003          4.2763440433191136E-006
  0.16160000000000002          4.0869626900530420E-006
  0.16270000000000001          3.8368812056432944E-006
  0.16380000000000000          3.6392152651387732E-006
  0.16490000000000005          3.5379989640205167E-006
  0.16600000000000004          3.4425841022311943E-006
  0.16710000000000003          3.2700236261007376E-006
  0.16820000000000002          3.0717753816134064E-006
  0.16930000000000001          2.9496720799215836E-006
  0.17040000000000000          2.8957952054042835E-006
  0.17150000000000004          2.8048093554389197E-006
  0.17260000000000003          2.6382199393992778E-006
  0.17370000000000002          2.4842365746735595E-006
  0.17480000000000001          2.4214427867264021E-006
  0.17590000000000000          2.3964867068571039E-006
  0.17700000000000005          2.3044988211040618E-006
  0.17810000000000004          2.1477455902640941E-006
  0.17920000000000003          2.0301692984503461E-006
  0.18030000000000002          1.9988092390121892E-006
  0.18140000000000001          1.9754882032430032E-006
  0.18250000000000000          1.8789685327647021E-006
  0.18360000000000004          1.7466290955781005E-006
  0.18470000000000003          1.6722678992664441E-006
  0.18580000000000002          1.6603870562903467E-006
  0.18690000000000001          1.6218606333495700E-006
  0.18800000000000000          1.5123313232834334E-006
  0.18910000000000005          1.3975881074657082E-006
  0.19020000000000004          1.3485085901265847E-006
  0.19130000000000003          1.3309739870237536E-006
  0.19240000000000002          1.2591614222401404E-006
  0.19350000000000001          1.1261784038651967E-006
  0.19460000000000005          1.0107022490046802E-006
  0.19570000000000004          9.5336565664183581E-007
  0.19680000000000003          8.9464361963109695E-007
  0.19790000000000002          7.6601094178840867E-007
  0.19900000000000001          5.9052581491414458E-007
  0.20010000000000000          4.3986483433400281E-007
  0.20120000000000005          3.1900000863060995E-007
  0.20230000000000004          1.5649506224235665E-007
  0.20340000000000003         -8.8912827322928933E-008
  0.20450000000000002         -3.7240837968965934E-007
  0.20560000000000000         -6.4116977682715515E-007
  0.20670000000000005         -9.2318043698469410E-007
  0.20780000000000004         -1.2912018974020611E-006
  0.20890000000000003         -1.7610508393772761E-006
