 -0.12000000000000000          0.0000000000000000
 -0.11889999999999999          0.0000000000000000
 -0.11780000000000000          0.0000000000000000
 -0.11670000000000000          1.2546758770826116E-011
 -0.11559999999999999          1.8168352239334495E-011
 -0.11449999999999999         -2.8160898959959962E-011
 -0.11340000000000000         -7.4961516161044609E-011
 -0.11230000000000000         -7.1864246324703754E-012
 -0.11119999999999999          9.8632810252563864E-011
 -0.11009999999999999          3.4899860779103460E-011
 -0.10900000000000000         -4.0868662620718161E-011
 -0.10790000000000000          3.0829422348337436E-010
 -0.10679999999999999          7.4258377225076700E-010
 -0.10569999999999999         -4.0189046535228118E-011
 -0.10460000000000000         -2.2186259496238716E-009
 -0.10349999999999999         -3.2006581829336748E-009
 -0.10239999999999999         -2.7629015741937549E-010
 -0.10130000000000000          4.7190185092917132E-009
 -0.10020000000000000          6.1720113464506367E-009
  -9.9099999999999994E-002     1.9703494391625441E-009
  -9.7999999999999990E-002    -2.6980160328091315E-009
  -9.6899999999999986E-002    -2.4106316942609987E-009
  -9.5799999999999996E-002    -3.5083350114012139E-010
  -9.4699999999999993E-002    -4.1651677662466355E-009
  -9.3599999999999989E-002    -1.2471415899995454E-008
  -9.2499999999999999E-002    -1.2972214413764526E-008
  -9.1399999999999995E-002     9.2078472624388035E-010
  -9.0299999999999991E-002     1.7741401237003857E-008
  -8.9200000000000002E-002     2.1626490820382136E-008
  -8.8099999999999984E-002     1.6275816250301982E-008
  -8.6999999999999994E-002     2.3412772165446945E-008
  -8.5899999999999990E-002     5.3338833794219234E-008
  -8.4799999999999986E-002     8.8167361411712551E-008
  -8.3699999999999997E-002     1.0448665221930151E-007
  -8.2599999999999993E-002     1.0566872532536893E-007
  -8.1499999999999989E-002     1.1758076112756824E-007
  -8.0399999999999999E-002     1.5362525118690945E-007
  -7.9299999999999995E-002     2.0025744618125713E-007
  -7.8199999999999992E-002     2.4293822775691622E-007
  -7.7100000000000002E-002     2.9085040864631963E-007
  -7.5999999999999984E-002     3.6206077425052778E-007
  -7.4899999999999994E-002     4.5507738377641079E-007
  -7.3799999999999991E-002     5.5578078672629572E-007
  -7.2699999999999987E-002     6.7041469264956353E-007
  -7.1599999999999997E-002     8.2784441701740802E-007
  -7.0499999999999993E-002     1.0399912753201558E-006
  -6.9399999999999989E-002     1.2819224366468236E-006
  -6.8300000000000000E-002     1.5320092643379696E-006
  -6.7199999999999996E-002     1.8184365444541855E-006
  -6.6099999999999992E-002     2.1972248305248495E-006
  -6.5000000000000002E-002     2.6851078018810466E-006
  -6.3899999999999985E-002     3.2458560781381674E-006
  -6.2799999999999995E-002     3.8575462895099778E-006
  -6.1699999999999991E-002     4.5664910430791332E-006
  -6.0599999999999994E-002     5.4460447245224254E-006
  -5.9499999999999990E-002     6.5167332650168200E-006
  -5.8399999999999994E-002     7.7443901318481686E-006
  -5.7299999999999990E-002     9.1200654424036755E-006
  -5.6199999999999986E-002     1.0704547094065742E-005
  -5.5099999999999996E-002     1.2574152606249539E-005
  -5.3999999999999992E-002     1.4752455172130319E-005
  -5.2899999999999989E-002     1.7229800505448770E-005
  -5.1799999999999985E-002     2.0034744011356459E-005
  -5.0699999999999995E-002     2.3242824681803839E-005
  -4.9599999999999991E-002     2.6911913664664729E-005
  -4.8499999999999988E-002     3.1053070415512690E-005
  -4.7399999999999998E-002     3.5688739444598083E-005
  -4.6299999999999994E-002     4.0903083572633573E-005
  -4.5199999999999990E-002     4.6792036300762162E-005
  -4.4099999999999986E-002     5.3380212193592653E-005
  -4.2999999999999997E-002     6.0640581068588349E-005
  -4.1899999999999993E-002     6.8603229010483910E-005
  -4.0799999999999989E-002     7.7392505772884545E-005
  -3.9699999999999985E-002     8.7123975390576317E-005
  -3.8599999999999995E-002     9.7799151262742989E-005
  -3.7499999999999992E-002     1.0935115278699499E-004
  -3.6399999999999988E-002     1.2177711323603234E-004
  -3.5299999999999984E-002     1.3516777835321912E-004
  -3.4199999999999994E-002     1.4959434338381015E-004
  -3.3099999999999991E-002     1.6501905338374537E-004
  -3.1999999999999987E-002     1.8135106074625414E-004
  -3.0899999999999997E-002     1.9854685524480363E-004
  -2.9799999999999993E-002     2.1659900085071212E-004
  -2.8699999999999989E-002     2.3543863790111898E-004
  -2.7599999999999986E-002     2.5491439737381871E-004
  -2.6499999999999996E-002     2.7488198247740687E-004
  -2.5399999999999992E-002     2.9525140416811115E-004
  -2.4299999999999988E-002     3.1590266735295850E-004
  -2.3199999999999985E-002     3.3659007749523305E-004
  -2.2099999999999995E-002     3.5699328873309765E-004
  -2.0999999999999991E-002     3.7685182178396438E-004
  -1.9899999999999987E-002     3.9598430157642691E-004
  -1.8799999999999983E-002     4.1415312443863648E-004
  -1.7699999999999994E-002     4.3097350862812450E-004
  -1.6599999999999990E-002     4.4600639375862069E-004
  -1.5499999999999986E-002     4.5889511238787778E-004
  -1.4399999999999996E-002     4.6935229329396586E-004
  -1.3299999999999992E-002     4.7703232849021128E-004
  -1.2199999999999989E-002     4.8148765927185028E-004
  -1.1099999999999985E-002     4.8228335799653749E-004
  -9.9999999999999950E-003     4.7909718705345584E-004
  -8.8999999999999913E-003     4.7165135038089575E-004
  -7.7999999999999875E-003     4.5959959970791353E-004
  -6.6999999999999837E-003     4.4255956890996848E-004
  -5.5999999999999939E-003     4.2025107541125370E-004
  -4.4999999999999901E-003     3.9254946750592288E-004
  -3.3999999999999864E-003     3.5936830681751957E-004
  -2.2999999999999826E-003     3.2057391945275601E-004
  -1.1999999999999927E-003     2.7605600189420111E-004
  -9.9999999999988987E-005     2.2586701379625319E-004
   1.0000000000000148E-003     1.7022172687576769E-004
   2.1000000000000185E-003     1.0937148181256900E-004
   3.2000000000000084E-003     4.3551706767179284E-005
   4.3000000000000121E-003    -2.6909981897918183E-005
   5.4000000000000159E-003    -1.0149536683457898E-004
   6.5000000000000058E-003    -1.7956769443118719E-004
   7.6000000000000234E-003    -2.6049918960782280E-004
   8.7000000000000133E-003    -3.4366940963085149E-004
   9.8000000000000032E-003    -4.2832750477831989E-004
   1.0900000000000021E-002    -5.1355437608440423E-004
   1.2000000000000011E-002    -5.9838860761379689E-004
   1.3100000000000001E-002    -6.8193476181483521E-004
   1.4200000000000018E-002    -7.6332787284634507E-004
   1.5300000000000008E-002    -8.4161054110162175E-004
   1.6400000000000026E-002    -9.1574719408535354E-004
   1.7500000000000016E-002    -9.8475941922524586E-004
   1.8600000000000005E-002    -1.0477948235348821E-003
   1.9700000000000023E-002    -1.1040492681787424E-003
   2.0800000000000013E-002    -1.1526935268194533E-003
   2.1900000000000003E-002    -1.1929447064177288E-003
   2.3000000000000020E-002    -1.2241862714291733E-003
   2.4100000000000010E-002    -1.2459759600461663E-003
   2.5200000000000000E-002    -1.2579427566380454E-003
   2.6300000000000018E-002    -1.2597463792191103E-003
   2.7400000000000008E-002    -1.2511690147222227E-003
   2.8500000000000025E-002    -1.2322086840869117E-003
   2.9600000000000015E-002    -1.2030458310620092E-003
   3.0700000000000005E-002    -1.1639464646578895E-003
   3.1800000000000023E-002    -1.1152455117554487E-003
   3.2900000000000013E-002    -1.0574234183878669E-003
   3.4000000000000002E-002    -9.9113117903480014E-004
   3.5100000000000020E-002    -9.1713055735462312E-004
   3.6200000000000010E-002    -8.3623203681789499E-004
   3.7300000000000028E-002    -7.4931333074353004E-004
   3.8400000000000017E-002    -6.5736874239525223E-004
   3.9500000000000007E-002    -5.6148500880231599E-004
   4.0600000000000025E-002    -4.6275515342135469E-004
   4.1700000000000015E-002    -3.6223127972337919E-004
   4.2800000000000005E-002    -2.6095894281754782E-004
   4.3900000000000022E-002    -1.6003810742405767E-004
   4.5000000000000012E-002    -6.0564332670770507E-005
   4.6100000000000002E-002     3.6437555536398266E-005
   4.7200000000000020E-002     1.3003451749683611E-004
   4.8300000000000010E-002     2.1937825658826292E-004
   4.9400000000000027E-002     3.0367588624360942E-004
   5.0500000000000017E-002     3.8221891736615204E-004
   5.1600000000000007E-002     4.5442246482711696E-004
   5.2700000000000025E-002     5.1978859119121987E-004
   5.3800000000000014E-002     5.7790620485325946E-004
   5.4900000000000004E-002     6.2848511151975157E-004
   5.6000000000000022E-002     6.7137804580858504E-004
   5.7100000000000012E-002     7.0655479794374577E-004
   5.8200000000000002E-002     7.3405785951770070E-004
   5.9300000000000019E-002     7.5399782508618542E-004
   6.0400000000000009E-002     7.6658761827282139E-004
   6.1500000000000027E-002     7.7213795157156460E-004
   6.2600000000000017E-002     7.7103305375210505E-004
   6.3700000000000007E-002     7.6370674651123082E-004
   6.4800000000000024E-002     7.5064721750102317E-004
   6.5900000000000014E-002     7.3240115307278148E-004
   6.7000000000000004E-002     7.0953607792041207E-004
   6.8100000000000022E-002     6.8260566331452383E-004
   6.9200000000000012E-002     6.5216852817690353E-004
   7.0300000000000029E-002     6.1882263980811512E-004
   7.1400000000000019E-002     5.8317981893202015E-004
   7.2500000000000009E-002     5.4580566938971478E-004
   7.3600000000000027E-002     5.0720310537149160E-004
   7.4700000000000016E-002     4.6786206075925916E-004
   7.5800000000000006E-002     4.2828312143687331E-004
   7.6900000000000024E-002     3.8892650627534651E-004
   7.8000000000000014E-002     3.5015764296989350E-004
   7.9100000000000004E-002     3.1227921135726431E-004
   8.0200000000000021E-002     2.7560335001910753E-004
   8.1300000000000011E-002     2.4044753808996036E-004
   8.2400000000000029E-002     2.0704923372251937E-004
   8.3500000000000019E-002     1.7552466306371348E-004
   8.4600000000000009E-002     1.4594884123654502E-004
   8.5700000000000026E-002     1.1843477113871983E-004
   8.6800000000000016E-002     9.3099770310809006E-005
   8.7900000000000006E-002     6.9973502832005582E-005
   8.9000000000000024E-002     4.8992049414668966E-005
   9.0100000000000013E-002     3.0099485229587129E-005
   9.1200000000000003E-002     1.3287520232553411E-005
   9.2300000000000021E-002    -1.4828531220702148E-006
   9.3400000000000011E-002    -1.4350239325723523E-005
   9.4500000000000028E-002    -2.5483461286060042E-005
   9.5600000000000018E-002    -3.4971046261492569E-005
   9.6700000000000008E-002    -4.2839765228567816E-005
   9.7800000000000026E-002    -4.9188613047594958E-005
   9.8900000000000016E-002    -5.4231859394354098E-005
  0.10000000000000001         -5.8175894082529181E-005
  0.10110000000000002         -6.1100618040660365E-005
  0.10220000000000001         -6.3022474932955723E-005
  0.10330000000000003         -6.4044106693478541E-005
  0.10440000000000002         -6.4362589910166618E-005
  0.10550000000000001         -6.4128085796261459E-005
  0.10660000000000003         -6.3373088778468021E-005
  0.10770000000000002         -6.2119441281544108E-005
  0.10880000000000001         -6.0490769101312305E-005
  0.10990000000000003         -5.8644025557446983E-005
  0.11100000000000002         -5.6626529840291971E-005
  0.11210000000000001         -5.4389503930001810E-005
  0.11320000000000002         -5.1951436034874132E-005
  0.11430000000000001         -4.9459460569782970E-005
  0.11540000000000003         -4.7041776269911421E-005
  0.11650000000000002         -4.4669683120450339E-005
  0.11760000000000001         -4.2243060306649772E-005
  0.11870000000000003         -3.9777463825888832E-005
  0.11980000000000002         -3.7410369259308714E-005
  0.12090000000000001         -3.5217955883129911E-005
  0.12200000000000003         -3.3124153560496150E-005
  0.12310000000000001         -3.1040392059369969E-005
  0.12420000000000003         -2.9017157430646797E-005
  0.12530000000000002         -2.7171014153284638E-005
  0.12640000000000001         -2.5501274649288960E-005
  0.12750000000000003         -2.3886455892354552E-005
  0.12860000000000002         -2.2272191927188240E-005
  0.12970000000000001         -2.0758807295353187E-005
  0.13080000000000003         -1.9448409148028033E-005
  0.13190000000000002         -1.8283330064152165E-005
  0.13300000000000001         -1.7125270460384587E-005
  0.13410000000000000         -1.5957697542036474E-005
  0.13520000000000004         -1.4901109352651019E-005
  0.13630000000000003         -1.4019824448042895E-005
  0.13740000000000002         -1.3217868399807517E-005
  0.13850000000000001         -1.2384776709951652E-005
  0.13960000000000000         -1.1561723113119264E-005
  0.14070000000000005         -1.0869859579544114E-005
  0.14180000000000004         -1.0311110600015152E-005
  0.14290000000000003         -9.7546662800604888E-006
  0.14400000000000002         -9.1332503870952793E-006
  0.14510000000000001         -8.5458486864816807E-006
  0.14620000000000000         -8.1048310676131367E-006
  0.14730000000000004         -7.7588156273129873E-006
  0.14840000000000003         -7.3648084253370401E-006
  0.14950000000000002         -6.8994891080371353E-006
  0.15060000000000001         -6.4876721808110773E-006
  0.15170000000000000         -6.2068229453876693E-006
  0.15280000000000005         -5.9689036788773488E-006
  0.15390000000000004         -5.6581907301738835E-006
  0.15500000000000003         -5.3083522288948520E-006
  0.15610000000000002         -5.0441512939874093E-006
  0.15720000000000001         -4.8824949772101600E-006
  0.15830000000000000         -4.7023459046617626E-006
  0.15940000000000004         -4.4308835640553675E-006
  0.16050000000000003         -4.1563530430725439E-006
  0.16160000000000002         -3.9921933421286705E-006
  0.16270000000000001         -3.9022570490491349E-006
  0.16380000000000000         -3.7556087590932005E-006
  0.16490000000000005         -3.5250013752378029E-006
  0.16600000000000004         -3.3240078209931574E-006
  0.16710000000000003         -3.2290583931174520E-006
  0.16820000000000002         -3.1636541280025165E-006
  0.16930000000000001         -3.0204657832658063E-006
  0.17040000000000000         -2.8275985641815066E-006
  0.17150000000000004         -2.7014616534873112E-006
  0.17260000000000003         -2.6625423288353559E-006
  0.17370000000000002         -2.6019433789772406E-006
  0.17480000000000001         -2.4502437554476665E-006
  0.17590000000000000         -2.2864749098518919E-006
  0.17700000000000005         -2.2179806364876892E-006
  0.17810000000000004         -2.2162180357556435E-006
  0.17920000000000003         -2.1599566935039626E-006
  0.18030000000000002         -2.0172349195492671E-006
  0.18140000000000001         -1.8893086917161752E-006
  0.18250000000000000         -1.8541494455350295E-006
  0.18360000000000004         -1.8523397784521688E-006
  0.18470000000000003         -1.7845375168691805E-006
  0.18580000000000002         -1.6631229300402719E-006
  0.18690000000000001         -1.5856430763962313E-006
  0.18800000000000000         -1.5798148069735880E-006
  0.18910000000000005         -1.5634519741071476E-006
  0.19020000000000004         -1.4769651670577757E-006
  0.19130000000000003         -1.3768610642729469E-006
  0.19240000000000002         -1.3452822713590088E-006
  0.19350000000000001         -1.3598847772301558E-006
  0.19460000000000005         -1.3277627886055844E-006
  0.19570000000000004         -1.2296499107834505E-006
  0.19680000000000003         -1.1502349934745523E-006
  0.19790000000000002         -1.1485053619254508E-006
  0.19900000000000001         -1.1686138350342947E-006
  0.20010000000000000         -1.1258232461842533E-006
  0.20120000000000005         -1.0335349998059492E-006
  0.20230000000000004         -9.7901568096868127E-007
  0.20340000000000003         -9.9055762348152574E-007
  0.20450000000000002         -9.9953933840888048E-007
  0.20560000000000000         -9.4894289759403628E-007
  0.20670000000000005         -8.7686629512981378E-007
  0.20780000000000004         -8.5137969563228473E-007
  0.20890000000000003         -8.6525716369586407E-007
