 -0.12000000000000000          0.0000000000000000
 -0.11889999999999999          0.0000000000000000
 -0.11780000000000000          0.0000000000000000
 -0.11670000000000000          1.2546763107634806E-011
 -0.11559999999999999          1.3697700959602876E-011
 -0.11449999999999999         -3.8519902545441909E-011
 -0.11340000000000000         -6.0436947113551298E-011
 -0.11230000000000000          8.1728214473830718E-011
 -0.11119999999999999          2.1664797733578212E-010
 -0.11009999999999999         -3.4040738977614282E-011
 -0.10900000000000000         -4.8208026459661824E-010
 -0.10790000000000000         -2.7206714658944975E-010
 -0.10679999999999999          7.1667316525747538E-010
 -0.10569999999999999          1.0246067327912556E-009
 -0.10460000000000000         -4.2161385493955095E-010
 -0.10349999999999999         -1.8818466784864540E-009
 -0.10239999999999999         -6.0493271503148094E-010
 -0.10130000000000000          2.4258623998463236E-009
 -0.10020000000000000          2.5024653460548052E-009
  -9.9099999999999994E-002    -1.8537332779899884E-009
  -9.7999999999999990E-002    -4.8300941024592703E-009
  -9.6899999999999986E-002    -6.5602090426608584E-010
  -9.5799999999999996E-002     6.4043965686266802E-009
  -9.4699999999999993E-002     5.8165965377554585E-009
  -9.3599999999999989E-002    -3.7803498109667544E-009
  -9.2499999999999999E-002    -9.8755315036669344E-009
  -9.1399999999999995E-002    -2.5647057810829210E-009
  -9.0299999999999991E-002     9.5434815605699441E-009
  -8.9200000000000002E-002     9.3254115540730709E-009
  -8.8099999999999984E-002    -4.2170307246180982E-009
  -8.6999999999999994E-002    -1.2694470363783239E-008
  -8.5899999999999990E-002    -3.9122718398232337E-009
  -8.4799999999999986E-002     9.9853698642959898E-009
  -8.3699999999999997E-002     9.7388550557298004E-009
  -8.2599999999999993E-002    -2.9503470777569873E-009
  -8.1499999999999989E-002    -8.7990938979487510E-009
  -8.0399999999999999E-002    -8.1176831923102100E-010
  -7.9299999999999995E-002     5.8460605245613806E-009
  -7.8199999999999992E-002    -3.1161856428596479E-010
  -7.7100000000000002E-002    -7.3374173403806253E-009
  -7.5999999999999984E-002     2.8331612229870462E-012
  -7.4899999999999994E-002     1.1606565486488307E-008
  -7.3799999999999991E-002     4.7745070119731281E-009
  -7.2699999999999987E-002    -1.6707554451045326E-008
  -7.1599999999999997E-002    -2.0920998267115465E-008
  -7.0499999999999993E-002     5.0174051580142986E-009
  -6.9399999999999989E-002     2.8316025080243890E-008
  -6.8300000000000000E-002     1.2552159311951527E-008
  -6.7199999999999996E-002    -2.6886475268383947E-008
  -6.6099999999999992E-002    -3.8676663649539478E-008
  -6.5000000000000002E-002    -6.8563510424723972E-009
  -6.3899999999999985E-002     2.4597461845132784E-008
  -6.2799999999999995E-002     1.2649678637899342E-008
  -6.1699999999999991E-002    -2.5248780843867280E-008
  -6.0599999999999994E-002    -3.9291272457830928E-008
  -5.9499999999999990E-002    -1.9406082074624464E-008
  -5.8399999999999994E-002    -3.7889313908578970E-009
  -5.7299999999999990E-002    -1.5911751916064532E-008
  -5.6199999999999986E-002    -3.1361416574782197E-008
  -5.5099999999999996E-002    -2.4941293474967097E-008
  -5.3999999999999992E-002    -1.7685749753582058E-008
  -5.2899999999999989E-002    -4.2291958379792050E-008
  -5.1799999999999985E-002    -8.0361772347714577E-008
  -5.0699999999999995E-002    -7.9851332657199237E-008
  -4.9599999999999991E-002    -3.7829099852615400E-008
  -4.8499999999999988E-002    -1.9414938989825714E-008
  -4.7399999999999998E-002    -6.9076456554739707E-008
  -4.6299999999999994E-002    -1.3943638066393760E-007
  -4.5199999999999990E-002    -1.5007266540578712E-007
  -4.4099999999999986E-002    -1.0021312135677363E-007
  -4.2999999999999997E-002    -7.1704263859828643E-008
  -4.1899999999999993E-002    -1.1482372030968691E-007
  -4.0799999999999989E-002    -1.8235829202239984E-007
  -3.9699999999999985E-002    -2.0376167242375232E-007
  -3.8599999999999995E-002    -1.8453179961852584E-007
  -3.7499999999999992E-002    -1.8533847878643428E-007
  -3.6399999999999988E-002    -2.2228161355997145E-007
  -3.5299999999999984E-002    -2.4814841026454815E-007
  -3.4199999999999994E-002    -2.3929337089612090E-007
  -3.3099999999999991E-002    -2.4104483031806012E-007
  -3.1999999999999987E-002    -2.9308515081538644E-007
  -3.0899999999999997E-002    -3.5224951488999068E-007
  -2.9799999999999993E-002    -3.4696086004259996E-007
  -2.8699999999999989E-002    -2.9067962259432534E-007
  -2.7599999999999986E-002    -2.7526118628884433E-007
  -2.6499999999999996E-002    -3.4156079209424206E-007
  -2.5399999999999992E-002    -4.1464286937298311E-007
  -2.4299999999999988E-002    -4.0584205862614908E-007
  -2.3199999999999985E-002    -3.3659264886409801E-007
  -2.2099999999999995E-002    -3.0303141329568462E-007
  -2.0999999999999991E-002    -3.3639062735346670E-007
  -1.9899999999999987E-002    -3.6639625022871769E-007
  -1.8799999999999983E-002    -3.3345384053973248E-007
  -1.7699999999999994E-002    -2.7533570801097085E-007
  -1.6599999999999990E-002    -2.5715235096868128E-007
  -1.5499999999999986E-002    -2.6110188855454908E-007
  -1.4399999999999996E-002    -2.1711728948048403E-007
  -1.3299999999999992E-002    -1.2254120917987166E-007
  -1.2199999999999989E-002    -5.4180969044637095E-008
  -1.1099999999999985E-002    -5.1687457869320497E-008
  -9.9999999999999950E-003    -4.6168793232936878E-008
  -8.8999999999999913E-003     4.1224538449569081E-008
  -7.7999999999999875E-003     1.8268569590418338E-007
  -6.6999999999999837E-003     2.7476696118355903E-007
  -5.5999999999999939E-003     2.9094016440467385E-007
  -4.4999999999999901E-003     3.1598457894688181E-007
  -3.3999999999999864E-003     4.1760776525734400E-007
  -2.2999999999999826E-003     5.4902193369343877E-007
  -1.1999999999999927E-003     6.2763399455434410E-007
  -9.9999999999988987E-005     6.5507953195265145E-007
   1.0000000000000148E-003     7.1097161935540498E-007
   2.1000000000000185E-003     8.1559744558035163E-007
   3.2000000000000084E-003     9.0081465486946399E-007
   4.3000000000000121E-003     9.2046491317887558E-007
   5.4000000000000159E-003     9.2233443638178869E-007
   6.5000000000000058E-003     9.7791007647174411E-007
   7.6000000000000234E-003     1.0642802408256102E-006
   8.7000000000000133E-003     1.0932627674264950E-006
   9.8000000000000032E-003     1.0464531214893213E-006
   1.0900000000000021E-002     9.9905867045890773E-007
   1.2000000000000011E-002     1.0098565326188691E-006
   1.3100000000000001E-002     1.0338656011299463E-006
   1.4200000000000018E-002     9.9242470241733827E-007
   1.5300000000000008E-002     8.9265154201711994E-007
   1.6400000000000026E-002     8.1044754551840015E-007
   1.7500000000000016E-002     7.7261779551918153E-007
   1.8600000000000005E-002     7.2105774506781017E-007
   1.9700000000000023E-002     6.0868006812597741E-007
   2.0800000000000013E-002     4.7385981361003360E-007
   2.1900000000000003E-002     3.7875119573982374E-007
   2.3000000000000020E-002     3.1148985613072000E-007
   2.4100000000000010E-002     2.0806876932510932E-007
   2.5200000000000000E-002     5.7225143734740413E-008
   2.6300000000000018E-002    -8.0377255073926790E-008
   2.7400000000000008E-002    -1.6194709928640805E-007
   2.8500000000000025E-002    -2.2884954375967936E-007
   2.9600000000000015E-002    -3.4008692750830960E-007
   3.0700000000000005E-002    -4.7842786443652585E-007
   3.1800000000000023E-002    -5.7900615502148867E-007
   3.2900000000000013E-002    -6.2435191239273991E-007
   3.4000000000000002E-002    -6.6489423033999628E-007
   3.5100000000000020E-002    -7.3908546482925885E-007
   3.6200000000000010E-002    -8.1784060057543684E-007
   3.7300000000000028E-002    -8.4849051518176566E-007
   3.8400000000000017E-002    -8.4766099917032989E-007
   3.9500000000000007E-002    -8.5362239587993827E-007
   4.0600000000000025E-002    -8.7303510554193053E-007
   4.1700000000000015E-002    -8.7272456994469394E-007
   4.2800000000000005E-002    -8.3779792703353451E-007
   4.3900000000000022E-002    -7.9345346648551640E-007
   4.5000000000000012E-002    -7.7023577205181937E-007
   4.6100000000000002E-002    -7.4491538271104218E-007
   4.7200000000000020E-002    -6.8202189140720293E-007
   4.8300000000000010E-002    -5.9852800404769368E-007
   4.9400000000000027E-002    -5.2927259730495280E-007
   5.0500000000000017E-002    -4.8447753897562507E-007
   5.1600000000000007E-002    -4.3055172227468574E-007
   5.2700000000000025E-002    -3.5261820130472188E-007
   5.3800000000000014E-002    -2.7279753567199805E-007
   5.4900000000000004E-002    -2.1044732534392097E-007
   5.6000000000000022E-002    -1.5338098080519558E-007
   5.7100000000000012E-002    -8.3647833548639028E-008
   5.8200000000000002E-002    -1.7409519159627962E-008
   5.9300000000000019E-002     2.3102559865151306E-008
   6.0400000000000009E-002     4.9449273120671933E-008
   6.1500000000000027E-002     9.4115129911642725E-008
   6.2600000000000017E-002     1.5663169961044332E-007
   6.3700000000000007E-002     2.0053678895237681E-007
   6.4800000000000024E-002     2.0807560474622733E-007
   6.5900000000000014E-002     2.0604224459930265E-007
   6.7000000000000004E-002     2.2425994927743886E-007
   6.8100000000000022E-002     2.4955048161245941E-007
   6.9200000000000012E-002     2.5022978888955549E-007
   7.0300000000000029E-002     2.3296847473375237E-007
   7.1400000000000019E-002     2.3308042784719873E-007
   7.2500000000000009E-002     2.5265387648687465E-007
   7.3600000000000027E-002     2.4838374201863189E-007
   7.4700000000000016E-002     2.0107167131300230E-007
   7.5800000000000006E-002     1.5548118881270057E-007
   7.6900000000000024E-002     1.5998347180357086E-007
   7.8000000000000014E-002     1.9004134799160965E-007
   7.9100000000000004E-002     1.7924666906310449E-007
   8.0200000000000021E-002     1.1795949461657074E-007
   8.1300000000000011E-002     6.9371132838114136E-008
   8.2400000000000029E-002     7.4699130436783889E-008
   8.3500000000000019E-002     9.2565635156915960E-008
   8.4600000000000009E-002     6.8560396471184504E-008
   8.5700000000000026E-002     2.0615669171775153E-008
   8.6800000000000016E-002     1.0288542462433270E-008
   8.7900000000000006E-002     3.7519161111276844E-008
   8.9000000000000024E-002     3.6553597482225086E-008
   9.0100000000000013E-002    -1.8777283727899885E-008
   9.1200000000000003E-002    -6.2943946943505580E-008
   9.2300000000000021E-002    -3.3282702815995435E-008
   9.3400000000000011E-002     2.3295449125271261E-008
   9.4500000000000028E-002     1.4812348680948162E-008
   9.5600000000000018E-002    -5.6890836930278965E-008
   9.6700000000000008E-002    -9.4273865158811532E-008
   9.7800000000000026E-002    -4.8477208025587970E-008
   9.8900000000000016E-002     7.7078192717294769E-009
  0.10000000000000001         -8.2611704144142095E-009
  0.10110000000000002         -6.4603753457959101E-008
  0.10220000000000001         -6.7863815900182090E-008
  0.10330000000000003         -1.1376845243660227E-008
  0.10440000000000002          1.2252191261552525E-008
  0.10550000000000001         -3.8841136529299547E-008
  0.10660000000000003         -8.4231082553287706E-008
  0.10770000000000002         -4.4170722190983724E-008
  0.10880000000000001          3.0688049434957065E-008
  0.10990000000000003          3.0072556000959594E-008
  0.11100000000000002         -4.6684949239761409E-008
  0.11210000000000001         -8.3544030360371835E-008
  0.11320000000000002         -2.2890874973313657E-008
  0.11430000000000001          4.6482778515155587E-008
  0.11540000000000003          2.4380762297937508E-008
  0.11650000000000002         -4.8702794686050765E-008
  0.11760000000000001         -5.5512618502007172E-008
  0.11870000000000003          1.5406033782028317E-008
  0.11980000000000002          5.1880526541481231E-008
  0.12090000000000001         -5.1273683077113219E-009
  0.12200000000000003         -6.6509038276763022E-008
  0.12310000000000001         -3.1773076614172169E-008
  0.12420000000000003          5.1844562420910734E-008
  0.12530000000000002          5.7950039433762868E-008
  0.12640000000000001         -2.4233516526805943E-008
  0.12750000000000003         -7.0775982408122218E-008
  0.12860000000000002         -1.1334393867912240E-008
  0.12970000000000001          6.3448844400681992E-008
  0.13080000000000003          4.0675416812518961E-008
  0.13190000000000002         -4.1316180698913740E-008
  0.13300000000000001         -5.3755652373865814E-008
  0.13410000000000000          2.2109805541958849E-008
  0.13520000000000004          6.5936696103108261E-008
  0.13630000000000003          6.7482304189070419E-009
  0.13740000000000002         -6.4890514295257162E-008
  0.13850000000000001         -3.5863170211314355E-008
  0.13960000000000000          5.2835179786825393E-008
  0.14070000000000005          6.6290532174662076E-008
  0.14180000000000004         -1.7914672412189248E-008
  0.14290000000000003         -7.4252859860735043E-008
  0.14400000000000002         -1.9920205929224721E-008
  0.14510000000000001          6.0195560536158155E-008
  0.14620000000000000          4.5844871010558563E-008
  0.14730000000000004         -3.5713629387146284E-008
  0.14840000000000003         -5.6046495444661559E-008
  0.14950000000000002          1.3984589486426557E-008
  0.15060000000000001          6.1114256766359176E-008
  0.15170000000000000          8.9512175449613096E-009
  0.15280000000000005         -6.0923198930140643E-008
  0.15390000000000004         -3.6209012677090868E-008
  0.15500000000000003          4.9390468603860427E-008
  0.15610000000000002          6.4918623365883832E-008
  0.15720000000000001         -1.6916997580551651E-008
  0.15830000000000000         -7.5584914327464503E-008
  0.15940000000000004         -2.4498666206795860E-008
  0.16050000000000003          5.8966193705600745E-008
  0.16160000000000002          5.2461484045807083E-008
  0.16270000000000001         -2.7730902019129644E-008
  0.16380000000000000         -5.7547509868527413E-008
  0.16490000000000005          3.4661933323576477E-009
  0.16600000000000004          5.5264045784042537E-008
  0.16710000000000003          1.7054285095241539E-008
  0.16820000000000002         -4.8068898195197107E-008
  0.16930000000000001         -3.5122418751143414E-008
  0.17040000000000000          3.7282944731487078E-008
  0.17150000000000004          5.5598359693931343E-008
  0.17260000000000003         -1.1558242363207683E-008
  0.17370000000000002         -6.3589666865482286E-008
  0.17480000000000001         -2.1705096386881451E-008
  0.17590000000000000          5.0954501062960844E-008
  0.17700000000000005          4.6308134216133112E-008
  0.17810000000000004         -2.5496934341617816E-008
  0.17920000000000003         -5.5051902592140323E-008
  0.18030000000000002         -1.6109790168528093E-009
  0.18140000000000001          4.9278042979494785E-008
  0.18250000000000000          2.0941097744753279E-008
  0.18360000000000004         -3.8584502703997714E-008
  0.18470000000000003         -3.5598731074060197E-008
  0.18580000000000002          2.3488764711032672E-008
  0.18690000000000001          4.5024549422123528E-008
  0.18800000000000000         -4.8796606755274752E-009
  0.18910000000000005         -4.8677719632905792E-008
  0.19020000000000004         -1.8424325176624734E-008
  0.19130000000000003          3.9979610733098525E-008
  0.19240000000000002          3.8281278591512091E-008
  0.19350000000000001         -1.9651229976602735E-008
  0.19460000000000005         -4.6345896009825083E-008
  0.19570000000000004         -4.4888652794838890E-009
  0.19680000000000003          4.0004771051371790E-008
  0.19790000000000002          2.1842875952415852E-008
  0.19900000000000001         -2.6477803061197847E-008
  0.20010000000000000         -2.9722999173031894E-008
  0.20120000000000005          1.4153085814427868E-008
  0.20230000000000004          3.5428410427584822E-008
  0.20340000000000003          2.9430382575412750E-009
  0.20450000000000002         -3.0323764832473898E-008
  0.20560000000000000         -1.2506882640650474E-008
  0.20670000000000005          2.7330099072742087E-008
  0.20780000000000004          2.6577108513947678E-008
  0.20890000000000003         -1.3708945978407883E-008
