 -0.12000000000000000          0.0000000000000000
 -0.11889999999999999          0.0000000000000000
 -0.11780000000000000          0.0000000000000000
 -0.11670000000000000          0.0000000000000000
 -0.11559999999999999          0.0000000000000000
 -0.11449999999999999          0.0000000000000000
 -0.11340000000000000          0.0000000000000000
 -0.11230000000000000          4.5173342993479524E-021
 -0.11119999999999999         -2.1335482060380530E-021
 -0.11009999999999999         -5.0255089928194970E-020
 -0.10900000000000000          6.3249359835876413E-021
 -0.10790000000000000          3.2296853426826689E-019
 -0.10679999999999999          1.0674454319797408E-019
 -0.10569999999999999         -1.4623054999053043E-018
 -0.10460000000000000         -1.2596281552539129E-018
 -0.10349999999999999          4.7662469495744350E-018
 -0.10239999999999999          7.2483727767459805E-018
 -0.10130000000000000         -1.0592419147836556E-017
 -0.10020000000000000         -2.7792550589010034E-017
  -9.9099999999999994E-002     1.2570458628176448E-017
  -9.7999999999999990E-002     7.9820381395080507E-017
  -9.6899999999999986E-002     1.2145655888696778E-017
  -9.5799999999999996E-002    -1.8955653711908441E-016
  -9.4699999999999993E-002    -1.2843929832642400E-016
  -9.3599999999999989E-002     3.9215235236776072E-016
  -9.2499999999999999E-002     5.3948883663341995E-016
  -9.1399999999999995E-002    -6.0574221852043443E-016
  -9.0299999999999991E-002    -1.6980236559546464E-015
  -8.9200000000000002E-002     1.2997017802968814E-016
  -8.8099999999999984E-002     3.8443687218803115E-015
  -8.6999999999999994E-002     2.7951532452811460E-015
  -8.5899999999999990E-002    -5.4412820549212121E-015
  -8.4799999999999986E-002    -9.5917257087753914E-015
  -8.3699999999999997E-002     2.5227931892233147E-015
  -8.2599999999999993E-002     1.8417166121158235E-014
  -8.1499999999999989E-002     8.2132033040415407E-015
  -8.0399999999999999E-002    -2.5318129889687416E-014
  -7.9299999999999995E-002    -2.8646732203171585E-014
  -7.8199999999999992E-002     2.6885513536604663E-014
  -7.7100000000000002E-002     6.7104477627800280E-014
  -7.5999999999999984E-002    -4.8577860450296686E-015
  -7.4899999999999994E-002    -1.2584733060337638E-013
  -7.3799999999999991E-002    -8.8558893833641517E-014
  -7.2699999999999987E-002     1.4607446383128192E-013
  -7.1599999999999997E-002     2.6607253726662616E-013
  -7.0499999999999993E-002    -1.4645623174500480E-014
  -6.9399999999999989E-002    -4.1285131238168182E-013
  -6.8300000000000000E-002    -2.8991430566990828E-013
  -6.7199999999999996E-002     3.7689564468500192E-013
  -6.6099999999999992E-002     6.6022881606286887E-013
  -6.5000000000000002E-002    -1.0487788480555149E-013
  -6.3899999999999985E-002    -1.0222499929879447E-012
  -6.2799999999999995E-002    -5.2546855755508659E-013
  -6.1699999999999991E-002     1.1612617334746944E-012
  -6.0599999999999994E-002     1.6429038034518340E-012
  -5.9499999999999990E-002    -4.3080401984467442E-013
  -5.8399999999999994E-002    -2.6582668358199335E-012
  -5.7299999999999990E-002    -1.4798660344025882E-012
  -5.6199999999999986E-002     2.3741809299787642E-012
  -5.5099999999999996E-002     3.6569965805588467E-012
  -5.3999999999999992E-002    -3.4669877103758739E-013
  -5.2899999999999989E-002    -4.7691794090309880E-012
  -5.1799999999999985E-002    -2.8353849216428140E-012
  -5.0699999999999995E-002     3.9462686590718832E-012
  -4.9599999999999991E-002     6.1617759505860903E-012
  -4.8499999999999988E-002    -6.3208515027959877E-013
  -4.7399999999999998E-002    -7.9608151667964755E-012
  -4.6299999999999994E-002    -4.8448896804165198E-012
  -4.5199999999999990E-002     5.9952698187870634E-012
  -4.4099999999999986E-002     1.0003264709623760E-011
  -4.2999999999999997E-002     7.0877348044492972E-013
  -4.1899999999999993E-002    -9.9520348559312133E-012
  -4.0799999999999989E-002    -7.5305039981543587E-012
  -3.9699999999999985E-002     4.1721834320718187E-012
  -3.8599999999999995E-002     8.2173946466812531E-012
  -3.7499999999999992E-002    -6.3699983872747556E-013
  -3.6399999999999988E-002    -8.0512280870026487E-012
  -3.5299999999999984E-002    -1.8637235851826084E-012
  -3.4199999999999994E-002     9.1511451194570270E-012
  -3.3099999999999991E-002     8.9051752083513236E-012
  -3.1999999999999987E-002    -8.5789524355978086E-013
  -3.0899999999999997E-002    -4.3759288727296397E-012
  -2.9799999999999993E-002     6.2520258067855217E-013
  -2.8699999999999989E-002    -1.9727672186803380E-012
  -2.7599999999999986E-002    -1.6754490156367652E-011
  -2.6499999999999996E-002    -2.0908401746067007E-011
  -2.5399999999999992E-002     2.9885501625498412E-012
  -2.4299999999999988E-002     3.0756005381382678E-011
  -2.3199999999999985E-002     2.1631307856040394E-011
  -2.2099999999999995E-002    -1.9667781292476150E-011
  -2.0999999999999991E-002    -3.8400619489786791E-011
  -1.9899999999999987E-002    -5.0634166998131391E-012
  -1.8799999999999983E-002     3.2660974619291849E-011
  -1.7699999999999994E-002     9.1758441123079848E-012
  -1.6599999999999990E-002    -5.9792754081300359E-011
  -1.5499999999999986E-002    -8.4341582329283682E-011
  -1.4399999999999996E-002    -1.9594674841028059E-011
  -1.3299999999999992E-002     6.4508905162075081E-011
  -1.2199999999999989E-002     6.8695923949313453E-011
  -1.1099999999999985E-002    -7.2725523520000834E-012
  -9.9999999999999950E-003    -7.1579249472097928E-011
  -8.8999999999999913E-003    -6.8252029028492700E-011
  -7.7999999999999875E-003    -4.3206441896481707E-011
  -6.6999999999999837E-003    -6.1224331160403267E-011
  -5.5999999999999939E-003    -1.0994809229725178E-010
  -4.4999999999999901E-003    -1.3036931256760198E-010
  -3.3999999999999864E-003    -1.1138216043926619E-010
  -2.2999999999999826E-003    -9.1887317199557117E-011
  -1.1999999999999927E-003    -8.0388223855365482E-011
  -9.9999999999988987E-005    -4.8691311399506887E-011
   1.0000000000000148E-003    -2.1775258679523901E-011
   2.1000000000000185E-003    -9.6201040189480835E-011
   3.2000000000000084E-003    -3.0032937248236635E-010
   4.3000000000000121E-003    -4.9882958874647443E-010
   5.4000000000000159E-003    -5.2093390712215637E-010
   6.5000000000000058E-003    -3.9163305931566583E-010
   7.6000000000000234E-003    -3.2755256840211189E-010
   8.7000000000000133E-003    -4.5417555827320655E-010
   9.8000000000000032E-003    -6.2150823376683206E-010
   1.0900000000000021E-002    -6.1066357526229353E-010
   1.2000000000000011E-002    -4.6752679505601691E-010
   1.3100000000000001E-002    -4.4954187594647976E-010
   1.4200000000000018E-002    -7.2377509541254881E-010
   1.5300000000000008E-002    -1.1742167238537604E-009
   1.6400000000000026E-002    -1.4816642357473597E-009
   1.7500000000000016E-002    -1.5538772490941710E-009
   1.8600000000000005E-002    -1.5297488831222950E-009
   1.9700000000000023E-002    -1.5592488411542149E-009
   2.0800000000000013E-002    -1.6253143275690718E-009
   2.1900000000000003E-002    -1.6712300432430993E-009
   2.3000000000000020E-002    -1.7316424960611698E-009
   2.4100000000000010E-002    -1.8920378597186982E-009
   2.5200000000000000E-002    -2.1118917725715391E-009
   2.6300000000000018E-002    -2.2636981178436599E-009
   2.7400000000000008E-002    -2.4819215571625364E-009
   2.8500000000000025E-002    -2.8555133813057409E-009
   2.9600000000000015E-002    -3.3492244533306348E-009
   3.0700000000000005E-002    -3.5287162081232282E-009
   3.1800000000000023E-002    -3.3196012605429814E-009
   3.2900000000000013E-002    -3.0683855456459241E-009
   3.4000000000000002E-002    -2.9135631685051067E-009
   3.5100000000000020E-002    -2.9104085808029367E-009
   3.6200000000000010E-002    -2.9575122351133132E-009
   3.7300000000000028E-002    -2.8215789704688632E-009
   3.8400000000000017E-002    -2.6071014236350720E-009
   3.9500000000000007E-002    -2.5549453663842314E-009
   4.0600000000000025E-002    -2.9607336582415655E-009
   4.1700000000000015E-002    -2.7811846159409015E-009
   4.2800000000000005E-002    -1.9893968694617570E-009
   4.3900000000000022E-002    -1.2488083900308311E-009
   4.5000000000000012E-002    -1.4466050579642342E-009
   4.6100000000000002E-002    -1.2043632757752221E-009
   4.7200000000000020E-002     1.9255498237558122E-011
   4.8300000000000010E-002     1.8654946476459600E-009
   4.9400000000000027E-002     2.8287541198324107E-009
   5.0500000000000017E-002     2.4961437361525896E-009
   5.1600000000000007E-002     2.8233893001328170E-009
   5.2700000000000025E-002     4.3954551109948170E-009
   5.3800000000000014E-002     6.0203908525124916E-009
   5.4900000000000004E-002     6.0715033001201846E-009
   5.6000000000000022E-002     6.0807106017080059E-009
   5.7100000000000012E-002     7.4679391559584474E-009
   5.8200000000000002E-002     9.3279579616023511E-009
   5.9300000000000019E-002     1.0603231181960382E-008
   6.0400000000000009E-002     1.0930153671040443E-008
   6.1500000000000027E-002     1.0872256872573871E-008
   6.2600000000000017E-002     1.2416543349047515E-008
   6.3700000000000007E-002     1.4455898700305170E-008
   6.4800000000000024E-002     1.6830586702099026E-008
   6.5900000000000014E-002     1.6304790406707070E-008
   6.7000000000000004E-002     1.3527989395356599E-008
   6.8100000000000022E-002     1.1711161818084292E-008
   6.9200000000000012E-002     1.2812813920959343E-008
   7.0300000000000029E-002     1.5405211328811674E-008
   7.1400000000000019E-002     1.6020555548834636E-008
   7.2500000000000009E-002     1.2274494309849615E-008
   7.3600000000000027E-002     8.9015603776942953E-009
   7.4700000000000016E-002     8.5491294044004462E-009
   7.5800000000000006E-002     9.6531325155524428E-009
   7.6900000000000024E-002     1.0274533224219340E-008
   7.8000000000000014E-002     8.5537115168676792E-009
   7.9100000000000004E-002     5.9165965460294956E-009
   8.0200000000000021E-002     2.4854782676442255E-009
   8.1300000000000011E-002    -6.1367205761442278E-010
   8.2400000000000029E-002    -2.4722639491159271E-009
   8.3500000000000019E-002    -3.0286226859743692E-009
   8.4600000000000009E-002    -4.0808321166707628E-009
   8.5700000000000026E-002    -6.9386953960304254E-009
   8.6800000000000016E-002    -1.1830477930629968E-008
   8.7900000000000006E-002    -1.6051210138812166E-008
   8.9000000000000024E-002    -1.6588371565262605E-008
   9.0100000000000013E-002    -1.3242916097055968E-008
   9.1200000000000003E-002    -1.0557912766273603E-008
   9.2300000000000021E-002    -1.4087128796802517E-008
   9.3400000000000011E-002    -2.2487126827286374E-008
   9.4500000000000028E-002    -2.7918401812598859E-008
   9.5600000000000018E-002    -2.5463315012075327E-008
   9.6700000000000008E-002    -1.7361195148168918E-008
   9.7800000000000026E-002    -1.2014989891895311E-008
   9.8900000000000016E-002    -1.4759907074335388E-008
  0.10000000000000001         -2.3012699301716566E-008
  0.10110000000000002         -2.7903350741098620E-008
  0.10220000000000001         -2.5017151017436845E-008
  0.10330000000000003         -1.5594654456663193E-008
  0.10440000000000002         -7.5858705983478103E-009
  0.10550000000000001         -8.9534886171804828E-009
  0.10660000000000003         -1.5471721681592498E-008
  0.10770000000000002         -2.0455543037201096E-008
  0.10880000000000001         -1.7216978065448529E-008
  0.10990000000000003         -4.9918593703068836E-009
  0.11100000000000002          6.1896745506828665E-009
  0.11210000000000001          9.4287413432425637E-009
  0.11320000000000002          3.0297626629760543E-009
  0.11430000000000001         -5.9840430388646837E-009
  0.11540000000000003         -9.2639815818529314E-009
  0.11650000000000002         -1.7107171235153373E-009
  0.11760000000000001          1.2932174442426003E-008
  0.11870000000000003          2.1452274623356971E-008
  0.11980000000000002          1.4276635873500254E-008
  0.12090000000000001          6.2997079774973486E-010
  0.12200000000000003         -4.3413352912580194E-009
  0.12310000000000001          7.9998931923341843E-009
  0.12420000000000003          2.5096658973211561E-008
  0.12530000000000002          2.8800871021417151E-008
  0.12640000000000001          1.7641415439584307E-008
  0.12750000000000003          4.6287920163479157E-009
  0.12860000000000002          3.5233424511282863E-010
  0.12970000000000001          4.2952255085992874E-009
  0.13080000000000003          1.1033703728458022E-008
  0.13190000000000002          1.7215912251344889E-008
  0.13300000000000001          2.0420799273779267E-008
  0.13410000000000000          1.5809591857873784E-008
  0.13520000000000004          3.2519278381215599E-009
  0.13630000000000003         -6.5199050602871012E-009
  0.13740000000000002         -1.8323869088732181E-009
  0.13850000000000001          1.3919617458668654E-008
  0.13960000000000000          2.2055871795600979E-008
  0.14070000000000005          1.0727136512400648E-008
  0.14180000000000004         -8.6247018415974708E-009
  0.14290000000000003         -1.4587697272361311E-008
  0.14400000000000002         -1.9572419240887484E-009
  0.14510000000000001          1.2474417054875175E-008
  0.14620000000000000          1.2528830417579684E-008
  0.14730000000000004          1.6742998099061879E-009
  0.14840000000000003         -6.4629963603124452E-009
  0.14950000000000002         -6.7779222234776171E-009
  0.15060000000000001         -6.6038055024364439E-009
  0.15170000000000000         -7.5174204638983610E-009
  0.15280000000000005         -4.1312713250363231E-009
  0.15390000000000004          5.6643276735712789E-009
  0.15500000000000003          1.0642636993907217E-008
  0.15610000000000002          8.4872175953876194E-010
  0.15720000000000001         -1.5044596679558708E-008
  0.15830000000000000         -1.7178589217792251E-008
  0.15940000000000004         -2.3016542005649399E-009
  0.16050000000000003          1.1022330603793762E-008
  0.16160000000000002          6.7118297586432618E-009
  0.16270000000000001         -7.5000876620379131E-009
  0.16380000000000000         -1.2408501781635550E-008
  0.16490000000000005         -4.6972861156291401E-009
  0.16600000000000004          2.0139157008713937E-009
  0.16710000000000003         -6.3803418104413367E-010
  0.16820000000000002         -3.4460694298132921E-009
  0.16930000000000001          2.4596953362987506E-009
  0.17040000000000000          7.9031572397525451E-009
  0.17150000000000004         -3.6553968185693009E-010
  0.17260000000000003         -1.5205731784817544E-008
  0.17370000000000002         -1.4880811249895487E-008
  0.17480000000000001          4.9326365214596990E-009
  0.17590000000000000          2.0771746989112216E-008
  0.17700000000000005          1.1572774738510816E-008
  0.17810000000000004         -1.1633971119806574E-008
  0.17920000000000003         -2.0161802893881031E-008
  0.18030000000000002         -5.9361133786239861E-009
  0.18140000000000001          9.9694039690234604E-009
  0.18250000000000000          8.8998897140868394E-009
  0.18360000000000004         -1.5298149413922602E-009
  0.18470000000000003         -4.1128913608190487E-009
  0.18580000000000002          9.5730101623558994E-010
  0.18690000000000001          6.9330124974342766E-010
  0.18800000000000000         -5.3045874359725076E-009
  0.18910000000000005         -3.7012006792735974E-009
  0.19020000000000004          8.7501001999612527E-009
  0.19130000000000003          1.3739974491500107E-008
  0.19240000000000002         -1.1173689751231564E-009
  0.19350000000000001         -1.9805643347581281E-008
  0.19460000000000005         -1.5599754377149111E-008
  0.19570000000000004          8.0102910970936136E-009
  0.19680000000000003          2.0662396238435576E-008
  0.19790000000000002          5.5028221979114278E-009
  0.19900000000000001         -1.5507316319940401E-008
  0.20010000000000000         -1.4679939930317687E-008
  0.20120000000000005          4.5708685725287523E-009
  0.20230000000000004          1.3918900698683956E-008
  0.20340000000000003          1.9495058900531603E-009
  0.20450000000000002         -1.1721247972218407E-008
  0.20560000000000000         -7.0510961514003156E-009
  0.20670000000000005          6.3777578773738242E-009
  0.20780000000000004          7.3500077135690844E-009
  0.20890000000000003         -3.1727980243090315E-009
