 -0.12000000000000000          0.0000000000000000
 -0.11889999999999999          0.0000000000000000
 -0.11780000000000000          0.0000000000000000
 -0.11670000000000000          0.0000000000000000
 -0.11559999999999999          0.0000000000000000
 -0.11449999999999999          0.0000000000000000
 -0.11340000000000000          0.0000000000000000
 -0.11230000000000000          0.0000000000000000
 -0.11119999999999999          0.0000000000000000
 -0.11009999999999999          0.0000000000000000
 -0.10900000000000000          0.0000000000000000
 -0.10790000000000000          0.0000000000000000
 -0.10679999999999999          0.0000000000000000
 -0.10569999999999999          0.0000000000000000
 -0.10460000000000000          0.0000000000000000
 -0.10349999999999999          0.0000000000000000
 -0.10239999999999999         -1.2766627750123749E-039
 -0.10130000000000000          1.9098914742905699E-038
 -0.10020000000000000         -7.6438931068201147E-038
  -9.9099999999999994E-002    -2.3702624970345300E-037
  -9.7999999999999990E-002     2.3041712526891566E-036
  -9.6899999999999986E-002     5.7693100098052907E-038
  -9.5799999999999996E-002    -3.4945217169305521E-035
  -9.4699999999999993E-002     2.8432895239831655E-035
  -9.3599999999999989E-002     3.9417053097307192E-034
  -9.2499999999999999E-002    -4.1312592839305826E-034
  -9.1399999999999995E-002    -3.7573890812187308E-033
  -9.0299999999999991E-002     3.4174486045884027E-033
  -8.9200000000000002E-002     3.1596333060943045E-032
  -8.8099999999999984E-002    -1.6454015971097556E-032
  -8.6999999999999994E-002    -2.3471836264309633E-031
  -8.5899999999999990E-002    -3.1437160105582168E-033
  -8.4799999999999986E-002     1.5118059176998898E-030
  -8.3699999999999997E-002     9.6947627050169274E-031
  -8.2599999999999993E-002    -8.1690613156157414E-030
  -8.1499999999999989E-002    -1.1438210787173473E-029
  -8.0399999999999999E-002     3.4766288512236299E-029
  -7.9299999999999995E-002     8.7477826504351697E-029
  -7.8199999999999992E-002    -9.6454874864632262E-029
  -7.7100000000000002E-002    -5.0348647645267618E-028
  -7.5999999999999984E-002    -2.3846143852306378E-029
  -7.4899999999999994E-002     2.2161860759338584E-027
  -7.3799999999999991E-002     2.2836535204086821E-027
  -7.2699999999999987E-002    -6.9387912481888652E-027
  -7.1599999999999997E-002    -1.6393013404094655E-026
  -7.0499999999999993E-002     9.9998481239864050E-027
  -6.9399999999999989E-002     7.3272926099097783E-026
  -6.8300000000000000E-002     4.2752353736307667E-026
  -6.7199999999999996E-002    -2.1728784134240817E-025
  -6.6099999999999992E-002    -3.9428340400739205E-025
  -6.5000000000000002E-002     2.9600869015676884E-025
  -6.3899999999999985E-002     1.6577874452326565E-024
  -6.2799999999999995E-002     9.6609980682335307E-025
  -6.1699999999999991E-002    -4.1325018889722780E-024
  -6.0599999999999994E-002    -7.9081033828999397E-024
  -5.9499999999999990E-002     3.0338724639956634E-024
  -5.8399999999999994E-002     2.7065590466192211E-023
  -5.7299999999999990E-002     2.4240648010159559E-023
  -5.6199999999999986E-002    -4.6631414042132225E-023
  -5.5099999999999996E-002    -1.2461345418963202E-022
  -5.3999999999999992E-002    -2.9612443675916352E-023
  -5.2899999999999989E-002     2.9122242985057119E-022
  -5.1799999999999985E-002     4.4413192081369743E-022
  -5.0699999999999995E-002    -1.6841936726221070E-022
  -4.9599999999999991E-002    -1.3077784049496971E-021
  -4.8499999999999988E-002    -1.2784097571588175E-021
  -4.7399999999999998E-002     1.4145179244794784E-021
  -4.6299999999999994E-002     4.7750341796944653E-021
  -4.5199999999999990E-002     3.0985793966356448E-021
  -4.4099999999999986E-002    -6.3425256885078973E-021
  -4.2999999999999997E-002    -1.5058562941999312E-020
  -4.1899999999999993E-002    -7.0256779197647473E-021
  -4.0799999999999989E-002     2.1064165607772787E-020
  -3.9699999999999985E-002     4.2842249476489925E-020
  -3.8599999999999995E-002     1.8789856747365246E-020
  -3.7499999999999992E-002    -5.4608428400962182E-020
  -3.6399999999999988E-002    -1.1360088819906127E-019
  -3.5299999999999984E-002    -6.7716636783467836E-020
  -3.4199999999999994E-002     1.0299794493568878E-019
  -3.3099999999999991E-002     2.8347337420524476E-019
  -3.1999999999999987E-002     2.7091423926606385E-019
  -3.0899999999999997E-002    -7.3058859985019390E-020
  -2.9799999999999993E-002    -6.4252443152186970E-019
  -2.8699999999999989E-002    -9.8929281316966544E-019
  -2.7599999999999986E-002    -4.7437040031356805E-019
  -2.6499999999999996E-002     1.1668184905254632E-018
  -2.5399999999999992E-002     3.0402361669896490E-018
  -2.4299999999999988E-002     2.9736235190559068E-018
  -2.3199999999999985E-002    -9.1920673044623652E-019
  -2.2099999999999995E-002    -7.4135284850289306E-018
  -2.0999999999999991E-002    -1.0854283850255530E-017
  -1.9899999999999987E-002    -4.4719923359097214E-018
  -1.8799999999999983E-002     1.2324348407704159E-017
  -1.7699999999999994E-002     2.8849938874759019E-017
  -1.6599999999999990E-002     2.7391986723020005E-017
  -1.5499999999999986E-002    -2.9333615367156539E-018
  -1.4399999999999996E-002    -5.2092122592000545E-017
  -1.3299999999999992E-002    -8.7133319754539314E-017
  -1.2199999999999989E-002    -6.7578902422683749E-017
  -1.1099999999999985E-002     2.7003484804722225E-017
  -9.9999999999999950E-003     1.6931182763988599E-016
  -8.8999999999999913E-003     2.7278243433093553E-016
  -7.7999999999999875E-003     2.1641719595615955E-016
  -6.6999999999999837E-003    -8.0199170558625690E-017
  -5.5999999999999939E-003    -5.5099493218892237E-016
  -4.4999999999999901E-003    -9.1909279293430225E-016
  -3.3999999999999864E-003    -7.7278563898801420E-016
  -2.2999999999999826E-003     1.7499062768585444E-016
  -1.1999999999999927E-003     1.7388274564853726E-015
  -9.9999999999988987E-005     3.0624016692605343E-015
   1.0000000000000148E-003     2.8381554139473523E-015
   2.1000000000000185E-003     5.3850357849708559E-017
   3.2000000000000084E-003    -4.9650127928555377E-015
   4.3000000000000121E-003    -9.8359041316451248E-015
   5.4000000000000159E-003    -1.0521850047056497E-014
   6.5000000000000058E-003    -3.3292994215997594E-015
   7.6000000000000234E-003     1.1960193306657235E-014
   8.7000000000000133E-003     2.9482072707621987E-014
   9.8000000000000032E-003     3.7523586668419817E-014
   1.0900000000000021E-002     2.3235021762504915E-014
   1.2000000000000011E-002    -1.8785450964426721E-014
   1.3100000000000001E-002    -7.7669682209229041E-014
   1.4200000000000018E-002    -1.2313799068949804E-013
   1.5300000000000008E-002    -1.1368807100158723E-013
   1.6400000000000026E-002    -1.7687199903478057E-014
   1.7500000000000016E-002     1.5864638433244621E-013
   1.8600000000000005E-002     3.5069592629194402E-013
   1.9700000000000023E-002     4.4054340796011171E-013
   2.0800000000000013E-002     3.0007761683478740E-013
   2.1900000000000003E-002    -1.3280286701063126E-013
   2.3000000000000020E-002    -7.7358583948361481E-013
   2.4100000000000010E-002    -1.3536783456322143E-012
   2.5200000000000000E-002    -1.4736819620511654E-012
   2.6300000000000018E-002    -7.6680800381243031E-013
   2.7400000000000008E-002     8.6273598941949414E-013
   2.8500000000000025E-002     3.0244739004925414E-012
   2.9600000000000015E-002     4.7866177167732449E-012
   3.0700000000000005E-002     4.8986140664675215E-012
   3.1800000000000023E-002     2.3125492406433912E-012
   3.2900000000000013E-002    -3.1295864337532731E-012
   3.4000000000000002E-002    -1.0129804113578889E-011
   3.5100000000000020E-002    -1.5848232448600896E-011
   3.6200000000000010E-002    -1.6574935868263196E-011
   3.7300000000000028E-002    -9.1790550854620179E-012
   3.8400000000000017E-002     7.0256933951129419E-012
   3.9500000000000007E-002     2.8727529036154387E-011
   4.0600000000000025E-002     4.8272934261017753E-011
   4.1700000000000015E-002     5.5237356355597456E-011
   4.2800000000000005E-002     4.0006001983394768E-011
   4.3900000000000022E-002    -1.4370545768985221E-012
   4.5000000000000012E-002    -6.3189245502748292E-011
   4.6100000000000002E-002    -1.2770223767333277E-010
   4.7200000000000020E-002    -1.6843308692227055E-010
   4.8300000000000010E-002    -1.5741814796133013E-010
   4.9400000000000027E-002    -7.6404445270572552E-011
   5.0500000000000017E-002     7.1804950874110318E-011
   5.1600000000000007E-002     2.5637303391334854E-010
   5.2700000000000025E-002     4.2017619938938822E-010
   5.3800000000000014E-002     4.9261644763376466E-010
   5.4900000000000004E-002     4.1231956737775022E-010
   5.6000000000000022E-002     1.5443671341763832E-010
   5.7100000000000012E-002    -2.4606039428221038E-010
   5.8200000000000002E-002    -6.8482991499863033E-010
   5.9300000000000019E-002    -1.0000549277577875E-009
   6.0400000000000009E-002    -1.0081985246657155E-009
   6.1500000000000027E-002    -5.5865012615896603E-010
   6.2600000000000017E-002     4.0509029464175228E-010
   6.3700000000000007E-002     1.7948528219235982E-009
   6.4800000000000024E-002     3.3552385314550293E-009
   6.5900000000000014E-002     4.6811425846726706E-009
   6.7000000000000004E-002     5.2775934733517715E-009
   6.8100000000000022E-002     4.6519388341437207E-009
   6.9200000000000012E-002     2.4171278312223876E-009
   7.0300000000000029E-002    -1.6214602993613880E-009
   7.1400000000000019E-002    -7.4228698743183941E-009
   7.2500000000000009E-002    -1.4729578445837888E-008
   7.3600000000000027E-002    -2.3152020744987567E-008
   7.4700000000000016E-002    -3.2304143360306625E-008
   7.5800000000000006E-002    -4.1959911101230318E-008
   7.6900000000000024E-002    -5.2192813626561474E-008
   7.8000000000000014E-002    -6.3462714194884029E-008
   7.9100000000000004E-002    -7.6628069223261264E-008
   8.0200000000000021E-002    -9.2882665114757401E-008
   8.1300000000000011E-002    -1.1363649576878743E-007
   8.2400000000000029E-002    -1.4038064932719863E-007
   8.3500000000000019E-002    -1.7458218337651488E-007
   8.4600000000000009E-002    -2.1764778068700252E-007
   8.5700000000000026E-002    -2.7097740940007498E-007
   8.6800000000000016E-002    -3.3610561445129861E-007
   8.7900000000000006E-002    -4.1489712998554751E-007
   8.9000000000000024E-002    -5.0975131671293639E-007
   9.0100000000000013E-002    -6.2377017684411840E-007
   9.1200000000000003E-002    -7.6084768352302490E-007
   9.2300000000000021E-002    -9.2568006948567927E-007
   9.3400000000000011E-002    -1.1237187891310896E-006
   9.4500000000000028E-002    -1.3611075928565697E-006
   9.5600000000000018E-002    -1.6446550716864294E-006
   9.6700000000000008E-002    -1.9818787677650107E-006
   9.7800000000000026E-002    -2.3811373921489576E-006
   9.8900000000000016E-002    -2.8518356884887908E-006
  0.10000000000000001         -3.4046768178086495E-006
  0.10110000000000002         -4.0518843889003620E-006
  0.10220000000000001         -4.8073779908008873E-006
  0.10330000000000003         -5.6868348110583611E-006
  0.10440000000000002         -6.7076803134114016E-006
  0.10550000000000001         -7.8890152508392930E-006
  0.10660000000000003         -9.2515356300282292E-006
  0.10770000000000002         -1.0817463589773979E-005
  0.10880000000000001         -1.2610525118361693E-005
  0.10990000000000003         -1.4655941413366236E-005
  0.11100000000000002         -1.6980409782263450E-005
  0.11210000000000001         -1.9612134565250017E-005
  0.11320000000000002         -2.2580674340133555E-005
  0.11430000000000001         -2.5916675440385006E-005
  0.11540000000000003         -2.9651577278855257E-005
  0.11650000000000002         -3.3817093935795128E-005
  0.11760000000000001         -3.8444708479801193E-005
  0.11870000000000003         -4.3565094529185444E-005
  0.11980000000000002         -4.9207308620680124E-005
  0.12090000000000001         -5.5397980759153143E-005
  0.12200000000000003         -6.2160404922906309E-005
  0.12310000000000001         -6.9513691414613277E-005
  0.12420000000000003         -7.7471893746405840E-005
  0.12530000000000002         -8.6042731709312648E-005
  0.12640000000000001         -9.5226234407164156E-005
  0.12750000000000003         -1.0501388896955177E-004
  0.12860000000000002         -1.1538750550244004E-004
  0.12970000000000001         -1.2631810386665165E-004
  0.13080000000000003         -1.3776453852187842E-004
  0.13190000000000002         -1.4967197785153985E-004
  0.13300000000000001         -1.6197131481021643E-004
  0.13410000000000000         -1.7457791545893997E-004
  0.13520000000000004         -1.8739071674644947E-004
  0.13630000000000003         -2.0029135339427739E-004
  0.13740000000000002         -2.1314389596227556E-004
  0.13850000000000001         -2.2579470532946289E-004
  0.13960000000000000         -2.3807310208212584E-004
  0.14070000000000005         -2.4979177396744490E-004
  0.14180000000000004         -2.6074796915054321E-004
  0.14290000000000003         -2.7072522789239883E-004
  0.14400000000000002         -2.7949461946263909E-004
  0.14510000000000001         -2.8681685216724873E-004
  0.14620000000000000         -2.9244509642012417E-004
  0.14730000000000004         -2.9612900107167661E-004
  0.14840000000000003         -2.9761821497231722E-004
  0.14950000000000002         -2.9666521004401147E-004
  0.15060000000000001         -2.9302964685484767E-004
  0.15170000000000000         -2.8648306033574045E-004
  0.15280000000000005         -2.7681511710397899E-004
  0.15390000000000004         -2.6383981457911432E-004
  0.15500000000000003         -2.4739926448091865E-004
  0.15610000000000002         -2.2736814571544528E-004
  0.15720000000000001         -2.0365843374747783E-004
  0.15830000000000000         -1.7622474115341902E-004
  0.15940000000000004         -1.4506970182992518E-004
  0.16050000000000003         -1.1024696141248569E-004
  0.16160000000000002         -7.1863782068248838E-005
  0.16270000000000001         -3.0083063393249176E-005
  0.16380000000000000          1.4874699445499573E-005
  0.16490000000000005          6.2730134231969714E-005
  0.16600000000000004          1.1314504808979109E-004
  0.16710000000000003          1.6572409367654473E-004
  0.16820000000000002          2.2001797333359718E-004
  0.16930000000000001          2.7552797109819949E-004
  0.17040000000000000          3.3171140239574015E-004
  0.17150000000000004          3.8798764580860734E-004
  0.17260000000000003          4.4374394929036498E-004
  0.17370000000000002          4.9834349192678928E-004
  0.17480000000000001          5.5113539565354586E-004
  0.17590000000000000          6.0146412579342723E-004
  0.17700000000000005          6.4867979381233454E-004
  0.17810000000000004          6.9214793620631099E-004
  0.17920000000000003          7.3125981725752354E-004
  0.18030000000000002          7.6544337207451463E-004
  0.18140000000000001          7.9417350934818387E-004
  0.18250000000000000          8.1698270514607430E-004
  0.18360000000000004          8.3347107283771038E-004
  0.18470000000000003          8.4331299876794219E-004
  0.18580000000000002          8.4626243915408850E-004
  0.18690000000000001          8.4215810056775808E-004
  0.18800000000000000          8.3092926070094109E-004
  0.18910000000000005          8.1259832950308919E-004
  0.19020000000000004          7.8728178050369024E-004
  0.19130000000000003          7.5518991798162460E-004
  0.19240000000000002          7.1662320988252759E-004
  0.19350000000000001          6.7196891177445650E-004
  0.19460000000000005          6.2169384909793735E-004
  0.19570000000000004          5.6633830536156893E-004
  0.19680000000000003          5.0650979392230511E-004
  0.19790000000000002          4.4287275522947311E-004
  0.19900000000000001          3.7613700260408223E-004
  0.20010000000000000          3.0704465461894870E-004
  0.20120000000000005          2.3635842080693692E-004
  0.20230000000000004          1.6485141532029957E-004
  0.20340000000000003          9.3296868726611137E-005
  0.20450000000000002          2.2456926672020927E-005
  0.20560000000000000         -4.6931250835768878E-005
  0.20670000000000005         -1.1416825873311609E-004
  0.20780000000000004         -1.7860227671917528E-004
  0.20890000000000003         -2.3963599232956767E-004
