 -0.12000000000000000          0.0000000000000000
 -0.11889999999999999          0.0000000000000000
 -0.11780000000000000          0.0000000000000000
 -0.11670000000000000          0.0000000000000000
 -0.11559999999999999          0.0000000000000000
 -0.11449999999999999          0.0000000000000000
 -0.11340000000000000          0.0000000000000000
 -0.11230000000000000          0.0000000000000000
 -0.11119999999999999         -1.3774267133906068E-023
 -0.11009999999999999          7.4785907081124450E-023
 -0.10900000000000000          1.3171763257946485E-022
 -0.10790000000000000         -1.1165828563053281E-021
 -0.10679999999999999         -1.2200410173919775E-021
 -0.10569999999999999          9.2650868669059398E-021
 -0.10460000000000000          1.2694168135212351E-020
 -0.10349999999999999         -5.1418936281231348E-020
 -0.10239999999999999         -1.0754812977602374E-019
 -0.10130000000000000          1.7736476487726204E-019
 -0.10020000000000000          6.5581391524314664E-019
  -9.9099999999999994E-002    -1.4722121768127573E-019
  -9.7999999999999990E-002    -2.7449285524051553E-018
  -9.6899999999999986E-002    -2.2943550009413956E-018
  -9.5799999999999996E-002     6.9433060852945862E-018
  -9.4699999999999993E-002     1.4974194203057569E-017
  -9.3599999999999989E-002    -3.7990879386330401E-018
  -9.2499999999999999E-002    -4.5984684170052018E-017
  -9.1399999999999995E-002    -4.3875535735441858E-017
  -9.0299999999999991E-002     5.8752084575909992E-017
  -8.9200000000000002E-002     1.6859314665392032E-016
  -8.8099999999999984E-002     8.5543286711310283E-017
  -8.6999999999999994E-002    -2.1042136735990158E-016
  -8.5899999999999990E-002    -4.2257489062715861E-016
  -8.4799999999999986E-002    -2.6360906751217146E-016
  -8.3699999999999997E-002     2.2213716974429844E-016
  -8.2599999999999993E-002     8.9559281672479734E-016
  -8.1499999999999989E-002     1.6091096545692968E-015
  -8.0399999999999999E-002     1.2609114564911175E-015
  -7.9299999999999995E-002    -2.2427266156531270E-015
  -7.8199999999999992E-002    -8.0433681159193700E-015
  -7.7100000000000002E-002    -8.0303983474310121E-015
  -7.5999999999999984E-002     6.8649885851933962E-015
  -7.4899999999999994E-002     2.8861363575742247E-014
  -7.3799999999999991E-002     2.7703882888923878E-014
  -7.2699999999999987E-002    -1.8341371918972026E-014
  -7.1599999999999997E-002    -7.7845221317218022E-014
  -7.0499999999999993E-002    -7.4424292412483134E-014
  -6.9399999999999989E-002     2.9495953883561590E-014
  -6.8300000000000000E-002     1.5958491039053113E-013
  -6.7199999999999996E-002     1.7743570284931010E-013
  -6.6099999999999992E-002     2.2101237669418933E-014
  -6.5000000000000002E-002    -2.1710445127862826E-013
  -6.3899999999999985E-002    -3.7860914490345232E-013
  -6.2799999999999995E-002    -3.3554056885418126E-013
  -6.1699999999999991E-002    -1.0468903711589525E-014
  -6.0599999999999994E-002     5.8984230260489268E-013
  -5.9499999999999990E-002     1.1826564033645681E-012
  -5.8399999999999994E-002     1.1202766145301801E-012
  -5.7299999999999990E-002    -1.2979688938236089E-013
  -5.6199999999999986E-002    -2.1265237834522388E-012
  -5.5099999999999996E-002    -3.3092760302888546E-012
  -5.3999999999999992E-002    -2.2620904715359158E-012
  -5.2899999999999989E-002     7.0431784319688329E-013
  -5.1799999999999985E-002     3.6538766803873024E-012
  -5.0699999999999995E-002     4.9972317950341960E-012
  -4.9599999999999991E-002     4.8859293347303101E-012
  -4.8499999999999988E-002     4.0149619739970888E-012
  -4.7399999999999998E-002     1.5008108688110977E-012
  -4.6299999999999994E-002    -4.5594578459984270E-012
  -4.5199999999999990E-002    -1.3610444368761243E-011
  -4.4099999999999986E-002    -2.0701593217431480E-011
  -4.2999999999999997E-002    -1.9555858668529602E-011
  -4.1899999999999993E-002    -7.7932400116553779E-012
  -4.0799999999999989E-002     1.1559480803113864E-011
  -3.9699999999999985E-002     3.3111357405912756E-011
  -3.8599999999999995E-002     5.1546936857826964E-011
  -3.7499999999999992E-002     6.0495136677829464E-011
  -3.6399999999999988E-002     5.1945944073983341E-011
  -3.5299999999999984E-002     2.0565302932817886E-011
  -3.4199999999999994E-002    -3.0862108008067324E-011
  -3.3099999999999991E-002    -9.2067360679681798E-011
  -3.1999999999999987E-002    -1.5063496283662658E-010
  -3.0899999999999997E-002    -1.9280711749392054E-010
  -2.9799999999999993E-002    -1.9814321017275205E-010
  -2.8699999999999989E-002    -1.4018577965124734E-010
  -2.7599999999999986E-002    -1.7818605748884386E-012
  -2.6499999999999996E-002     2.0688917246047822E-010
  -2.5399999999999992E-002     4.4721520930934844E-010
  -2.4299999999999988E-002     6.6659788799938724E-010
  -2.3199999999999985E-002     8.0620227160821401E-010
  -2.2099999999999995E-002     7.9367817873432500E-010
  -2.0999999999999991E-002     5.4365145718549002E-010
  -1.9899999999999987E-002    -1.4498098034609885E-011
  -1.8799999999999983E-002    -9.0459162382927616E-010
  -1.7699999999999994E-002    -2.1100168279275522E-009
  -1.6599999999999990E-002    -3.6174923057075148E-009
  -1.5499999999999986E-002    -5.4444737607184379E-009
  -1.4399999999999996E-002    -7.6170660889829378E-009
  -1.3299999999999992E-002    -1.0139807216091867E-008
  -1.2199999999999989E-002    -1.3019162636851433E-008
  -1.1099999999999985E-002    -1.6328037588664301E-008
  -9.9999999999999950E-003    -2.0232095110372939E-008
  -8.8999999999999913E-003    -2.4944176502117443E-008
  -7.7999999999999875E-003    -3.0673401596459371E-008
  -6.6999999999999837E-003    -3.7646699979632103E-008
  -5.5999999999999939E-003    -4.6176570123179772E-008
  -4.4999999999999901E-003    -5.6688282512595833E-008
  -3.3999999999999864E-003    -6.9684261916336254E-008
  -2.2999999999999826E-003    -8.5714574993289716E-008
  -1.1999999999999927E-003    -1.0539523032093712E-007
  -9.9999999999988987E-005    -1.2942288662998180E-007
   1.0000000000000148E-003    -1.5854722335006954E-007
   2.1000000000000185E-003    -1.9357318592483352E-007
   3.2000000000000084E-003    -2.3547227101516910E-007
   4.3000000000000121E-003    -2.8551997388603922E-007
   5.4000000000000159E-003    -3.4527153047747561E-007
   6.5000000000000058E-003    -4.1640549852672848E-007
   7.6000000000000234E-003    -5.0067041001966572E-007
   8.7000000000000133E-003    -6.0008380842191400E-007
   9.8000000000000032E-003    -7.1719534844305599E-007
   1.0900000000000021E-002    -8.5504370872513391E-007
   1.2000000000000011E-002    -1.0168488415729371E-006
   1.3100000000000001E-002    -1.2058591210006853E-006
   1.4200000000000018E-002    -1.4256013400881784E-006
   1.5300000000000008E-002    -1.6802573554741684E-006
   1.6400000000000026E-002    -1.9747246824408649E-006
   1.7500000000000016E-002    -2.3142708869272610E-006
   1.8600000000000005E-002    -2.7043572572438279E-006
   1.9700000000000023E-002    -3.1506897357758135E-006
   2.0800000000000013E-002    -3.6595338315237314E-006
   2.1900000000000003E-002    -4.2376996134407818E-006
   2.3000000000000020E-002    -4.8925139708444476E-006
   2.4100000000000010E-002    -5.6316671361855697E-006
   2.5200000000000000E-002    -6.4631381064828020E-006
   2.6300000000000018E-002    -7.3948222052422352E-006
   2.7400000000000008E-002    -8.4342327681952156E-006
   2.8500000000000025E-002    -9.5887535280780867E-006
   2.9600000000000015E-002    -1.0866225238714833E-005
   3.0700000000000005E-002    -1.2274746950424742E-005
   3.1800000000000023E-002    -1.3821751053910702E-005
   3.2900000000000013E-002    -1.5513009202550165E-005
   3.4000000000000002E-002    -1.7352916984236799E-005
   3.5100000000000020E-002    -1.9344990505487658E-005
   3.6200000000000010E-002    -2.1492671294254251E-005
   3.7300000000000028E-002    -2.3797905669198371E-005
   3.8400000000000017E-002    -2.6259634978487156E-005
   3.9500000000000007E-002    -2.8872780603705905E-005
   4.0600000000000025E-002    -3.1629111617803574E-005
   4.1700000000000015E-002    -3.4518736356403679E-005
   4.2800000000000005E-002    -3.7530058762058616E-005
   4.3900000000000022E-002    -4.0647912101121619E-005
   4.5000000000000012E-002    -4.3852342059835792E-005
   4.6100000000000002E-002    -4.7117860958678648E-005
   4.7200000000000020E-002    -5.0414819270372391E-005
   4.8300000000000010E-002    -5.3709671192336828E-005
   4.9400000000000027E-002    -5.6965451221913099E-005
   5.0500000000000017E-002    -6.0141221183585003E-005
   5.1600000000000007E-002    -6.3192695961333811E-005
   5.2700000000000025E-002    -6.6069813328795135E-005
   5.3800000000000014E-002    -6.8716042733285576E-005
   5.4900000000000004E-002    -7.1070957346819341E-005
   5.6000000000000022E-002    -7.3075549153145403E-005
   5.7100000000000012E-002    -7.4672047048807144E-005
   5.8200000000000002E-002    -7.5800307968165725E-005
   5.9300000000000019E-002    -7.6395059295464307E-005
   6.0400000000000009E-002    -7.6388205343391746E-005
   6.1500000000000027E-002    -7.5714560807682574E-005
   6.2600000000000017E-002    -7.4318646511528641E-005
   6.3700000000000007E-002    -7.2150513005908579E-005
   6.4800000000000024E-002    -6.9163914304226637E-005
   6.5900000000000014E-002    -6.5312466176692396E-005
   6.7000000000000004E-002    -6.0556598327821121E-005
   6.8100000000000022E-002    -5.4870397434569895E-005
   6.9200000000000012E-002    -4.8241985496133566E-005
   7.0300000000000029E-002    -4.0668586734682322E-005
   7.1400000000000019E-002    -3.2160154660232365E-005
   7.2500000000000009E-002    -2.2741069187759422E-005
   7.3600000000000027E-002    -1.2447304470697418E-005
   7.4700000000000016E-002    -1.3229388287072652E-006
   7.5800000000000006E-002     1.0568934158072807E-005
   7.6900000000000024E-002     2.3141510610003024E-005
   7.8000000000000014E-002     3.6290850403020158E-005
   7.9100000000000004E-002     4.9908470828086138E-005
   8.0200000000000021E-002     6.3881336245685816E-005
   8.1300000000000011E-002     7.8083758126012981E-005
   8.2400000000000029E-002     9.2368332843761891E-005
   8.3500000000000019E-002     1.0657471284503117E-004
   8.4600000000000009E-002     1.2053878890583292E-004
   8.5700000000000026E-002     1.3410024985205382E-004
   8.6800000000000016E-002     1.4709953393321484E-004
   8.7900000000000006E-002     1.5937496209517121E-004
   8.9000000000000024E-002     1.7076314543373883E-004
   9.0100000000000013E-002     1.8110459495801479E-004
   9.1200000000000003E-002     1.9024798530153930E-004
   9.2300000000000021E-002     1.9805450574494898E-004
   9.3400000000000011E-002     2.0440366643015295E-004
   9.4500000000000028E-002     2.0919527742080390E-004
   9.5600000000000018E-002     2.1234566520433873E-004
   9.6700000000000008E-002     2.1378271048888564E-004
   9.7800000000000026E-002     2.1344961714930832E-004
   9.8900000000000016E-002     2.1131287212483585E-004
  0.10000000000000001          2.0737477461807430E-004
  0.10110000000000002          2.0166827016510069E-004
  0.10220000000000001          1.9424560014158487E-004
  0.10330000000000003          1.8517021089792252E-004
  0.10440000000000002          1.7452036263421178E-004
  0.10550000000000001          1.6240176046267152E-004
  0.10660000000000003          1.4894992636982352E-004
  0.10770000000000002          1.3432309788186103E-004
  0.10880000000000001          1.1868673755088821E-004
  0.10990000000000003          1.0221374395769089E-004
  0.11100000000000002          8.5081228462513536E-005
  0.11210000000000001          6.7475099058356136E-005
  0.11320000000000002          4.9589205445954576E-005
  0.11430000000000001          3.1621235393686220E-005
  0.11540000000000003          1.3774306353298016E-005
  0.11650000000000002         -3.7624770357069792E-006
  0.11760000000000001         -2.0814108211197890E-005
  0.11870000000000003         -3.7222540413495153E-005
  0.11980000000000002         -5.2839495765510947E-005
  0.12090000000000001         -6.7518471041694283E-005
  0.12200000000000003         -8.1124337157234550E-005
  0.12310000000000001         -9.3545546405948699E-005
  0.12420000000000003         -1.0470434790477157E-004
  0.12530000000000002         -1.1454137711552903E-004
  0.12640000000000001         -1.2301353854127228E-004
  0.12750000000000003         -1.3009129907004535E-004
  0.12860000000000002         -1.3575797493103892E-004
  0.12970000000000001         -1.4001972158439457E-004
  0.13080000000000003         -1.4290488616097718E-004
  0.13190000000000002         -1.4445955457631499E-004
  0.13300000000000001         -1.4474672207143158E-004
  0.13410000000000000         -1.4384312089532614E-004
  0.13520000000000004         -1.4182925224304199E-004
  0.13630000000000003         -1.3878838217351586E-004
  0.13740000000000002         -1.3481068890541792E-004
  0.13850000000000001         -1.3000154285691679E-004
  0.13960000000000000         -1.2447958579286933E-004
  0.14070000000000005         -1.1836355406558141E-004
  0.14180000000000004         -1.1175851250300184E-004
  0.14290000000000003         -1.0475797898834571E-004
  0.14400000000000002         -9.7456584626343101E-005
  0.14510000000000001         -8.9956804004032165E-005
  0.14620000000000000         -8.2361962995491922E-005
  0.14730000000000004         -7.4764495366252959E-005
  0.14840000000000003         -6.7242493969388306E-005
  0.14950000000000002         -5.9864112699870020E-005
  0.15060000000000001         -5.2688788855448365E-005
  0.15170000000000000         -4.5767272240482271E-005
  0.15280000000000005         -3.9143997128121555E-005
  0.15390000000000004         -3.2862913940334693E-005
  0.15500000000000003         -2.6964413336827420E-005
  0.15610000000000002         -2.1474059394677170E-005
  0.15720000000000001         -1.6396663340856321E-005
  0.15830000000000000         -1.1726909178833012E-005
  0.15940000000000004         -7.4665090323833283E-006
  0.16050000000000003         -3.6269043448555749E-006
  0.16160000000000002         -2.1286997764491389E-007
  0.16270000000000001          2.7908588435821002E-006
  0.16380000000000000          5.4134611673362087E-006
  0.16490000000000005          7.6808237281511538E-006
  0.16600000000000004          9.6078465503524058E-006
  0.16710000000000003          1.1209381227672566E-005
  0.16820000000000002          1.2509696716733743E-005
  0.16930000000000001          1.3535455764213111E-005
  0.17040000000000000          1.4309521247923840E-005
  0.17150000000000004          1.4853964785288554E-005
  0.17260000000000003          1.5197689208434895E-005
  0.17370000000000002          1.5371415429399349E-005
  0.17480000000000001          1.5395229638670571E-005
  0.17590000000000000          1.5277273632818833E-005
  0.17700000000000005          1.5029767382657155E-005
  0.17810000000000004          1.4680164895253256E-005
  0.17920000000000003          1.4259557246987242E-005
  0.18030000000000002          1.3783407666778658E-005
  0.18140000000000001          1.3252507415018044E-005
  0.18250000000000000          1.2672352568188217E-005
  0.18360000000000004          1.2061272173014004E-005
  0.18470000000000003          1.1438354704296216E-005
  0.18580000000000002          1.0809266314026900E-005
  0.18690000000000001          1.0171424037253018E-005
  0.18800000000000000          9.5306040748255327E-006
  0.18910000000000005          8.9014856712310575E-006
  0.19020000000000004          8.2923534137080424E-006
  0.19130000000000003          7.6978321885690093E-006
  0.19240000000000002          7.1128356466942932E-006
  0.19350000000000001          6.5459503275633324E-006
  0.19460000000000005          6.0112820392532740E-006
  0.19570000000000004          5.5105979299696628E-006
  0.19680000000000003          5.0333460421825293E-006
  0.19790000000000002          4.5742590373265557E-006
  0.19900000000000001          4.1423659240535926E-006
  0.20010000000000000          3.7471536415978335E-006
  0.20120000000000005          3.3841827189462492E-006
  0.20230000000000004          3.0421986139117507E-006
  0.20340000000000003          2.7217272418056382E-006
  0.20450000000000002          2.4355124423891539E-006
  0.20560000000000000          2.1892758468311513E-006
  0.20670000000000005          1.9726041955436813E-006
  0.20780000000000004          1.7736792869982310E-006
  0.20890000000000003          1.5961009012244176E-006
