 -0.12000000000000000          0.0000000000000000
 -0.11889999999999999          0.0000000000000000
 -0.11780000000000000          0.0000000000000000
 -0.11670000000000000          0.0000000000000000
 -0.11559999999999999          0.0000000000000000
 -0.11449999999999999          0.0000000000000000
 -0.11340000000000000          0.0000000000000000
 -0.11230000000000000          0.0000000000000000
 -0.11119999999999999          0.0000000000000000
 -0.11009999999999999          0.0000000000000000
 -0.10900000000000000          0.0000000000000000
 -0.10790000000000000          0.0000000000000000
 -0.10679999999999999          0.0000000000000000
 -0.10569999999999999          0.0000000000000000
 -0.10460000000000000          0.0000000000000000
 -0.10349999999999999          0.0000000000000000
 -0.10239999999999999          1.2766599724154462E-039
 -0.10130000000000000         -1.9186278695664030E-038
 -0.10020000000000000          7.7817612575311761E-038
  -9.9099999999999994E-002     2.3085990867871179E-037
  -9.7999999999999990E-002    -2.3180818192302442E-036
  -9.6899999999999986E-002     1.2028114872935898E-037
  -9.5799999999999996E-002     3.4851303895046956E-035
  -9.4699999999999993E-002    -3.1063017932048445E-035
  -9.3599999999999989E-002    -3.9044582100214804E-034
  -9.2499999999999999E-002     4.4235923311881042E-034
  -9.1399999999999995E-002     3.7066349085700707E-033
  -9.0299999999999991E-002    -3.6974017677863463E-033
  -8.9200000000000002E-002    -3.1138422175316100E-032
  -8.8099999999999984E-002     1.8877028680984951E-032
  -8.6999999999999994E-002     2.3176232348919650E-031
  -8.5899999999999990E-002    -1.5813750646827549E-032
  -8.4799999999999986E-002    -1.4998312037678372E-030
  -8.3699999999999997E-002    -8.3818060448094816E-031
  -8.2599999999999993E-002     8.1725543205890968E-030
  -8.1499999999999989E-002     1.0656438959243852E-029
  -8.0399999999999999E-002    -3.5342776520636622E-029
  -7.9299999999999995E-002    -8.3639875440894347E-029
  -7.8199999999999992E-002     1.0256863715806125E-028
  -7.7100000000000002E-002     4.8924971341427408E-028
  -7.5999999999999984E-002    -1.8458055410962044E-029
  -7.4899999999999994E-002    -2.1878802983552103E-027
  -7.3799999999999991E-002    -2.0646978191122027E-027
  -7.2699999999999987E-002     7.0269895951780675E-027
  -7.1599999999999997E-002     1.5547775136797585E-026
  -7.0499999999999993E-002    -1.1227662359900289E-026
  -6.9399999999999989E-002    -7.1161262552361753E-026
  -6.8300000000000000E-002    -3.5715797661909839E-026
  -6.7199999999999996E-002     2.1690041203033150E-025
  -6.6099999999999992E-002     3.6787559495182661E-025
  -6.5000000000000002E-002    -3.2414854193736016E-025
  -6.3899999999999985E-002    -1.5971676261861742E-024
  -6.2799999999999995E-002    -8.0030091676472034E-025
  -6.1699999999999991E-002     4.1233258589227472E-024
  -6.0599999999999994E-002     7.3580709055954944E-024
  -5.9499999999999990E-002    -3.6587349062627897E-024
  -5.8399999999999994E-002    -2.6110455037090525E-023
  -5.7299999999999990E-002    -2.1189887809120151E-023
  -5.6199999999999986E-002     4.7535896712509670E-023
  -5.5099999999999996E-002     1.1690399860444122E-022
  -5.3999999999999992E-002     1.7467365215630737E-023
  -5.2899999999999989E-002    -2.8513138867675733E-022
  -5.1799999999999985E-002    -4.0361473730054894E-022
  -5.0699999999999995E-002     2.0385916431031812E-022
  -4.9599999999999991E-002     1.2484839337551367E-021
  -4.8499999999999988E-002     1.1123679914213940E-021
  -4.7399999999999998E-002    -1.4838034894326184E-021
  -4.6299999999999994E-002    -4.4647271471973571E-021
  -4.5199999999999990E-002    -2.5258513342900058E-021
  -4.4099999999999986E-002     6.3875193862900237E-021
  -4.2999999999999997E-002     1.3827071955666850E-020
  -4.1899999999999993E-002     5.2616276178934021E-021
  -4.0799999999999989E-002    -2.0818927558783555E-020
  -3.9699999999999985E-002    -3.8786780034772765E-020
  -3.8599999999999995E-002    -1.3625522613952342E-020
  -3.7499999999999992E-002     5.3746590213212890E-020
  -3.6399999999999988E-002     1.0212786725355663E-019
  -3.5299999999999984E-002     5.2514443298504067E-020
  -3.4199999999999994E-002    -1.0379751839529785E-019
  -3.3099999999999991E-002    -2.5564675990501948E-019
  -3.1999999999999987E-002    -2.2517937149921867E-019
  -3.0899999999999997E-002     9.4254975440778589E-020
  -2.9799999999999993E-002     5.8873246269724003E-019
  -2.8699999999999989E-002     8.5428763141912010E-019
  -2.7599999999999986E-002     3.4697802023428965E-019
  -2.6499999999999996E-002    -1.1131517361660587E-018
  -2.5399999999999992E-002    -2.6784966434352560E-018
  -2.4299999999999988E-002    -2.4453181510693140E-018
  -2.3199999999999985E-002     1.0944723435733863E-018
  -2.2099999999999995E-002     6.6298939686431445E-018
  -2.0999999999999991E-002     9.1416800110390038E-018
  -1.9899999999999987E-002     3.0897470625540104E-018
  -1.8799999999999983E-002    -1.1339914143259900E-017
  -1.7699999999999994E-002    -2.4515181592736133E-017
  -1.6599999999999990E-002    -2.1833043493449266E-017
  -1.5499999999999986E-002     4.4463456010175148E-018
  -1.4399999999999996E-002     4.4554799910858153E-017
  -1.3299999999999992E-002     7.1257295197368258E-017
  -1.2199999999999989E-002     5.3101157207862131E-017
  -1.1099999999999985E-002    -2.4462799553265600E-017
  -9.9999999999999950E-003    -1.3876203591505295E-016
  -8.8999999999999913E-003    -2.2124491317859464E-016
  -7.7999999999999875E-003    -1.7593296507456465E-016
  -6.6999999999999837E-003     6.2253837893867477E-017
  -5.5999999999999939E-003     4.4271378716239924E-016
  -4.4999999999999901E-003     7.4575957049820805E-016
  -3.3999999999999864E-003     6.4074341984599503E-016
  -2.2999999999999826E-003    -1.0890682444185824E-016
  -1.1999999999999927E-003    -1.3684628296940218E-015
  -9.9999999999988987E-005    -2.4684839777442107E-015
   1.0000000000000148E-003    -2.3659120994799776E-015
   2.1000000000000185E-003    -2.2081156318184546E-016
   3.2000000000000084E-003     3.7787439972588373E-015
   4.3000000000000121E-003     7.8174576526230700E-015
   5.4000000000000159E-003     8.7108936058268027E-015
   6.5000000000000058E-003     3.4190421388448789E-015
   7.6000000000000234E-003    -8.5064478044468740E-015
   8.7000000000000133E-003    -2.2798511803466884E-014
   9.8000000000000032E-003    -3.0460924310259790E-014
   1.0900000000000021E-002    -2.1164036370863518E-014
   1.2000000000000011E-002     1.0285384706204461E-014
   1.3100000000000001E-002     5.6970636433222033E-014
   1.4200000000000018E-002     9.6729651469663197E-014
   1.5300000000000008E-002     9.7258626933355297E-014
   1.6400000000000026E-002     3.1205195220353199E-014
   1.7500000000000016E-002    -1.0240780120608639E-013
   1.8600000000000005E-002    -2.6050247571053620E-013
   1.9700000000000023E-002    -3.5581089398613319E-013
   2.0800000000000013E-002    -2.8496476012218608E-013
   2.1900000000000003E-002     1.6266234371823188E-014
   2.3000000000000020E-002     5.0909889368414007E-013
   2.4100000000000010E-002     1.0130898940932664E-012
   2.5200000000000000E-002     1.2298690711676219E-012
   2.6300000000000018E-002     8.4987469535849347E-013
   2.7400000000000008E-002    -2.7420131594978192E-013
   2.8500000000000025E-002    -1.9502134282478600E-012
   2.9600000000000015E-002    -3.5632469197466321E-012
   3.0700000000000005E-002    -4.1808531463238818E-012
   3.1800000000000023E-002    -2.8850752082504316E-012
   3.2900000000000013E-002     7.3309994142942148E-013
   3.4000000000000002E-002     6.0950988180208387E-012
   3.5100000000000020E-002     1.1422343106082256E-011
   3.6200000000000010E-002     1.4019359458050662E-011
   3.7300000000000028E-002     1.1140580645496723E-011
   3.8400000000000017E-002     1.2862224306464665E-012
   3.9500000000000007E-002    -1.4497669557911319E-011
   4.0600000000000025E-002    -3.1919744625241719E-011
   4.1700000000000015E-002    -4.3917314229702242E-011
   4.2800000000000005E-002    -4.2567963043360635E-011
   4.3900000000000022E-002    -2.2160854748487502E-011
   4.5000000000000012E-002     1.7460213830311488E-011
   4.6100000000000002E-002     6.8601437031023949E-011
   4.7200000000000020E-002     1.1579950193185695E-010
   4.8300000000000010E-002     1.3905941675940170E-010
   4.9400000000000027E-002     1.1998929627665689E-010
   5.0500000000000017E-002     4.9327587153813468E-011
   5.1600000000000007E-002    -6.6642309726194782E-011
   5.2700000000000025E-002    -2.0359357255639310E-010
   5.3800000000000014E-002    -3.2269065197709779E-010
   5.4900000000000004E-002    -3.8061120921639713E-010
   5.6000000000000022E-002    -3.4424443851044373E-010
   5.7100000000000012E-002    -2.0606252815191795E-010
   5.8200000000000002E-002     5.1655021406082913E-012
   5.9300000000000019E-002     2.2340634897588529E-010
   6.0400000000000009E-002     3.5714675661324691E-010
   6.1500000000000027E-002     3.1334834726948202E-010
   6.2600000000000017E-002     2.8923613504261425E-011
   6.3700000000000007E-002    -4.9823145609195763E-010
   6.4800000000000024E-002    -1.1879377481704978E-009
   6.5900000000000014E-002    -1.8741095342278413E-009
   6.7000000000000004E-002    -2.3228425849453060E-009
   6.8100000000000022E-002    -2.2705539670653252E-009
   6.9200000000000012E-002    -1.4743083420754033E-009
   7.0300000000000029E-002     2.3804583304531945E-010
   7.1400000000000019E-002     2.9322253514152408E-009
   7.2500000000000009E-002     6.5584284669739645E-009
   7.3600000000000027E-002     1.0974772202132499E-008
   7.4700000000000016E-002     1.6001088454231649E-008
   7.5800000000000006E-002     2.1492507329412547E-008
   7.6900000000000024E-002     2.7415753223181127E-008
   7.8000000000000014E-002     3.3909767438444760E-008
   7.9100000000000004E-002     4.1316756238529706E-008
   8.0200000000000021E-002     5.0177263233308622E-008
   8.1300000000000011E-002     6.1192118039343768E-008
   8.2400000000000029E-002     7.5166077806443354E-008
   8.3500000000000019E-002     9.2951978558630799E-008
   8.4600000000000009E-002     1.1541639111101176E-007
   8.5700000000000026E-002     1.4344071530558722E-007
   8.6800000000000016E-002     1.7796426732274995E-007
   8.7900000000000006E-002     2.2005995958807034E-007
   8.9000000000000024E-002     2.7102868216388742E-007
   9.0100000000000013E-002     3.3248656450268754E-007
   9.1200000000000003E-002     4.0642729004503053E-007
   9.2300000000000021E-002     4.9525783651915845E-007
   9.3400000000000011E-002     6.0180104810569901E-007
   9.4500000000000028E-002     7.2929742600535974E-007
   9.5600000000000018E-002     8.8139893250627210E-007
   9.6700000000000008E-002     1.0621894261930720E-006
   9.7800000000000026E-002     1.2762498045049142E-006
   9.8900000000000016E-002     1.5287386077034171E-006
  0.10000000000000001          1.8254849010190810E-006
  0.10110000000000002          2.1730963908339618E-006
  0.10220000000000001          2.5790413928916678E-006
  0.10330000000000003          3.0516807782987598E-006
  0.10440000000000002          3.6002832075610058E-006
  0.10550000000000001          4.2349956856924109E-006
  0.10660000000000003          4.9668215069686994E-006
  0.10770000000000002          5.8075934248336125E-006
  0.10880000000000001          6.7699934334086720E-006
  0.10990000000000003          7.8675229815416969E-006
  0.11100000000000002          9.1145029728068039E-006
  0.11210000000000001          1.0525996003707405E-005
  0.11320000000000002          1.2117778169340454E-005
  0.11430000000000001          1.3906183085055090E-005
  0.11540000000000003          1.5907951819826849E-005
  0.11650000000000002          1.8139911844627932E-005
  0.11760000000000001          2.0618639609892853E-005
  0.11870000000000003          2.3360236809821799E-005
  0.11980000000000002          2.6380037525086664E-005
  0.12090000000000001          2.9691917006857693E-005
  0.12200000000000003          3.3308038837276399E-005
  0.12310000000000001          3.7238231016090140E-005
  0.12420000000000003          4.1489736759103835E-005
  0.12530000000000002          4.6066310460446402E-005
  0.12640000000000001          5.0967770221177489E-005
  0.12750000000000003          5.6188997405115515E-005
  0.12860000000000002          6.1719954828731716E-005
  0.12970000000000001          6.7544497142080218E-005
  0.13080000000000003          7.3639697802718729E-005
  0.13190000000000002          7.9976030974648893E-005
  0.13300000000000001          8.6516163719352335E-005
  0.13410000000000000          9.3213886430021375E-005
  0.13520000000000004          1.0001470218412578E-004
  0.13630000000000003          1.0685440793167800E-004
  0.13740000000000002          1.1366044782334939E-004
  0.13850000000000001          1.2035079998895526E-004
  0.13960000000000000          1.2683369277510792E-004
  0.14070000000000005          1.3300872524268925E-004
  0.14180000000000004          1.3876685989089310E-004
  0.14290000000000003          1.4399197243619710E-004
  0.14400000000000002          1.4856223424430937E-004
  0.14510000000000001          1.5235053433571011E-004
  0.14620000000000000          1.5522417379543185E-004
  0.14730000000000004          1.5704942052252591E-004
  0.14840000000000003          1.5769262972753495E-004
  0.14950000000000002          1.5702296514064074E-004
  0.15060000000000001          1.5491206431761384E-004
  0.15170000000000000          1.5123926277738065E-004
  0.15280000000000005          1.4589290367439389E-004
  0.15390000000000004          1.3877564924769104E-004
  0.15500000000000003          1.2980327301193029E-004
  0.15610000000000002          1.1890925816260278E-004
  0.15720000000000001          1.0604930866975337E-004
  0.15830000000000000          9.1201152827125043E-005
  0.15940000000000004          7.4366340413689613E-005
  0.16050000000000003          5.5575270380359143E-005
  0.16160000000000002          3.4887147194240242E-005
  0.16270000000000001          1.2391437849146314E-005
  0.16380000000000000         -1.1791661563620437E-005
  0.16490000000000005         -3.7511556001845747E-005
  0.16600000000000004         -6.4586114604026079E-005
  0.16710000000000003         -9.2801958089694381E-005
  0.16820000000000002         -1.2191830319352448E-004
  0.16930000000000001         -1.5166545927058905E-004
  0.17040000000000000         -1.8175000150222331E-004
  0.17150000000000004         -2.1186219237279147E-004
  0.17260000000000003         -2.4167384253814816E-004
  0.17370000000000002         -2.7084272005595267E-004
  0.17480000000000001         -2.9901950620114803E-004
  0.17590000000000000         -3.2585169537924230E-004
  0.17700000000000005         -3.5099172964692116E-004
  0.17810000000000004         -3.7410008371807635E-004
  0.17920000000000003         -3.9485108572989702E-004
  0.18030000000000002         -4.1293897083960474E-004
  0.18140000000000001         -4.2808320722542703E-004
  0.18250000000000000         -4.4003399671055377E-004
  0.18360000000000004         -4.4857780449092388E-004
  0.18470000000000003         -4.5354038593359292E-004
  0.18580000000000002         -4.5479263644665480E-004
  0.18690000000000001         -4.5225030044093728E-004
  0.18800000000000000         -4.4587670709006488E-004
  0.18910000000000005         -4.3568620458245277E-004
  0.19020000000000004         -4.2174136615358293E-004
  0.19130000000000003         -4.0415933472104371E-004
  0.19240000000000002         -3.8310376112349331E-004
  0.19350000000000001         -3.5878521157428622E-004
  0.19460000000000005         -3.3145491033792496E-004
  0.19570000000000004         -3.0140523449517787E-004
  0.19680000000000003         -2.6896607596427202E-004
  0.19790000000000002         -2.3449608124792576E-004
  0.19900000000000001         -1.9837853324133903E-004
  0.20010000000000000         -1.6101234359666705E-004
  0.20120000000000005         -1.2280857481528074E-004
  0.20230000000000004         -8.4186016465537250E-005
  0.20340000000000003         -4.5562133891507983E-005
  0.20450000000000002         -7.3473147494951263E-006
  0.20560000000000000          3.0062436053412966E-005
  0.20670000000000005          6.6290558606851846E-005
  0.20780000000000004          1.0098706843564287E-004
  0.20890000000000003          1.3382929319050163E-004
