 -0.12000000000000000          0.0000000000000000
 -0.11889999999999999          0.0000000000000000
 -0.11780000000000000          0.0000000000000000
 -0.11670000000000000          0.0000000000000000
 -0.11559999999999999          0.0000000000000000
 -0.11449999999999999          0.0000000000000000
 -0.11340000000000000          0.0000000000000000
 -0.11230000000000000          4.5173359149350863E-021
 -0.11119999999999999         -2.1335482060380530E-021
 -0.11009999999999999         -5.0255054385278025E-020
 -0.10900000000000000          6.3249275017551884E-021
 -0.10790000000000000          3.2296868936463174E-019
 -0.10679999999999999          1.0674459489676236E-019
 -0.10569999999999999         -1.4623051897125746E-018
 -0.10460000000000000         -1.2596269144829941E-018
 -0.10349999999999999          4.7662432272616785E-018
 -0.10239999999999999          7.2483636777592424E-018
 -0.10130000000000000         -1.0592424938100844E-017
 -0.10020000000000000         -2.7792537354120233E-017
  -9.9099999999999994E-002     1.2570440430202972E-017
  -9.7999999999999990E-002     7.9820388012525408E-017
  -9.6899999999999986E-002     1.2145849448960116E-017
  -9.5799999999999996E-002    -1.8955656358886401E-016
  -9.4699999999999993E-002    -1.2843997330580384E-016
  -9.3599999999999989E-002     3.9215216707930351E-016
  -9.2499999999999999E-002     5.3948984248504482E-016
  -9.1399999999999995E-002    -6.0574174206440160E-016
  -9.0299999999999991E-002    -1.6980230206799360E-015
  -8.9200000000000002E-002     1.2996952952008789E-016
  -8.8099999999999984E-002     3.8443691453967851E-015
  -8.6999999999999994E-002     2.7951545158305668E-015
  -8.5899999999999990E-002    -5.4412790903058967E-015
  -8.4799999999999986E-002    -9.5917350261378112E-015
  -8.3699999999999997E-002     2.5227925539486043E-015
  -8.2599999999999993E-002     1.8417198308410231E-014
  -8.1499999999999989E-002     8.2132439616230089E-015
  -8.0399999999999999E-002    -2.5318150218478150E-014
  -7.9299999999999995E-002    -2.8646844011520622E-014
  -7.8199999999999992E-002     2.6885367846937736E-014
  -7.7100000000000002E-002     6.7104497956591014E-014
  -7.5999999999999984E-002    -4.8575827571223276E-015
  -7.4899999999999994E-002    -1.2584720863063198E-013
  -7.3799999999999991E-002    -8.8559158107921060E-014
  -7.2699999999999987E-002     1.4607427409590173E-013
  -7.1599999999999997E-002     2.6607232042619167E-013
  -7.0499999999999993E-002    -1.4645726512520045E-014
  -6.9399999999999989E-002    -4.1285147501200770E-013
  -6.8300000000000000E-002    -2.8991457672045140E-013
  -6.7199999999999996E-002     3.7689445206261218E-013
  -6.6099999999999992E-002     6.6022952079428099E-013
  -6.5000000000000002E-002    -1.0487629238361065E-013
  -6.3899999999999985E-002    -1.0222492340464240E-012
  -6.2799999999999995E-002    -5.2546920807639008E-013
  -6.1699999999999991E-002     1.1612629260970841E-012
  -6.0599999999999994E-002     1.6429065139572652E-012
  -5.9499999999999990E-002    -4.3080033355728797E-013
  -5.8399999999999994E-002    -2.6582668358199335E-012
  -5.7299999999999990E-002    -1.4798675522856297E-012
  -5.6199999999999986E-002     2.3741763763296397E-012
  -5.5099999999999996E-002     3.6569939784736327E-012
  -5.3999999999999992E-002    -3.4669887945780464E-013
  -5.2899999999999989E-002    -4.7691789753501190E-012
  -5.1799999999999985E-002    -2.8353792837915170E-012
  -5.0699999999999995E-002     3.9462768990083941E-012
  -4.9599999999999991E-002     6.1617789863521732E-012
  -4.8499999999999988E-002    -6.3213914354778855E-013
  -4.7399999999999998E-002    -7.9608628716920649E-012
  -4.6299999999999994E-002    -4.8449026908425896E-012
  -4.5199999999999990E-002     5.9953643612165042E-012
  -4.4099999999999986E-002     1.0003460733376546E-011
  -4.2999999999999997E-002     7.0875792214375455E-013
  -4.1899999999999993E-002    -9.9524243013515701E-012
  -4.0799999999999989E-002    -7.5308700248077898E-012
  -3.9699999999999985E-002     4.1722016466683165E-012
  -3.8599999999999995E-002     8.2178959817658104E-012
  -3.7499999999999992E-002    -6.3626409913322690E-013
  -3.6399999999999988E-002    -8.0508273658796980E-012
  -3.5299999999999984E-002    -1.8639213436588697E-012
  -3.4199999999999994E-002     9.1502690841016587E-012
  -3.3099999999999991E-002     8.9039582998329259E-012
  -3.1999999999999987E-002    -8.5893287924895811E-013
  -3.0899999999999997E-002    -4.3748477063232372E-012
  -2.9799999999999993E-002     6.2791986237334396E-013
  -2.8699999999999989E-002    -1.9730035747539398E-012
  -2.7599999999999986E-002    -1.6759810553268473E-011
  -2.6499999999999996E-002    -2.0915769116669480E-011
  -2.5399999999999992E-002     2.9915891812393181E-012
  -2.4299999999999988E-002     3.0769459896662354E-011
  -2.3199999999999985E-002     2.1641174963171750E-011
  -2.2099999999999995E-002    -1.9673705373146610E-011
  -2.0999999999999991E-002    -3.8413300318396182E-011
  -1.9899999999999987E-002    -5.0669273464476472E-012
  -1.8799999999999983E-002     3.2676812644627518E-011
  -1.7699999999999994E-002     9.2148927377522227E-012
  -1.6599999999999990E-002    -5.9778855476810833E-011
  -1.5499999999999986E-002    -8.4306249481524986E-011
  -1.4399999999999996E-002    -1.9617229715662710E-011
  -1.3299999999999992E-002     6.4453310744116976E-011
  -1.2199999999999989E-002     6.8625126414811888E-011
  -1.1099999999999985E-002    -7.3192077398864797E-012
  -9.9999999999999950E-003    -7.1530961709420637E-011
  -8.8999999999999913E-003    -6.8126795871314982E-011
  -7.7999999999999875E-003    -4.3223778722900619E-011
  -6.6999999999999837E-003    -6.1608357304621109E-011
  -5.5999999999999939E-003    -1.1023287838085594E-010
  -4.4999999999999901E-003    -1.3003781385023672E-010
  -3.3999999999999864E-003    -1.1071952382701866E-010
  -2.2999999999999826E-003    -9.0810407804564619E-011
  -1.1999999999999927E-003    -8.0272885560894736E-011
  -9.9999999999988987E-005    -4.9188014772383326E-011
   1.0000000000000148E-003    -2.2833774801500617E-011
   2.1000000000000185E-003    -9.6841396013402914E-011
   3.2000000000000084E-003    -3.0078223245411095E-010
   4.3000000000000121E-003    -4.9842918681264337E-010
   5.4000000000000159E-003    -5.1897969255421117E-010
   6.5000000000000058E-003    -3.9093683845692340E-010
   7.6000000000000234E-003    -3.3473293581387509E-010
   8.7000000000000133E-003    -4.5682752025655304E-010
   9.8000000000000032E-003    -6.1366844938959275E-010
   1.0900000000000021E-002    -6.0417937319812154E-010
   1.2000000000000011E-002    -4.6038320378194442E-010
   1.3100000000000001E-002    -4.4855136271948481E-010
   1.4200000000000018E-002    -7.4402267680184764E-010
   1.5300000000000008E-002    -1.1779810460410545E-009
   1.6400000000000026E-002    -1.4823436922384303E-009
   1.7500000000000016E-002    -1.5602286129734466E-009
   1.8600000000000005E-002    -1.5454399981962297E-009
   1.9700000000000023E-002    -1.5532033437182236E-009
   2.0800000000000013E-002    -1.6135175417986147E-009
   2.1900000000000003E-002    -1.6269197100626798E-009
   2.3000000000000020E-002    -1.7116041917120128E-009
   2.4100000000000010E-002    -1.8646180155457159E-009
   2.5200000000000000E-002    -2.1092196877958713E-009
   2.6300000000000018E-002    -2.2975705782357636E-009
   2.7400000000000008E-002    -2.5373498857561572E-009
   2.8500000000000025E-002    -2.9009341595553906E-009
   2.9600000000000015E-002    -3.3103708663162479E-009
   3.0700000000000005E-002    -3.5233720385718925E-009
   3.1800000000000023E-002    -3.4184088892885711E-009
   3.2900000000000013E-002    -2.9958391323248179E-009
   3.4000000000000002E-002    -2.7232791577347371E-009
   3.5100000000000020E-002    -2.8349647074321638E-009
   3.6200000000000010E-002    -3.0151117158538909E-009
   3.7300000000000028E-002    -3.0889351076979210E-009
   3.8400000000000017E-002    -2.7382496270433876E-009
   3.9500000000000007E-002    -2.6542124054174110E-009
   4.0600000000000025E-002    -2.6841422418044658E-009
   4.1700000000000015E-002    -2.6043944778564310E-009
   4.2800000000000005E-002    -2.2283122014243872E-009
   4.3900000000000022E-002    -1.6045595963021242E-009
   4.5000000000000012E-002    -1.0390492910516969E-009
   4.6100000000000002E-002    -6.1784638516471091E-010
   4.7200000000000020E-002    -2.0172363779380476E-010
   4.8300000000000010E-002     1.1496501528540648E-009
   4.9400000000000027E-002     2.5248074742023618E-009
   5.0500000000000017E-002     3.2069111810528739E-009
   5.1600000000000007E-002     3.7670933039635202E-009
   5.2700000000000025E-002     4.0299177328506630E-009
   5.3800000000000014E-002     4.8658277407298556E-009
   5.4900000000000004E-002     6.0997602524537342E-009
   5.6000000000000022E-002     7.6826767170246058E-009
   5.7100000000000012E-002     8.2975466497714478E-009
   5.8200000000000002E-002     8.7773139867408645E-009
   5.9300000000000019E-002     8.6774116780929944E-009
   6.0400000000000009E-002     1.0190394306164308E-008
   6.1500000000000027E-002     1.2021375894732955E-008
   6.2600000000000017E-002     1.4743037013431604E-008
   6.3700000000000007E-002     1.5373885275948851E-008
   6.4800000000000024E-002     1.5059079316870339E-008
   6.5900000000000014E-002     1.3902943685195623E-008
   6.7000000000000004E-002     1.2373793545350509E-008
   6.8100000000000022E-002     1.2553795336600615E-008
   6.9200000000000012E-002     1.4400284520377227E-008
   7.0300000000000029E-002     1.5692856791815757E-008
   7.1400000000000019E-002     1.4824341754149373E-008
   7.2500000000000009E-002     1.1319567505552186E-008
   7.3600000000000027E-002     8.6537941257347484E-009
   7.4700000000000016E-002     9.6019210360509533E-009
   7.5800000000000006E-002     1.2565075202530807E-008
   7.6900000000000024E-002     1.3670452325698079E-008
   7.8000000000000014E-002     9.7535322041153449E-009
   7.9100000000000004E-002     2.6974336098106733E-009
   8.0200000000000021E-002    -2.7269067004453973E-009
   8.1300000000000011E-002    -3.5013660859561924E-009
   8.2400000000000029E-002    -1.3807618381989073E-009
   8.3500000000000019E-002     4.5714421137432737E-010
   8.4600000000000009E-002    -1.7219056180906023E-009
   8.5700000000000026E-002    -7.7740978099427593E-009
   8.6800000000000016E-002    -1.3726253023094159E-008
   8.7900000000000006E-002    -1.6193494545291287E-008
   8.9000000000000024E-002    -1.4180069562996778E-008
   9.0100000000000013E-002    -1.0521875815072690E-008
   9.1200000000000003E-002    -1.0090018598418737E-008
   9.2300000000000021E-002    -1.6194814378422961E-008
   9.3400000000000011E-002    -2.4777413898391387E-008
   9.4500000000000028E-002    -2.9065015283435969E-008
   9.5600000000000018E-002    -2.5732859398885921E-008
   9.6700000000000008E-002    -1.6979358363755637E-008
   9.7800000000000026E-002    -1.0793391069796598E-008
   9.8900000000000016E-002    -1.3525283115711773E-008
  0.10000000000000001         -2.2859124371166217E-008
  0.10110000000000002         -2.9921956468115241E-008
  0.10220000000000001         -2.5537401526776193E-008
  0.10330000000000003         -1.5545353448942478E-008
  0.10440000000000002         -8.0422566384186212E-009
  0.10550000000000001         -8.0347000164238125E-009
  0.10660000000000003         -1.3077824156937368E-008
  0.10770000000000002         -1.9365877790278319E-008
  0.10880000000000001         -1.7673499996817554E-008
  0.10990000000000003         -7.0104659855019236E-009
  0.11100000000000002          4.2580432513261712E-009
  0.11210000000000001          9.4924690330344674E-009
  0.11320000000000002          5.2120316951231871E-009
  0.11430000000000001         -5.0943826934712888E-009
  0.11540000000000003         -1.1060943272411805E-008
  0.11650000000000002         -3.4439509022377024E-009
  0.11760000000000001          1.1536554822555445E-008
  0.11870000000000003          2.0827542357437778E-008
  0.11980000000000002          1.7270270546987376E-008
  0.12090000000000001          5.2646491610630619E-009
  0.12200000000000003         -8.0300577298686449E-010
  0.12310000000000001          5.8178097894767689E-009
  0.12420000000000003          1.7929579598785494E-008
  0.12530000000000002          2.3458802900222508E-008
  0.12640000000000001          1.8566524317975563E-008
  0.12750000000000003          1.0427728902584477E-008
  0.12860000000000002          4.8678736597196348E-009
  0.12970000000000001          4.5537653647897969E-009
  0.13080000000000003          8.4694029567344842E-009
  0.13190000000000002          1.4086023902848410E-008
  0.13300000000000001          1.8364927356628868E-008
  0.13410000000000000          1.5975183842442675E-008
  0.13520000000000004          6.5465286525068223E-009
  0.13630000000000003         -2.3405806182097422E-009
  0.13740000000000002         -9.1519575251552965E-010
  0.13850000000000001          9.5655572351915907E-009
  0.13960000000000000          1.6225895294041948E-008
  0.14070000000000005          9.9693959754176831E-009
  0.14180000000000004         -2.7612774289309527E-009
  0.14290000000000003         -7.8997439700856376E-009
  0.14400000000000002         -1.8286896441566114E-009
  0.14510000000000001          5.5945141852475899E-009
  0.14620000000000000          5.2452735488373037E-009
  0.14730000000000004          2.6913088424507237E-010
  0.14840000000000003         -1.8370918120069746E-009
  0.14950000000000002         -1.1332509375350241E-009
  0.15060000000000001         -3.3573073210391158E-009
  0.15170000000000000         -7.6273618532241017E-009
  0.15280000000000005         -6.3584031373409289E-009
  0.15390000000000004          2.2212185424308473E-009
  0.15500000000000003          7.1042358662509741E-009
  0.15610000000000002         -7.7068840198535327E-010
  0.15720000000000001         -1.2877234389918613E-008
  0.15830000000000000         -1.4149949656427907E-008
  0.15940000000000004         -1.5778045536762875E-009
  0.16050000000000003          9.2245509009103444E-009
  0.16160000000000002          5.8312030759566369E-009
  0.16270000000000001         -5.2786819360051140E-009
  0.16380000000000000         -9.3442240611807392E-009
  0.16490000000000005         -4.4493089212949144E-009
  0.16600000000000004         -3.7131644980981093E-010
  0.16710000000000003         -2.3409674199115216E-009
  0.16820000000000002         -3.0157452091117420E-009
  0.16930000000000001          1.7084657022437000E-009
  0.17040000000000000          3.4973834939222570E-009
  0.17150000000000004         -4.5849009033815946E-009
  0.17260000000000003         -1.3606143767219692E-008
  0.17370000000000002         -8.0252489098597835E-009
  0.17480000000000001          9.7066417126256965E-009
  0.17590000000000000          1.8519783040460425E-008
  0.17700000000000005          5.5575708479693731E-009
  0.17810000000000004         -1.4186556818174267E-008
  0.17920000000000003         -1.6339614106186673E-008
  0.18030000000000002          1.0368046698960853E-010
  0.18140000000000001          1.2950133410072340E-008
  0.18250000000000000          7.4007520112218117E-009
  0.18360000000000004         -5.7175304490897361E-009
  0.18470000000000003         -8.5964959595230539E-009
  0.18580000000000002         -1.4988545959937483E-009
  0.18690000000000001          2.2718686931710863E-009
  0.18800000000000000         -2.4886384619726698E-010
  0.18910000000000005          1.0352975143845811E-009
  0.19020000000000004          8.4320275206550832E-009
  0.19130000000000003          8.6923597208965475E-009
  0.19240000000000002         -5.2588648991047648E-009
  0.19350000000000001         -1.7787055384133055E-008
  0.19460000000000005         -9.5347161277459236E-009
  0.19570000000000004          1.2393801540611094E-008
  0.19680000000000003          2.0297671099456238E-008
  0.19790000000000002          3.3397740129004205E-009
  0.19900000000000001         -1.6112771561438421E-008
  0.20010000000000000         -1.3171538526535187E-008
  0.20120000000000005          5.5919895380895923E-009
  0.20230000000000004          1.3405092147422693E-008
  0.20340000000000003          2.1124464399946419E-009
  0.20450000000000002         -8.9893523735895542E-009
  0.20560000000000000         -4.2758090401662230E-009
  0.20670000000000005          5.5369855367359833E-009
  0.20780000000000004          3.2730238519462773E-009
  0.20890000000000003         -6.3967018348876081E-009
