 -0.12000000000000000          0.0000000000000000
 -0.11889999999999999          0.0000000000000000
 -0.11780000000000000          0.0000000000000000
 -0.11670000000000000          0.0000000000000000
 -0.11559999999999999          0.0000000000000000
 -0.11449999999999999          0.0000000000000000
 -0.11340000000000000          0.0000000000000000
 -0.11230000000000000          0.0000000000000000
 -0.11119999999999999          0.0000000000000000
 -0.11009999999999999          0.0000000000000000
 -0.10900000000000000          0.0000000000000000
 -0.10790000000000000          0.0000000000000000
 -0.10679999999999999          0.0000000000000000
 -0.10569999999999999          0.0000000000000000
 -0.10460000000000000          0.0000000000000000
 -0.10349999999999999          0.0000000000000000
 -0.10239999999999999          0.0000000000000000
 -0.10130000000000000          8.7372360549116669E-041
 -0.10020000000000000         -1.3908938232272053E-039
  -9.9099999999999994E-002     6.3197762000924585E-039
  -9.7999999999999990E-002     1.3530911346849611E-038
  -9.6899999999999986E-002    -1.8106565336955886E-037
  -9.5799999999999996E-002     1.0931576403826299E-037
  -9.4699999999999993E-002     2.6626468071529929E-036
  -9.3599999999999989E-002    -3.9958388478368603E-036
  -9.2499999999999999E-002    -2.9495070328113492E-035
  -9.1399999999999995E-002     5.4106581518159445E-035
  -9.0299999999999991E-002     2.8228061905369766E-034
  -8.9200000000000002E-002    -4.9113572835770813E-034
  -8.8099999999999984E-002    -2.4500331005799762E-033
  -8.6999999999999994E-002     3.2310556081662974E-033
  -8.5899999999999990E-002     1.9282466968159127E-032
  -8.4799999999999986E-002    -1.3873789707995311E-032
  -8.3699999999999997E-002    -1.3467860945803253E-031
  -8.2599999999999993E-002     7.0791517109662300E-033
  -8.1499999999999989E-002     8.1077663381864640E-031
  -8.0399999999999999E-002     5.3403606435540550E-031
  -7.9299999999999995E-002    -4.0412623094264194E-030
  -7.8199999999999992E-002    -6.0495144741904417E-030
  -7.7100000000000002E-002     1.5387385809551955E-029
  -7.5999999999999984E-002     4.3040149757165702E-029
  -7.4899999999999994E-002    -3.3347552218703441E-029
  -7.3799999999999991E-002    -2.2751761545724728E-028
  -7.2699999999999987E-002    -7.3391725354380360E-029
  -7.1599999999999997E-002     8.9952878798188837E-028
  -7.0499999999999993E-002     1.2210274513828579E-027
  -6.9399999999999989E-002    -2.3506864750880520E-027
  -6.8300000000000000E-002    -7.2753960394051332E-027
  -6.7199999999999996E-002     1.0803661949295639E-027
  -6.6099999999999992E-002     2.8146800535830672E-026
  -6.5000000000000002E-002     2.7526284396676570E-026
  -6.3899999999999985E-002    -6.7843800460092118E-026
  -6.2799999999999995E-002    -1.7226677294649145E-025
  -6.1699999999999991E-002     2.6997208329794064E-026
  -6.0599999999999994E-002     5.9450367267156800E-025
  -5.9499999999999990E-002     6.1972493631806789E-025
  -5.8399999999999994E-002    -1.1094579214073571E-024
  -5.7299999999999990E-002    -3.2302075187459160E-024
  -5.6199999999999986E-002    -6.4326168610908145E-025
  -5.5099999999999996E-002     8.6070010127677369E-024
  -5.3999999999999992E-002     1.2517668509874172E-023
  -5.2899999999999989E-002    -8.2880132728280424E-024
  -5.1799999999999985E-002    -4.4519683885953511E-023
  -5.0699999999999995E-002    -3.4456930002743592E-023
  -4.9599999999999991E-002     7.1907524031928505E-023
  -4.8499999999999988E-002     1.8037401785541958E-022
  -4.7399999999999998E-002     5.4532420832328796E-023
  -4.6299999999999994E-002    -3.6871641437778523E-022
  -4.5199999999999990E-002    -6.1462089305974804E-022
  -4.4099999999999986E-002     4.6967740155907772E-023
  -4.2999999999999997E-002     1.4654906073215537E-021
  -4.1899999999999993E-002     1.8647015822612479E-021
  -4.0799999999999989E-002    -6.7264520984448127E-022
  -3.9699999999999985E-002    -4.9037148871154465E-021
  -3.8599999999999995E-002    -5.3731229210743839E-021
  -3.7499999999999992E-002     2.5210092177013379E-021
  -3.6399999999999988E-002     1.4352157161227562E-020
  -3.5299999999999984E-002     1.5697139912541714E-020
  -3.4199999999999994E-002    -4.8019252236413247E-021
  -3.3099999999999991E-002    -3.7193830507800236E-020
  -3.1999999999999987E-002    -4.7783319161521670E-020
  -3.0899999999999997E-002    -4.6137707148539210E-021
  -2.9799999999999993E-002     8.3212301671303202E-020
  -2.8699999999999989E-002     1.4621917884204724E-019
  -2.7599999999999986E-002     8.5385647644952390E-020
  -2.6499999999999996E-002    -1.4169942520096628E-019
  -2.5399999999999992E-002    -4.1784134254078870E-019
  -2.4299999999999988E-002    -4.4558404970762813E-019
  -2.3199999999999985E-002     6.7234603743851095E-020
  -2.2099999999999995E-002     1.0197739017543617E-018
  -2.0999999999999991E-002     1.6366842720182206E-018
  -1.9899999999999987E-002     8.0437984425709803E-019
  -1.8799999999999983E-002    -1.8127938161653275E-018
  -1.7699999999999994E-002    -4.6456953014621819E-018
  -1.6599999999999990E-002    -4.5247718356645862E-018
  -1.5499999999999986E-002     8.5958530965221596E-019
  -1.4399999999999996E-002     9.7221415981889027E-018
  -1.3299999999999992E-002     1.5263421212959185E-017
  -1.2199999999999989E-002     9.3279304793032812E-018
  -1.1099999999999985E-002    -1.0540266237395700E-017
  -9.9999999999999950E-003    -3.5327997224523155E-017
  -8.8999999999999913E-003    -4.5425165968831350E-017
  -7.7999999999999875E-003    -2.0663651644038150E-017
  -6.6999999999999837E-003     4.2963125741293817E-017
  -5.5999999999999939E-003     1.1818903499434449E-016
  -4.4999999999999901E-003     1.4611557891642076E-016
  -3.3999999999999864E-003     6.2949973245057404E-017
  -2.2999999999999826E-003    -1.4690799147346696E-016
  -1.1999999999999927E-003    -3.9762749392947372E-016
  -9.9999999999988987E-005    -4.9734185360658526E-016
   1.0000000000000148E-003    -2.3487363359524693E-016
   2.1000000000000185E-003     4.4985146911111521E-016
   3.2000000000000084E-003     1.2979857709550830E-015
   4.3000000000000121E-003     1.7106252827483038E-015
   5.4000000000000159E-003     9.9630259893361030E-016
   6.5000000000000058E-003    -1.1249285753806753E-015
   7.6000000000000234E-003    -3.9870992792068183E-015
   8.7000000000000133E-003    -5.8213741139579497E-015
   9.8000000000000032E-003    -4.3668584542952849E-015
   1.0900000000000021E-002     1.6991584683457303E-015
   1.2000000000000011E-002     1.1063667377261919E-014
   1.3100000000000001E-002     1.8930403712690350E-014
   1.4200000000000018E-002     1.8214284789631885E-014
   1.5300000000000008E-002     3.2195809146013049E-015
   1.6400000000000026E-002    -2.5259511821605629E-014
   1.7500000000000016E-002    -5.6121550278103588E-014
   1.8600000000000005E-002    -6.8897605719556165E-014
   1.9700000000000023E-002    -4.1805693970628152E-014
   2.0800000000000013E-002     3.4091592125261999E-014
   2.1900000000000003E-002     1.4036008141350698E-013
   2.3000000000000020E-002     2.2576042326815510E-013
   2.4100000000000010E-002     2.1904810051324303E-013
   2.5200000000000000E-002     6.2692391425769878E-014
   2.6300000000000018E-002    -2.4159732374406939E-013
   2.7400000000000008E-002    -5.9720923952649718E-013
   2.8500000000000025E-002    -8.1451804936211181E-013
   2.9600000000000015E-002    -6.7051659363714933E-013
   3.0700000000000005E-002    -2.2924302972397725E-014
   3.1800000000000023E-002     1.0582421440877288E-012
   3.2900000000000013E-002     2.2083194647914972E-012
   3.4000000000000002E-002     2.8079955895210507E-012
   3.5100000000000020E-002     2.1872772690278985E-012
   3.6200000000000010E-002    -3.4518994786051152E-014
   3.7300000000000028E-002    -3.5873450477535984E-012
   3.8400000000000017E-002    -7.3472590858547626E-012
   3.9500000000000007E-002    -9.4718356422052175E-012
   4.0600000000000025E-002    -7.9644416062230050E-012
   4.1700000000000015E-002    -1.5850158642180534E-012
   4.2800000000000005E-002     9.1780324659729295E-012
   4.3900000000000022E-002     2.1508236164313743E-011
   4.5000000000000012E-002     3.0469488043749493E-011
   4.6100000000000002E-002     3.0261328165526180E-011
   4.7200000000000020E-002     1.6384324452722865E-011
   4.8300000000000010E-002    -1.1866278792904694E-011
   4.9400000000000027E-002    -4.9503016269492051E-011
   5.0500000000000017E-002    -8.5532109173058757E-011
   5.1600000000000007E-002    -1.0488891005744350E-010
   5.2700000000000025E-002    -9.2614062252582841E-011
   5.3800000000000014E-002    -3.9413115132669319E-011
   5.4900000000000004E-002     5.2987142451499381E-011
   5.6000000000000022E-002     1.6859240392630426E-010
   5.7100000000000012E-002     2.7762617205162599E-010
   5.8200000000000002E-002     3.4149602590183292E-010
   5.9300000000000019E-002     3.2173450015271499E-010
   6.0400000000000009E-002     1.9113877147702851E-010
   6.1500000000000027E-002    -5.5550460065223461E-011
   6.2600000000000017E-002    -3.9428771358984704E-010
   6.3700000000000007E-002    -7.6993755815379927E-010
   6.4800000000000024E-002    -1.1010529155086601E-009
   6.5900000000000014E-002    -1.2906419266656144E-009
   6.7000000000000004E-002    -1.2408649663342430E-009
   6.8100000000000022E-002    -8.6860302284108570E-010
   6.9200000000000012E-002    -1.1851054859679522E-010
   7.0300000000000029E-002     1.0295515551206336E-009
   7.1400000000000019E-002     2.5608473119831388E-009
   7.2500000000000009E-002     4.4347601146910165E-009
   7.3600000000000027E-002     6.6016152544534634E-009
   7.4700000000000016E-002     9.0249203665848654E-009
   7.5800000000000006E-002     1.1705052926913595E-008
   7.6900000000000024E-002     1.4699820916064255E-008
   7.8000000000000014E-002     1.8137566115683512E-008
   7.9100000000000004E-002     2.2220229212166487E-008
   8.0200000000000021E-002     2.7216200848556582E-008
   8.1300000000000011E-002     3.3446173830498083E-008
   8.2400000000000029E-002     4.1267572470360392E-008
   8.3500000000000019E-002     5.1063533845763232E-008
   8.4600000000000009E-002     6.3243319914363383E-008
   8.5700000000000026E-002     7.8256228164264030E-008
   8.6800000000000016E-002     9.6618194334041618E-008
   8.7900000000000006E-002     1.1894506712906150E-007
   8.9000000000000024E-002     1.4598650466268737E-007
   9.0100000000000013E-002     1.7865129109395639E-007
   9.1200000000000003E-002     2.1802311778174044E-007
   9.2300000000000021E-002     2.6536739028415468E-007
   9.3400000000000011E-002     3.2213583267548529E-007
   9.4500000000000028E-002     3.8997680462671269E-007
   9.5600000000000018E-002     4.7075880615921051E-007
   9.6700000000000008E-002     5.6660735481273150E-007
   9.7800000000000026E-002     6.7995210883964319E-007
   9.8900000000000016E-002     8.1357563885831041E-007
  0.10000000000000001          9.7065185400424525E-007
  0.10110000000000002          1.1547746225915034E-006
  0.10220000000000001          1.3699682313017547E-006
  0.10330000000000003          1.6206962527576252E-006
  0.10440000000000002          1.9118599539069692E-006
  0.10550000000000001          2.2488038666779175E-006
  0.10660000000000003          2.6373402306489879E-006
  0.10770000000000002          3.0837688882456860E-006
  0.10880000000000001          3.5949274206359405E-006
  0.10990000000000003          4.1781713662203401E-006
  0.11100000000000002          4.8413785407319665E-006
  0.11210000000000001          5.5928517213033047E-006
  0.11320000000000002          6.4412975007144269E-006
  0.11430000000000001          7.3957162385340780E-006
  0.11540000000000003          8.4652874647872522E-006
  0.11650000000000002          9.6593066700734198E-006
  0.11760000000000001          1.0986983397742733E-005
  0.11870000000000003          1.2457347111194395E-005
  0.11980000000000002          1.4079115317144897E-005
  0.12090000000000001          1.5860412531765178E-005
  0.12200000000000003          1.7808541088015772E-005
  0.12310000000000001          1.9929704649257474E-005
  0.12420000000000003          2.2228681700653397E-005
  0.12530000000000002          2.4708471755729988E-005
  0.12640000000000001          2.7369967938284390E-005
  0.12750000000000003          3.0211822377168573E-005
  0.12860000000000002          3.3229855034733191E-005
  0.12970000000000001          3.6416953662410378E-005
  0.13080000000000003          3.9762391679687425E-005
  0.13190000000000002          4.3251930037513375E-005
  0.13300000000000001          4.6866880438756198E-005
  0.13410000000000000          5.0584229029482231E-005
  0.13520000000000004          5.4376298066927120E-005
  0.13630000000000003          5.8210313000017777E-005
  0.13740000000000002          6.2048820836935192E-005
  0.13850000000000001          6.5849220845848322E-005
  0.13960000000000000          6.9564128352794796E-005
  0.14070000000000005          7.3140712629538029E-005
  0.14180000000000004          7.6521944720298052E-005
  0.14290000000000003          7.9646575613878667E-005
  0.14400000000000002          8.2449390902183950E-005
  0.14510000000000001          8.4862324001733214E-005
  0.14620000000000000          8.6813983216416091E-005
  0.14730000000000004          8.8232322013936937E-005
  0.14840000000000003          8.9044740889221430E-005
  0.14950000000000002          8.9178545749746263E-005
  0.15060000000000001          8.8564447651151568E-005
  0.15170000000000000          8.7135224021039903E-005
  0.15280000000000005          8.4827726823277771E-005
  0.15390000000000004          8.1585654697846621E-005
  0.15500000000000003          7.7360105933621526E-005
  0.15610000000000002          7.2110342443920672E-005
  0.15720000000000001          6.5807478677015752E-005
  0.15830000000000000          5.8433655794942752E-005
  0.15940000000000004          4.9983875214820728E-005
  0.16050000000000003          4.0466609789291397E-005
  0.16160000000000002          2.9906779673183337E-005
  0.16270000000000001          1.8346245269640349E-005
  0.16380000000000000          5.8415766943653580E-006
  0.16490000000000005         -7.5340758485253900E-006
  0.16600000000000004         -2.1690520952688530E-005
  0.16710000000000003         -3.6521956644719467E-005
  0.16820000000000002         -5.1906703447457403E-005
  0.16930000000000001         -6.7707747803069651E-005
  0.17040000000000000         -8.3774742961395532E-005
  0.17150000000000004         -9.9945813417434692E-005
  0.17260000000000003         -1.1605009785853326E-004
  0.17370000000000002         -1.3190983736421913E-004
  0.17480000000000001         -1.4734228898305446E-004
  0.17590000000000000         -1.6216095536947250E-004
  0.17700000000000005         -1.7618056153878570E-004
  0.17810000000000004         -1.8921915034297854E-004
  0.17920000000000003         -2.0110141485929489E-004
  0.18030000000000002         -2.1166270016692579E-004
  0.18140000000000001         -2.2074949811212718E-004
  0.18250000000000000         -2.2822315804660320E-004
  0.18360000000000004         -2.3396252072416246E-004
  0.18470000000000003         -2.3786666861269623E-004
  0.18580000000000002         -2.3985804000403732E-004
  0.18690000000000001         -2.3988327302504331E-004
  0.18800000000000000         -2.3791311832610518E-004
  0.18910000000000005         -2.3394302115775645E-004
  0.19020000000000004         -2.2799473663326353E-004
  0.19130000000000003         -2.2011686814948916E-004
  0.19240000000000002         -2.1038457634858787E-004
  0.19350000000000001         -1.9889630493707955E-004
  0.19460000000000005         -1.8577466835267842E-004
  0.19570000000000004         -1.7116386152338237E-004
  0.19680000000000003         -1.5522548346780241E-004
  0.19790000000000002         -1.3813748955726624E-004
  0.19900000000000001         -1.2009338388452306E-004
  0.20010000000000000         -1.0129743895959109E-004
  0.20120000000000005         -8.1960242823697627E-005
  0.20230000000000004         -6.2295810494106263E-005
  0.20340000000000003         -4.2517945985309780E-005
  0.20450000000000002         -2.2837068172520958E-005
  0.20560000000000000         -3.4616139146237401E-006
  0.20670000000000005          1.5410601918119937E-005
  0.20780000000000004          3.3593209082027897E-005
  0.20890000000000003          5.0914724852191284E-005
