 -0.12000000000000000          0.0000000000000000
 -0.11889999999999999          0.0000000000000000
 -0.11780000000000000          0.0000000000000000
 -0.11670000000000000          0.0000000000000000
 -0.11559999999999999          0.0000000000000000
 -0.11449999999999999          0.0000000000000000
 -0.11340000000000000         -1.0370384665327475E-019
 -0.11230000000000000         -4.6410028092447451E-020
 -0.11119999999999999          8.2720775441687707E-019
 -0.11009999999999999          8.0861961018552686E-019
 -0.10900000000000000         -2.4883387807524313E-018
 -0.10790000000000000         -2.5798818251679091E-018
 -0.10679999999999999          4.4458083472096616E-018
 -0.10569999999999999         -8.2915931129631577E-018
 -0.10460000000000000         -4.1711813232737899E-017
 -0.10349999999999999          3.4793542595862843E-017
 -0.10239999999999999          2.8669145647867999E-016
 -0.10130000000000000          2.5638850868352258E-016
 -0.10020000000000000         -6.8406100240593517E-016
  -9.9099999999999994E-002    -1.7782990859483046E-015
  -9.7999999999999990E-002    -6.4952270458604904E-016
  -9.6899999999999986E-002     3.2767232395307377E-015
  -9.5799999999999996E-002     5.7871611826689276E-015
  -9.4699999999999993E-002     2.2170119659239073E-015
  -9.3599999999999989E-002    -5.0691059422930396E-015
  -9.2499999999999999E-002    -9.9055090640857470E-015
  -9.1399999999999995E-002    -1.3656574989243629E-014
  -9.0299999999999991E-002    -1.9275635707266363E-014
  -8.9200000000000002E-002    -7.1703151635583648E-015
  -8.8099999999999984E-002     5.4147811045070562E-014
  -8.6999999999999994E-002     1.3642899472903619E-013
  -8.5899999999999990E-002     1.1752878943498135E-013
  -8.4799999999999986E-002    -9.3426128107681333E-014
  -8.3699999999999997E-002    -3.7053045636066539E-013
  -8.2599999999999993E-002    -4.1808906597190498E-013
  -8.1499999999999989E-002    -1.0171672396508055E-013
  -8.0399999999999999E-002     3.5628216956545833E-013
  -7.9299999999999995E-002     6.6289036976599491E-013
  -7.8199999999999992E-002     8.2279620399958175E-013
  -7.7100000000000002E-002     9.0005531239861769E-013
  -7.5999999999999984E-002     4.4932568950273311E-013
  -7.4899999999999994E-002    -1.1745848434510653E-012
  -7.3799999999999991E-002    -3.4557816677716069E-012
  -7.2699999999999987E-002    -4.2359783215817348E-012
  -7.1599999999999997E-002    -1.7172258623757153E-012
  -7.0499999999999993E-002     2.9525594209128814E-012
  -6.9399999999999989E-002     6.3249418723321238E-012
  -6.8300000000000000E-002     6.5535164101016008E-012
  -6.7199999999999996E-002     5.3395486816765203E-012
  -6.6099999999999992E-002     4.4603517927732650E-012
  -6.5000000000000002E-002     1.5831546143485475E-012
  -6.3899999999999985E-002    -7.2067638315354010E-012
  -6.2799999999999995E-002    -1.9912869964056057E-011
  -6.1699999999999991E-002    -2.7178287398399448E-011
  -6.0599999999999994E-002    -2.1546911824210646E-011
  -5.9499999999999990E-002    -6.1066368975404295E-012
  -5.8399999999999994E-002     1.0584687640258217E-011
  -5.7299999999999990E-002     2.7202122498959369E-011
  -5.6199999999999986E-002     5.0021011638312629E-011
  -5.5099999999999996E-002     7.6653065839149548E-011
  -5.3999999999999992E-002     8.5816229122848142E-011
  -5.2899999999999989E-002     5.3101485014694916E-011
  -5.1799999999999985E-002    -2.2090647019967768E-011
  -5.0699999999999995E-002    -1.1234486257949428E-010
  -4.9599999999999991E-002    -1.8649717881125127E-010
  -4.8499999999999988E-002    -2.2949618594392263E-010
  -4.7399999999999998E-002    -2.3298904472390802E-010
  -4.6299999999999994E-002    -1.7724251233364186E-010
  -4.5199999999999990E-002    -3.9997619799558848E-011
  -4.4099999999999986E-002     1.7328571910724122E-010
  -4.2999999999999997E-002     4.1959780094913413E-010
  -4.1899999999999993E-002     6.4424360290971094E-010
  -4.0799999999999989E-002     8.0668755009227766E-010
  -3.9699999999999985E-002     8.7561830008908714E-010
  -3.8599999999999995E-002     8.1776807547839780E-010
  -3.7499999999999992E-002     6.2022370572734076E-010
  -3.6399999999999988E-002     3.2891617207653212E-010
  -3.5299999999999984E-002     4.5457169278728671E-011
  -3.4199999999999994E-002    -1.2487008649308962E-010
  -3.3099999999999991E-002    -1.0975893111053736E-010
  -3.1999999999999987E-002     1.4636891698671661E-010
  -3.0899999999999997E-002     6.9390687640336068E-010
  -2.9799999999999993E-002     1.5184209445351371E-009
  -2.8699999999999989E-002     2.4584201341326661E-009
  -2.7599999999999986E-002     3.2189726439924016E-009
  -2.6499999999999996E-002     3.4918059554911451E-009
  -2.5399999999999992E-002     3.0425060248973068E-009
  -2.4299999999999988E-002     1.6652204060108033E-009
  -2.3199999999999985E-002    -8.9583607199017479E-010
  -2.2099999999999995E-002    -4.8898232130056840E-009
  -2.0999999999999991E-002    -1.0389046067871277E-008
  -1.9899999999999987E-002    -1.7221749359919158E-008
  -1.8799999999999983E-002    -2.5130816538876388E-008
  -1.7699999999999994E-002    -3.4010234628567559E-008
  -1.6599999999999990E-002    -4.3996053022965498E-008
  -1.5499999999999986E-002    -5.5407703314358514E-008
  -1.4399999999999996E-002    -6.8721377033398312E-008
  -1.3299999999999992E-002    -8.4656115006964683E-008
  -1.2199999999999989E-002    -1.0424414398357840E-007
  -1.1099999999999985E-002    -1.2877269739419717E-007
  -9.9999999999999950E-003    -1.5969068556387356E-007
  -8.8999999999999913E-003    -1.9860748068367684E-007
  -7.7999999999999875E-003    -2.4732540282457194E-007
  -6.6999999999999837E-003    -3.0777570714235480E-007
  -5.5999999999999939E-003    -3.8194238527466950E-007
  -4.4999999999999901E-003    -4.7200026642713055E-007
  -3.3999999999999864E-003    -5.8066461861017160E-007
  -2.2999999999999826E-003    -7.1144131652545184E-007
  -1.1999999999999927E-003    -8.6852088543309947E-007
  -9.9999999999988987E-005    -1.0565532875261852E-006
   1.0000000000000148E-003    -1.2807651046387036E-006
   2.1000000000000185E-003    -1.5473540315724676E-006
   3.2000000000000084E-003    -1.8637225593920448E-006
   4.3000000000000121E-003    -2.2382826045941329E-006
   5.4000000000000159E-003    -2.6801380954566412E-006
   6.5000000000000058E-003    -3.1991344258130994E-006
   7.6000000000000234E-003    -3.8063838019297691E-006
   8.7000000000000133E-003    -4.5144879550207406E-006
   9.8000000000000032E-003    -5.3374319577415008E-006
   1.0900000000000021E-002    -6.2903268371883314E-006
   1.2000000000000011E-002    -7.3894425440812483E-006
   1.3100000000000001E-002    -8.6525205915677361E-006
   1.4200000000000018E-002    -1.0098938219016418E-005
   1.5300000000000008E-002    -1.1749632903956808E-005
   1.6400000000000026E-002    -1.3626918189402204E-005
   1.7500000000000016E-002    -1.5754376363474876E-005
   1.8600000000000005E-002    -1.8156702935812064E-005
   1.9700000000000023E-002    -2.0859322830801830E-005
   2.0800000000000013E-002    -2.3887812858447433E-005
   2.1900000000000003E-002    -2.7267686164123006E-005
   2.3000000000000020E-002    -3.1024534109747037E-005
   2.4100000000000010E-002    -3.5183682484785095E-005
   2.5200000000000000E-002    -3.9768878195900470E-005
   2.6300000000000018E-002    -4.4801239710068330E-005
   2.7400000000000008E-002    -5.0299866416025907E-005
   2.8500000000000025E-002    -5.6281169236171991E-005
   2.9600000000000015E-002    -6.2758779677096754E-005
   3.0700000000000005E-002    -6.9740999606437981E-005
   3.1800000000000023E-002    -7.7229837188497186E-005
   3.2900000000000013E-002    -8.5220490291249007E-005
   3.4000000000000002E-002    -9.3699971330352128E-005
   3.5100000000000020E-002    -1.0264714364893734E-004
   3.6200000000000010E-002    -1.1203003668924794E-004
   3.7300000000000028E-002    -1.2180622434243560E-004
   3.8400000000000017E-002    -1.3192140613682568E-004
   3.9500000000000007E-002    -1.4230981469154358E-004
   4.0600000000000025E-002    -1.5289249131456017E-004
   4.1700000000000015E-002    -1.6357620188500732E-004
   4.2800000000000005E-002    -1.7425422265660018E-004
   4.3900000000000022E-002    -1.8480564176570624E-004
   4.5000000000000012E-002    -1.9509681442286819E-004
   4.6100000000000002E-002    -2.0498038793448359E-004
   4.7200000000000020E-002    -2.1429550542961806E-004
   4.8300000000000010E-002    -2.2286659805104136E-004
   4.9400000000000027E-002    -2.3051115567795932E-004
   5.0500000000000017E-002    -2.3703573970124125E-004
   5.1600000000000007E-002    -2.4224196386057884E-004
   5.2700000000000025E-002    -2.4592640693299472E-004
   5.3800000000000014E-002    -2.4788439623080194E-004
   5.4900000000000004E-002    -2.4791408213786781E-004
   5.6000000000000022E-002    -2.4581898469477892E-004
   5.7100000000000012E-002    -2.4140794994309545E-004
   5.8200000000000002E-002    -2.3450453591067344E-004
   5.9300000000000019E-002    -2.2495008306577802E-004
   6.0400000000000009E-002    -2.1260981156956404E-004
   6.1500000000000027E-002    -1.9737341790460050E-004
   6.2600000000000017E-002    -1.7915497301146388E-004
   6.3700000000000007E-002    -1.5790233737789094E-004
   6.4800000000000024E-002    -1.3360127923078835E-004
   6.5900000000000014E-002    -1.0628074960550293E-004
   6.7000000000000004E-002    -7.6013027864973992E-005
   6.8100000000000022E-002    -4.2913263314403594E-005
   6.9200000000000012E-002    -7.1398203544958960E-006
   7.0300000000000029E-002     3.1100611522560939E-005
   7.1400000000000019E-002     7.1552502049598843E-005
   7.2500000000000009E-002     1.1391236330382526E-004
   7.3600000000000027E-002     1.5783288108650595E-004
   7.4700000000000016E-002     2.0292439148761332E-004
   7.5800000000000006E-002     2.4876237148419023E-004
   7.6900000000000024E-002     2.9489002190530300E-004
   7.8000000000000014E-002     3.4082191996276379E-004
   7.9100000000000004E-002     3.8604758447036147E-004
   8.0200000000000021E-002     4.3003971222788095E-004
   8.1300000000000011E-002     4.7226241440512240E-004
   8.2400000000000029E-002     5.1218661246821284E-004
   8.3500000000000019E-002     5.4929609177634120E-004
   8.4600000000000009E-002     5.8308872394263744E-004
   8.5700000000000026E-002     6.1308301519602537E-004
   8.6800000000000016E-002     6.3882808899506927E-004
   8.7900000000000006E-002     6.5992050804197788E-004
   8.9000000000000024E-002     6.7601574119180441E-004
   9.0100000000000013E-002     6.8682804703712463E-004
   9.1200000000000003E-002     6.9212698144838214E-004
   9.2300000000000021E-002     6.9174199597910047E-004
   9.3400000000000011E-002     6.8557186750695109E-004
   9.4500000000000028E-002     6.7360204411670566E-004
   9.5600000000000018E-002     6.5589771838858724E-004
   9.6700000000000008E-002     6.3259812304750085E-004
   9.7800000000000026E-002     6.0391356237232685E-004
   9.8900000000000016E-002     5.7012127945199609E-004
  0.10000000000000001          5.3156132344156504E-004
  0.10110000000000002          4.8864423297345638E-004
  0.10220000000000001          4.4184355647303164E-004
  0.10330000000000003          3.9168371586129069E-004
  0.10440000000000002          3.3872810308821499E-004
  0.10550000000000001          2.8356190887279809E-004
  0.10660000000000003          2.2679056564811617E-004
  0.10770000000000002          1.6903015784919262E-004
  0.10880000000000001          1.1091637861682102E-004
  0.10990000000000003          5.3082731028553098E-005
  0.11100000000000002         -3.8590064832533244E-006
  0.11210000000000001         -5.9327998314984143E-005
  0.11320000000000002         -1.1278501187916845E-004
  0.11430000000000001         -1.6373003018088639E-004
  0.11540000000000003         -2.1169820684008300E-004
  0.11650000000000002         -2.5627057766541839E-004
  0.11760000000000001         -2.9708727379329503E-004
  0.11870000000000003         -3.3386409631930292E-004
  0.11980000000000002         -3.6638538585975766E-004
  0.12090000000000001         -3.9449316682294011E-004
  0.12200000000000003         -4.1808406240306795E-004
  0.12310000000000001         -4.3711147736757994E-004
  0.12420000000000003         -4.5159403816796839E-004
  0.12530000000000002         -4.6161637874320149E-004
  0.12640000000000001         -4.6731845941394567E-004
  0.12750000000000003         -4.6888217912055552E-004
  0.12860000000000002         -4.6652709715999663E-004
  0.12970000000000001         -4.6051069512031972E-004
  0.13080000000000003         -4.5112404040992260E-004
  0.13190000000000002         -4.3868270586244762E-004
  0.13300000000000001         -4.2352062882855535E-004
  0.13410000000000000         -4.0598583291284740E-004
  0.13520000000000004         -3.8643335574306548E-004
  0.13630000000000003         -3.6521421861834824E-004
  0.13740000000000002         -3.4266957663930953E-004
  0.13850000000000001         -3.1913310522213578E-004
  0.13960000000000000         -2.9493292095139623E-004
  0.14070000000000005         -2.7038168627768755E-004
  0.14180000000000004         -2.4576243595220149E-004
  0.14290000000000003         -2.2132588492240757E-004
  0.14400000000000002         -1.9730169151443988E-004
  0.14510000000000001         -1.7390673747286201E-004
  0.14620000000000000         -1.5133505803532898E-004
  0.14730000000000004         -1.2974190758541226E-004
  0.14840000000000003         -1.0924499656539410E-004
  0.14950000000000002         -8.9938250312115997E-005
  0.15060000000000001         -7.1902963100001216E-005
  0.15170000000000000         -5.5200216593220830E-005
  0.15280000000000005         -3.9860446122474968E-005
  0.15390000000000004         -2.5887848096317612E-005
  0.15500000000000003         -1.3271901480038650E-005
  0.15610000000000002         -1.9924527805414982E-006
  0.15720000000000001          7.9864748840918764E-006
  0.15830000000000000          1.6719031918910332E-005
  0.15940000000000004          2.4266959371743724E-005
  0.16050000000000003          3.0691549909533933E-005
  0.16160000000000002          3.6058616387890652E-005
  0.16270000000000001          4.0447856008540839E-005
  0.16380000000000000          4.3949934479314834E-005
  0.16490000000000005          4.6647302951896563E-005
  0.16600000000000004          4.8609163059154525E-005
  0.16710000000000003          4.9905440391739830E-005
  0.16820000000000002          5.0618371460586786E-005
  0.16930000000000001          5.0832670240197331E-005
  0.17040000000000000          5.0615817599464208E-005
  0.17150000000000004          5.0019018090097234E-005
  0.17260000000000003          4.9096444854512811E-005
  0.17370000000000002          4.7915058530634269E-005
  0.17480000000000001          4.6537457819795236E-005
  0.17590000000000000          4.5003529521636665E-005
  0.17700000000000005          4.3337255192454904E-005
  0.17810000000000004          4.1571158362785354E-005
  0.17920000000000003          3.9750626456225291E-005
  0.18030000000000002          3.7913570849923417E-005
  0.18140000000000001          3.6075991374673322E-005
  0.18250000000000000          3.4245018468936905E-005
  0.18360000000000004          3.2437194022350013E-005
  0.18470000000000003          3.0675622838316485E-005
  0.18580000000000002          2.8972161089768633E-005
  0.18690000000000001          2.7326208510203287E-005
  0.18800000000000000          2.5741846911842003E-005
  0.18910000000000005          2.4234774173237383E-005
  0.19020000000000004          2.2814881958765909E-005
  0.19130000000000003          2.1470717911142856E-005
  0.19240000000000002          2.0184308596071787E-005
  0.19350000000000001          1.8958264263346791E-005
  0.19460000000000005          1.7814167222240940E-005
  0.19570000000000004          1.6762181985541247E-005
  0.19680000000000003          1.5783854905748740E-005
  0.19790000000000002          1.4853996617603116E-005
  0.19900000000000001          1.3970671716379002E-005
  0.20010000000000000          1.3150887752999552E-005
  0.20120000000000005          1.2401129424688406E-005
  0.20230000000000004          1.1705948054441251E-005
  0.20340000000000003          1.1049377462768462E-005
  0.20450000000000002          1.0433894203742966E-005
  0.20560000000000000          9.8683576652547345E-006
  0.20670000000000005          9.3461794676841237E-006
  0.20780000000000004          8.8505157691542991E-006
  0.20890000000000003          8.3786999311996624E-006
