 -0.12000000000000000          0.0000000000000000
 -0.11889999999999999          0.0000000000000000
 -0.11780000000000000          0.0000000000000000
 -0.11670000000000000          1.2546758770826574E-011
 -0.11559999999999999          1.3697683612368787E-011
 -0.11449999999999999         -3.8519888667655109E-011
 -0.11340000000000000         -6.0436974869129537E-011
 -0.11230000000000000          8.1728186718255516E-011
 -0.11119999999999999          2.1664804672472640E-010
 -0.11009999999999999         -3.4040430196833510E-011
 -0.10900000000000000         -4.8208020908547341E-010
 -0.10790000000000000         -2.7206759067866074E-010
 -0.10679999999999999          7.1667305423519059E-010
 -0.10569999999999999          1.0246076209696871E-009
 -0.10460000000000000         -4.2161238389408199E-010
 -0.10349999999999999         -1.8818466784865243E-009
 -0.10239999999999999         -6.0493454689947271E-010
 -0.10130000000000000          2.4258626218910530E-009
 -0.10020000000000000          2.5024666783225716E-009
  -9.9099999999999994E-002    -1.8537331669677155E-009
  -9.7999999999999990E-002    -4.8300972110839303E-009
  -9.6899999999999986E-002    -6.5602118182196431E-010
  -9.5799999999999996E-002     6.4044005654296689E-009
  -9.4699999999999993E-002     5.8166009786477150E-009
  -9.3599999999999989E-002    -3.7803573604833814E-009
  -9.2499999999999999E-002    -9.8755386090945270E-009
  -9.1399999999999995E-002    -2.5646804679980080E-009
  -9.0299999999999991E-002     9.5435135349933710E-009
  -8.9200000000000002E-002     9.3253866850777031E-009
  -8.8099999999999984E-002    -4.2170933411966160E-009
  -8.6999999999999994E-002    -1.2694473916497052E-008
  -8.5899999999999990E-002    -3.9121945683005791E-009
  -8.4799999999999986E-002     9.9854124968607277E-009
  -8.3699999999999997E-002     9.7387928832410897E-009
  -8.2599999999999993E-002    -2.9503703924401103E-009
  -8.1499999999999989E-002    -8.7990974506620873E-009
  -8.0399999999999999E-002    -8.1173712196325768E-010
  -7.9299999999999995E-002     5.8461817609169113E-009
  -7.8199999999999992E-002    -3.1175309555962529E-010
  -7.7100000000000002E-002    -7.3378227938278172E-009
  -7.5999999999999984E-002     2.7708935425798229E-012
  -7.4899999999999994E-002     1.1607204086774791E-008
  -7.3799999999999991E-002     4.7742680919813315E-009
  -7.2699999999999987E-002    -1.6707748073937756E-008
  -7.1599999999999997E-002    -2.0920454701919068E-008
  -7.0499999999999993E-002     5.0176098831451623E-009
  -6.9399999999999989E-002     2.8316657463285744E-008
  -6.8300000000000000E-002     1.2551532257995334E-008
  -6.7199999999999996E-002    -2.6888265836069437E-008
  -6.6099999999999992E-002    -3.8676617464251562E-008
  -6.5000000000000002E-002    -6.8514096618211160E-009
  -6.3899999999999985E-002     2.4598133308035177E-008
  -6.2799999999999995E-002     1.2644947311477748E-008
  -6.1699999999999991E-002    -2.5253392266199665E-008
  -6.0599999999999994E-002    -3.9288369890729030E-008
  -5.9499999999999990E-002    -1.9397971229264029E-008
  -5.8399999999999994E-002    -3.7913285843745478E-009
  -5.7299999999999990E-002    -1.5915395223897404E-008
  -5.6199999999999986E-002    -3.1355416041326472E-008
  -5.5099999999999996E-002    -2.4927006236846228E-008
  -5.3999999999999992E-002    -1.7681442088174045E-008
  -5.2899999999999989E-002    -4.2305646985512459E-008
  -5.1799999999999985E-002    -8.0363818710696952E-008
  -5.0699999999999995E-002    -7.9843005096224095E-008
  -4.9599999999999991E-002    -3.7836528576786826E-008
  -4.8499999999999988E-002    -1.9388867400342042E-008
  -4.7399999999999998E-002    -6.9030221538750738E-008
  -4.6299999999999994E-002    -1.3940497467482113E-007
  -4.5199999999999990E-002    -1.5010266451986785E-007
  -4.4099999999999986E-002    -1.0027966368372197E-007
  -4.2999999999999997E-002    -7.1699830072865975E-008
  -4.1899999999999993E-002    -1.1480633332861385E-007
  -4.0799999999999989E-002    -1.8236481480434513E-007
  -3.9699999999999985E-002    -2.0368781861138348E-007
  -3.8599999999999995E-002    -1.8457777173306500E-007
  -3.7499999999999992E-002    -1.8550218783223420E-007
  -3.6399999999999988E-002    -2.2235163044057615E-007
  -3.5299999999999984E-002    -2.4817123289658152E-007
  -3.4199999999999994E-002    -2.3910135382650225E-007
  -3.3099999999999991E-002    -2.4091551153937299E-007
  -3.1999999999999987E-002    -2.9305010684680526E-007
  -3.0899999999999997E-002    -3.5254529961910153E-007
  -2.9799999999999993E-002    -3.4703384699140281E-007
  -2.8699999999999989E-002    -2.9012949198548771E-007
  -2.7599999999999986E-002    -2.7499149268686586E-007
  -2.6499999999999996E-002    -3.4210509625026010E-007
  -2.5399999999999992E-002    -4.1579960452371692E-007
  -2.4299999999999988E-002    -4.0630177977471849E-007
  -2.3199999999999985E-002    -3.3589782333209031E-007
  -2.2099999999999995E-002    -3.0195002409362055E-007
  -2.0999999999999991E-002    -3.3664241527556597E-007
  -1.9899999999999987E-002    -3.6669038649778420E-007
  -1.8799999999999983E-002    -3.3297527579443418E-007
  -1.7699999999999994E-002    -2.7511399025372025E-007
  -1.6599999999999990E-002    -2.5756679633354582E-007
  -1.5499999999999986E-002    -2.6103089112228816E-007
  -1.4399999999999996E-002    -2.1710786768166089E-007
  -1.3299999999999992E-002    -1.2175942742724557E-007
  -1.2199999999999989E-002    -5.4307758288210750E-008
  -1.1099999999999985E-002    -5.2953947002914553E-008
  -9.9999999999999950E-003    -4.7043290150088620E-008
  -8.8999999999999913E-003     4.2778673050491608E-008
  -7.7999999999999875E-003     1.8609391361431173E-007
  -6.6999999999999837E-003     2.7607399033712470E-007
  -5.5999999999999939E-003     2.8909258276332216E-007
  -4.4999999999999901E-003     3.1257491173339164E-007
  -3.3999999999999864E-003     4.1646879367521955E-007
  -2.2999999999999826E-003     5.5084774430865601E-007
  -1.1999999999999927E-003     6.2783681187403950E-007
  -9.9999999999988987E-005     6.5320148223787388E-007
   1.0000000000000148E-003     7.0860522782893449E-007
   2.1000000000000185E-003     8.1737118762290812E-007
   3.2000000000000084E-003     9.0641538008652178E-007
   4.3000000000000121E-003     9.2195750767111917E-007
   5.4000000000000159E-003     9.1956377445912726E-007
   6.5000000000000058E-003     9.7652025487969081E-007
   7.6000000000000234E-003     1.0664334695307824E-006
   8.7000000000000133E-003     1.0950625437528131E-006
   9.8000000000000032E-003     1.0413900781693510E-006
   1.0900000000000021E-002     9.9282772225463465E-007
   1.2000000000000011E-002     1.0096819096333172E-006
   1.3100000000000001E-002     1.0402197858606951E-006
   1.4200000000000018E-002     9.9708415745780497E-007
   1.5300000000000008E-002     8.9023160398547142E-007
   1.6400000000000026E-002     8.0678870517234712E-007
   1.7500000000000016E-002     7.7435930733827302E-007
   1.8600000000000005E-002     7.2581383391906801E-007
   1.9700000000000023E-002     6.0932842415642922E-007
   2.0800000000000013E-002     4.7001185520838045E-007
   2.1900000000000003E-002     3.7595273738042177E-007
   2.3000000000000020E-002     3.1190586468605457E-007
   2.4100000000000010E-002     2.0822680823470991E-007
   2.5200000000000000E-002     5.5134190540635829E-008
   2.6300000000000018E-002    -8.0452934986446455E-008
   2.7400000000000008E-002    -1.5774334372622713E-007
   2.8500000000000025E-002    -2.2628690033447867E-007
   2.9600000000000015E-002    -3.4254603065709688E-007
   3.0700000000000005E-002    -4.8424516308458671E-007
   3.1800000000000023E-002    -5.8069571196532556E-007
   3.2900000000000013E-002    -6.1789626216090454E-007
   3.4000000000000002E-002    -6.5836758267769545E-007
   3.5100000000000020E-002    -7.3903333941828060E-007
   3.6200000000000010E-002    -8.2125615108827179E-007
   3.7300000000000028E-002    -8.5566352936773985E-007
   3.8400000000000017E-002    -8.4984918658230308E-007
   3.9500000000000007E-002    -8.4994752569649288E-007
   4.0600000000000025E-002    -8.7007458660285809E-007
   4.1700000000000015E-002    -8.7287526184967355E-007
   4.2800000000000005E-002    -8.3625616298489322E-007
   4.3900000000000022E-002    -7.9381578643799725E-007
   4.5000000000000012E-002    -7.7170807344394333E-007
   4.6100000000000002E-002    -7.4230985092049020E-007
   4.7200000000000020E-002    -6.8152326093630476E-007
   4.8300000000000010E-002    -5.9537762808653659E-007
   4.9400000000000027E-002    -5.2971029162874763E-007
   5.0500000000000017E-002    -4.9364456344668272E-007
   5.1600000000000007E-002    -4.4012730881848141E-007
   5.2700000000000025E-002    -3.4874477705430556E-007
   5.3800000000000014E-002    -2.5769080025117790E-007
   5.4900000000000004E-002    -2.0193682814517560E-007
   5.6000000000000022E-002    -1.6240733202413530E-007
   5.7100000000000012E-002    -1.0000658079110834E-007
   5.8200000000000002E-002    -2.0191800228473538E-008
   5.9300000000000019E-002     3.6809417739535049E-008
   6.0400000000000009E-002     6.2802619996857238E-008
   6.1500000000000027E-002     9.1918430204137813E-008
   6.2600000000000017E-002     1.4536804826898913E-007
   6.3700000000000007E-002     1.9510194704600095E-007
   6.4800000000000024E-002     2.0974917447688051E-007
   6.5900000000000014E-002     2.0669355649593317E-007
   6.7000000000000004E-002     2.2347136053080054E-007
   6.8100000000000022E-002     2.5401016046398615E-007
   6.9200000000000012E-002     2.5805613290981050E-007
   7.0300000000000029E-002     2.3236017910046754E-007
   7.1400000000000019E-002     2.2090196694343873E-007
   7.2500000000000009E-002     2.4344203098072637E-007
   7.3600000000000027E-002     2.5621380928216212E-007
   7.4700000000000016E-002     2.1721464804824930E-007
   7.5800000000000006E-002     1.5836462807976555E-007
   7.6900000000000024E-002     1.4445092233648112E-007
   7.8000000000000014E-002     1.7601017532500617E-007
   7.9100000000000004E-002     1.8493277309657756E-007
   8.0200000000000021E-002     1.3472168802888010E-007
   8.1300000000000011E-002     7.5497489150338744E-008
   8.2400000000000029E-002     6.5383765957926375E-008
   8.3500000000000019E-002     8.3277427621276749E-008
   8.4600000000000009E-002     7.0110893091823964E-008
   8.5700000000000026E-002     2.6417374954766361E-008
   8.6800000000000016E-002     1.0583771193202993E-008
   8.7900000000000006E-002     3.5971204681887811E-008
   8.9000000000000024E-002     3.9983586219924286E-008
   9.0100000000000013E-002    -1.3698302048093877E-008
   9.1200000000000003E-002    -6.6326542480453792E-008
   9.2300000000000021E-002    -4.6594028191301441E-008
   9.3400000000000011E-002     1.7130307838833110E-008
   9.4500000000000028E-002     2.6769809480127543E-008
   9.5600000000000018E-002    -4.0455706340640567E-008
   9.6700000000000008E-002    -9.4566189545926034E-008
   9.7800000000000026E-002    -6.4815544931429699E-008
   9.8900000000000016E-002    -2.2857113981755754E-009
  0.10000000000000001          1.4859882742461322E-010
  0.10110000000000002         -5.0791847172881009E-008
  0.10220000000000001         -6.6669436194218335E-008
  0.10330000000000003         -2.1150199814034772E-008
  0.10440000000000002          7.3756512006126396E-009
  0.10550000000000001         -3.4206252053372118E-008
  0.10660000000000003         -8.2016846647835266E-008
  0.10770000000000002         -4.9909736788147538E-008
  0.10880000000000001          2.7650118638873178E-008
  0.10990000000000003          3.7982385236737307E-008
  0.11100000000000002         -3.7480777592947768E-008
  0.11210000000000001         -8.7789494785075979E-008
  0.11320000000000002         -3.6347024945605284E-008
  0.11430000000000001          4.2780943232179708E-008
  0.11540000000000003          3.6432030725352298E-008
  0.11650000000000002         -3.7454899626457466E-008
  0.11760000000000001         -6.0510906507907539E-008
  0.11870000000000003          1.1508867190800916E-009
  0.11980000000000002          4.6347981452586906E-008
  0.12090000000000001          1.4516908784582807E-009
  0.12200000000000003         -6.0372691734907224E-008
  0.12310000000000001         -3.3669369514796123E-008
  0.12420000000000003          4.9674184765405591E-008
  0.12530000000000002          6.3261794025371054E-008
  0.12640000000000001         -1.8179818539582083E-008
  0.12750000000000003         -7.4722535714609981E-008
  0.12860000000000002         -2.1474654943277904E-008
  0.12970000000000001          6.1209021850934460E-008
  0.13080000000000003          4.9960519277104316E-008
  0.13190000000000002         -3.3943365451789820E-008
  0.13300000000000001         -5.9567273780282573E-008
  0.13410000000000000          1.0465149635691347E-008
  0.13520000000000004          6.3748146317199819E-008
  0.13630000000000003          1.5364216565607743E-008
  0.13740000000000002         -5.8233055710905882E-008
  0.13850000000000001         -3.8285289605313075E-008
  0.13960000000000000          4.8987882195154721E-008
  0.14070000000000005          6.9347372288982527E-008
  0.14180000000000004         -1.2241049063324728E-008
  0.14290000000000003         -7.5403107757711849E-008
  0.14400000000000002         -2.6900739413846547E-008
  0.14510000000000001          5.7940074071856285E-008
  0.14620000000000000          5.1698656022800428E-008
  0.14730000000000004         -3.0796783789846181E-008
  0.14840000000000003         -5.9494798421190104E-008
  0.14950000000000002          7.5671744425824756E-009
  0.15060000000000001          6.1217903635196550E-008
  0.15170000000000000          1.4681521776055021E-008
  0.15280000000000005         -5.9452005984923380E-008
  0.15390000000000004         -4.2012715084664826E-008
  0.15500000000000003          4.4607567417620121E-008
  0.15610000000000002          6.7775353329558967E-008
  0.15720000000000001         -1.1355499651722082E-008
  0.15830000000000000         -7.5753902706333833E-008
  0.15940000000000004         -2.9232992915261393E-008
  0.16050000000000003          5.8468362595913672E-008
  0.16160000000000002          5.8807621883244229E-008
  0.16270000000000001         -2.2366670293668260E-008
  0.16380000000000000         -5.9840218114023322E-008
  0.16490000000000005         -2.8351170300476516E-009
  0.16600000000000004          5.2719148158061461E-008
  0.16710000000000003          1.9130357742354992E-008
  0.16820000000000002         -4.6913438467315580E-008
  0.16930000000000001         -3.7099304961444723E-008
  0.17040000000000000          3.5898750638795405E-008
  0.17150000000000004          5.7277397047517226E-008
  0.17260000000000003         -1.0031606656481203E-008
  0.17370000000000002         -6.5163938245418665E-008
  0.17480000000000001         -2.3278415639550273E-008
  0.17590000000000000          5.3830401469658585E-008
  0.17700000000000005          5.1453422855720964E-008
  0.17810000000000004         -2.4672488052611897E-008
  0.17920000000000003         -6.0100248333594253E-008
  0.18030000000000002         -6.0484315334100318E-009
  0.18140000000000001          5.0869250145517181E-008
  0.18250000000000000          2.5426857064296062E-008
  0.18360000000000004         -3.8143191716253387E-008
  0.18470000000000003         -4.0112205113027525E-008
  0.18580000000000002          1.9671251294532747E-008
  0.18690000000000001          4.5843705720466146E-008
  0.18800000000000000         -1.6087579046766398E-009
  0.18910000000000005         -4.6741561732241320E-008
  0.19020000000000004         -1.8114475253135623E-008
  0.19130000000000003          4.0140932355819933E-008
  0.19240000000000002          3.8103969757225354E-008
  0.19350000000000001         -2.0907377162877535E-008
  0.19460000000000005         -4.7044913742418579E-008
  0.19570000000000004         -2.8325732870433412E-009
  0.19680000000000003          4.1695557229099800E-008
  0.19790000000000002          1.9140999896189580E-008
  0.19900000000000001         -3.2895730583965669E-008
  0.20010000000000000         -3.2762915935797516E-008
  0.20120000000000005          1.9422406793973755E-008
  0.20230000000000004          4.4505146234992940E-008
  0.20340000000000003          6.8200374236894936E-009
  0.20450000000000002         -3.4107927149312569E-008
  0.20560000000000000         -1.7645980676666568E-008
  0.20670000000000005          2.6816943332615746E-008
  0.20780000000000004          2.9469250151234279E-008
  0.20890000000000003         -1.2287165063188824E-008
