 -0.12000000000000000          0.0000000000000000
 -0.11889999999999999          0.0000000000000000
 -0.11780000000000000         -2.8803398555155013E-010
 -0.11670000000000000         -3.7413230846716772E-010
 -0.11559999999999999          3.5014202648397941E-010
 -0.11449999999999999          9.4072993839233732E-010
 -0.11340000000000000          9.4344476675445321E-011
 -0.11230000000000000         -1.0913584480576333E-009
 -0.11119999999999999         -5.3994969606563359E-010
 -0.11009999999999999          4.0800357536951992E-010
 -0.10900000000000000         -1.7057483203686274E-009
 -0.10790000000000000         -5.1608437523498196E-009
 -0.10679999999999999         -2.5409636617013120E-009
 -0.10569999999999999          7.8289543736786982E-009
 -0.10460000000000000          1.4875270792913398E-008
 -0.10349999999999999          7.4609030065175830E-009
 -0.10239999999999999         -7.8668955794114481E-009
 -0.10130000000000000         -1.2319262054916180E-008
 -0.10020000000000000         -5.1224391395265911E-010
  -9.9099999999999994E-002     1.0257083182807492E-008
  -9.7999999999999990E-002     3.9317296085528142E-009
  -9.6899999999999986E-002    -1.0295738483989680E-008
  -9.5799999999999996E-002    -1.0654840565393897E-008
  -9.4699999999999993E-002     4.9943409408115258E-009
  -9.3599999999999989E-002     1.5762239513605891E-008
  -9.2499999999999999E-002     8.8267935183239388E-009
  -9.1399999999999995E-002    -2.6692783539061793E-009
  -9.0299999999999991E-002    -2.5359894184617815E-009
  -8.9200000000000002E-002     1.5046968115939308E-009
  -8.8099999999999984E-002    -9.5546432987703156E-009
  -8.6999999999999994E-002    -3.3973442725709901E-008
  -8.5899999999999990E-002    -5.0856847622071655E-008
  -8.4799999999999986E-002    -5.4565187923572012E-008
  -8.3699999999999997E-002    -6.5483590105941403E-008
  -8.2599999999999993E-002    -9.6674199312474229E-008
  -8.1499999999999989E-002    -1.2998616227832827E-007
  -8.0399999999999999E-002    -1.4490582600501511E-007
  -7.9299999999999995E-002    -1.5748176451779727E-007
  -7.8199999999999992E-002    -2.0287122026729776E-007
  -7.7100000000000002E-002    -2.8166061838419409E-007
  -7.5999999999999984E-002    -3.5502972650647280E-007
  -7.4899999999999994E-002    -4.0535371681471588E-007
  -7.3799999999999991E-002    -4.7338625108750421E-007
  -7.2699999999999987E-002    -6.0896377362951171E-007
  -7.1599999999999997E-002    -8.0216574360747472E-007
  -7.0499999999999993E-002    -9.9893873084511142E-007
  -6.9399999999999989E-002    -1.1834091537821223E-006
  -6.8300000000000000E-002    -1.4076381376071367E-006
  -6.7199999999999996E-002    -1.7256362525586155E-006
  -6.6099999999999992E-002    -2.1305825157469371E-006
  -6.5000000000000002E-002    -2.5860786081466358E-006
  -6.3899999999999985E-002    -3.0978587801655522E-006
  -6.2799999999999995E-002    -3.7148947740206495E-006
  -6.1699999999999991E-002    -4.4658131628239062E-006
  -6.0599999999999994E-002    -5.3392122936202213E-006
  -5.9499999999999990E-002    -6.3407328525499906E-006
  -5.8399999999999994E-002    -7.5280372584529687E-006
  -5.7299999999999990E-002    -8.9556606326368637E-006
  -5.6199999999999986E-002    -1.0613589438435156E-005
  -5.5099999999999996E-002    -1.2469037756090984E-005
  -5.3999999999999992E-002    -1.4561926946043968E-005
  -5.2899999999999989E-002    -1.7006890630000271E-005
  -5.1799999999999985E-002    -1.9883926142938435E-005
  -5.0699999999999995E-002    -2.3173799490905367E-005
  -4.9599999999999991E-002    -2.6839150450541638E-005
  -4.8499999999999988E-002    -3.0936917028157040E-005
  -4.7399999999999998E-002    -3.5597473470261320E-005
  -4.6299999999999994E-002    -4.0901748434407637E-005
  -4.5199999999999990E-002    -4.6839159040246159E-005
  -4.4099999999999986E-002    -5.3402483899844810E-005
  -4.2999999999999997E-002    -6.0669732192764059E-005
  -4.1899999999999993E-002    -6.8749388447031379E-005
  -4.0799999999999989E-002    -7.7679120295215398E-005
  -3.9699999999999985E-002    -8.7439002527389675E-005
  -3.8599999999999995E-002    -9.8054573754779994E-005
  -3.7499999999999992E-002    -1.0961799125652760E-004
  -3.6399999999999988E-002    -1.2218915799167007E-004
  -3.5299999999999984E-002    -1.3572993339039385E-004
  -3.4199999999999994E-002    -1.5017831174191087E-004
  -3.3099999999999991E-002    -1.6555032925680280E-004
  -3.1999999999999987E-002    -1.8190129776485264E-004
  -3.0899999999999997E-002    -1.9919988699257374E-004
  -2.9799999999999993E-002    -2.1730411390308291E-004
  -2.8699999999999989E-002    -2.3608282208442688E-004
  -2.7599999999999986E-002    -2.5549560086801648E-004
  -2.6499999999999996E-002    -2.7549912920221686E-004
  -2.5399999999999992E-002    -2.9592032660730183E-004
  -2.4299999999999988E-002    -3.1648413278162479E-004
  -2.3199999999999985E-002    -3.3696330501697958E-004
  -2.2099999999999995E-002    -3.5721508902497590E-004
  -2.0999999999999991E-002    -3.7705659633502364E-004
  -1.9899999999999987E-002    -3.9616276626475155E-004
  -1.8799999999999983E-002    -4.1414279257878661E-004
  -1.7699999999999994E-002    -4.3067516526207328E-004
  -1.6599999999999990E-002    -4.4549678568728268E-004
  -1.5499999999999986E-002    -4.5828279689885676E-004
  -1.4399999999999996E-002    -4.6860042493790388E-004
  -1.3299999999999992E-002    -4.7602353151887655E-004
  -1.2199999999999989E-002    -4.8021852853707969E-004
  -1.1099999999999985E-002    -4.8088125186040998E-004
  -9.9999999999999950E-003    -4.7762491158209741E-004
  -8.8999999999999913E-003    -4.7001734492368996E-004
  -7.7999999999999875E-003    -4.5772170415148139E-004
  -6.6999999999999837E-003    -4.4053475721739233E-004
  -5.5999999999999939E-003    -4.1826930828392506E-004
  -4.4999999999999901E-003    -3.9066400495357811E-004
  -3.3999999999999864E-003    -3.5747746005654335E-004
  -2.2999999999999826E-003    -3.1863292679190636E-004
  -1.1999999999999927E-003    -2.7420168044045568E-004
  -9.9999999999988987E-005    -2.2427090152632445E-004
   1.0000000000000148E-003    -1.6890377446543425E-004
   2.1000000000000185E-003    -1.0825564822880551E-004
   3.2000000000000084E-003    -4.2664090869948268E-005
   4.3000000000000121E-003     2.7413729185354896E-005
   5.4000000000000159E-003     1.0152475442737341E-004
   6.5000000000000058E-003     1.7919813399203122E-004
   7.6000000000000234E-003     2.5982683291658759E-004
   8.7000000000000133E-003     3.4263337147422135E-004
   9.8000000000000032E-003     4.2678258614614606E-004
   1.0900000000000021E-002     5.1148433703929186E-004
   1.2000000000000011E-002     5.9593765763565898E-004
   1.3100000000000001E-002     6.7922804737463593E-004
   1.4200000000000018E-002     7.6033984078094363E-004
   1.5300000000000008E-002     8.3828356582671404E-004
   1.6400000000000026E-002     9.1215391876176000E-004
   1.7500000000000016E-002     9.8106171935796738E-004
   1.8600000000000005E-002     1.0440759360790253E-003
   1.9700000000000023E-002     1.1002884712070227E-003
   2.0800000000000013E-002     1.1489238822832704E-003
   2.1900000000000003E-002     1.1893322225660086E-003
   2.3000000000000020E-002     1.2208999833092093E-003
   2.4100000000000010E-002     1.2430400820448995E-003
   2.5200000000000000E-002     1.2552947737276554E-003
   2.6300000000000018E-002     1.2574158608913422E-003
   2.7400000000000008E-002     1.2493078829720616E-003
   2.8500000000000025E-002     1.2309453450143337E-003
   2.9600000000000015E-002     1.2023724848404527E-003
   3.0700000000000005E-002     1.1637946590781212E-003
   3.1800000000000023E-002     1.1156079126521945E-003
   3.2900000000000013E-002     1.0583424009382725E-003
   3.4000000000000002E-002     9.9260150454938412E-004
   3.5100000000000020E-002     9.1908063041046262E-004
   3.6200000000000010E-002     8.3860289305448532E-004
   3.7300000000000028E-002     7.5210659997537732E-004
   3.8400000000000017E-002     6.6056847572326660E-004
   3.9500000000000007E-002     5.6497991317883134E-004
   4.0600000000000025E-002     4.6638940693810582E-004
   4.1700000000000015E-002     3.6591480602510273E-004
   4.2800000000000005E-002     2.6468795840628445E-004
   4.3900000000000022E-002     1.6379922453779727E-004
   4.5000000000000012E-002     6.4270134316757321E-005
   4.6100000000000002E-002    -3.2909938454395160E-005
   4.7200000000000020E-002    -1.2678382336162031E-004
   4.8300000000000010E-002    -2.1644815569743514E-004
   4.9400000000000027E-002    -3.0109987710602582E-004
   5.0500000000000017E-002    -3.8002574001438916E-004
   5.1600000000000007E-002    -4.5261561172083020E-004
   5.2700000000000025E-002    -5.1836977945640683E-004
   5.3800000000000014E-002    -5.7690619723871350E-004
   5.4900000000000004E-002    -6.2794581754133105E-004
   5.6000000000000022E-002    -6.7130330717191100E-004
   5.7100000000000012E-002    -7.0689286803826690E-004
   5.8200000000000002E-002    -7.3474779492244124E-004
   5.9300000000000019E-002    -7.5500522507354617E-004
   6.0400000000000009E-002    -7.6788634760305285E-004
   6.1500000000000027E-002    -7.7368511119857430E-004
   6.2600000000000017E-002    -7.7278481330722570E-004
   6.3700000000000007E-002    -7.6563790207728744E-004
   6.4800000000000024E-002    -7.5272464891895652E-004
   6.5900000000000014E-002    -7.3454348603263497E-004
   6.7000000000000004E-002    -7.1164377732202411E-004
   6.8100000000000022E-002    -6.8463810021057725E-004
   6.9200000000000012E-002    -6.5414956770837307E-004
   7.0300000000000029E-002    -6.2075449386611581E-004
   7.1400000000000019E-002    -5.8499252190813422E-004
   7.2500000000000009E-002    -5.4742273641750216E-004
   7.3600000000000027E-002    -5.0862354692071676E-004
   7.4700000000000016E-002    -4.6912475954741240E-004
   7.5800000000000006E-002    -4.2936959653161466E-004
   7.6900000000000024E-002    -3.8976545329205692E-004
   7.8000000000000014E-002    -3.5073849721811712E-004
   7.9100000000000004E-002    -3.1269266037270427E-004
   8.0200000000000021E-002    -2.7592276455834508E-004
   8.1300000000000011E-002    -2.4062291777227074E-004
   8.2400000000000029E-002    -2.0698105799965560E-004
   8.3500000000000019E-002    -1.7522909911349416E-004
   8.4600000000000009E-002    -1.4556002861354500E-004
   8.5700000000000026E-002    -1.1803804227383807E-004
   8.6800000000000016E-002    -9.2640366347040981E-005
   8.7900000000000006E-002    -6.9376204919535667E-005
   8.9000000000000024E-002    -4.8307443648809567E-005
   9.0100000000000013E-002    -2.9439619538607076E-005
   9.1200000000000003E-002    -1.2661422260862309E-005
   9.2300000000000021E-002     2.1660937363776611E-006
   9.3400000000000011E-002     1.5102592442417517E-005
   9.4500000000000028E-002     2.6173445803578943E-005
   9.5600000000000018E-002     3.5496432246873155E-005
   9.6700000000000008E-002     4.3286989239277318E-005
   9.7800000000000026E-002     4.9713817134033889E-005
   9.8900000000000016E-002     5.4826155974296853E-005
  0.10000000000000001          5.8664936659624800E-005
  0.10110000000000002          6.1390492192003876E-005
  0.10220000000000001          6.3230341766029596E-005
  0.10330000000000003          6.4314532210119069E-005
  0.10440000000000002          6.4654457673896104E-005
  0.10550000000000001          6.4296378695871681E-005
  0.10660000000000003          6.3409992435481399E-005
  0.10770000000000002          6.2172621255740523E-005
  0.10880000000000001          6.0624388424912468E-005
  0.10990000000000003          5.8725712733576074E-005
  0.11100000000000002          5.6532899179728702E-005
  0.11210000000000001          5.4219977755565196E-005
  0.11320000000000002          5.1903814892284572E-005
  0.11430000000000001          4.9538612074684352E-005
  0.11540000000000003          4.7046542022144422E-005
  0.11650000000000002          4.4491316657513380E-005
  0.11760000000000001          4.2027946619782597E-005
  0.11870000000000003          3.9707727410132065E-005
  0.11980000000000002          3.7436799175338820E-005
  0.12090000000000001          3.5150980693288147E-005
  0.12200000000000003          3.2936608477029949E-005
  0.12310000000000001          3.0907413020031527E-005
  0.12420000000000003          2.9033581085968763E-005
  0.12530000000000002          2.7192780180484988E-005
  0.12640000000000001          2.5368446586071514E-005
  0.12750000000000003          2.3684620828134939E-005
  0.12860000000000002          2.2216052457224578E-005
  0.12970000000000001          2.0864994439762086E-005
  0.13080000000000003          1.9500037524267100E-005
  0.13190000000000002          1.8150189134757966E-005
  0.13300000000000001          1.6956548279267736E-005
  0.13410000000000000          1.5953297406667843E-005
  0.13520000000000004          1.5012032235972583E-005
  0.13630000000000003          1.4033231309440453E-005
  0.13740000000000002          1.3089515050523914E-005
  0.13850000000000001          1.2301471542741638E-005
  0.13960000000000000          1.1641991477517877E-005
  0.14070000000000005          1.0972644304274581E-005
  0.14180000000000004          1.0255371307721362E-005
  0.14290000000000003          9.6079138529603370E-006
  0.14400000000000002          9.1155043264734559E-006
  0.14510000000000001          8.6904801719356328E-006
  0.14620000000000000          8.1991638580802828E-006
  0.14730000000000004          7.6619999163085595E-006
  0.14840000000000003          7.2193051892099902E-006
  0.14950000000000002          6.9143079599598423E-006
  0.15060000000000001          6.6260063249501400E-006
  0.15170000000000000          6.2530293689633254E-006
  0.15280000000000005          5.8632795116864145E-006
  0.15390000000000004          5.5812033679103479E-006
  0.15500000000000003          5.3910252972855233E-006
  0.15610000000000002          5.1608685680548660E-006
  0.15720000000000001          4.8480060286237858E-006
  0.15830000000000000          4.5645265345228836E-006
  0.15940000000000004          4.4021217036060989E-006
  0.16050000000000003          4.2871306504821405E-006
  0.16160000000000002          4.0913364500738680E-006
  0.16270000000000001          3.8271427911240608E-006
  0.16380000000000000          3.6267672385292826E-006
  0.16490000000000005          3.5391226447245572E-006
  0.16600000000000004          3.4562162909423932E-006
  0.16710000000000003          3.2792740967124701E-006
  0.16820000000000002          3.0662290555483196E-006
  0.16930000000000001          2.9375853500823723E-006
  0.17040000000000000          2.8903173188155051E-006
  0.17150000000000004          2.8069161999155767E-006
  0.17260000000000003          2.6394977794552688E-006
  0.17370000000000002          2.4817654775688425E-006
  0.17480000000000001          2.4204946384998038E-006
  0.17590000000000000          2.3998113647394348E-006
  0.17700000000000005          2.3079962829797296E-006
  0.17810000000000004          2.1496668978215894E-006
  0.17920000000000003          2.0373663573991507E-006
  0.18030000000000002          2.0180805222480558E-006
  0.18140000000000001          2.0029949610034237E-006
  0.18250000000000000          1.9048205786020844E-006
  0.18360000000000004          1.7692400433588773E-006
  0.18470000000000003          1.7007578207994811E-006
  0.18580000000000002          1.7028261254381505E-006
  0.18690000000000001          1.6771781474744785E-006
  0.18800000000000000          1.5771913695061812E-006
  0.18910000000000005          1.4758379620616324E-006
  0.19020000000000004          1.4481829566648230E-006
  0.19130000000000003          1.4554891549778404E-006
  0.19240000000000002          1.4087326007938827E-006
  0.19350000000000001          1.3077532230454381E-006
  0.19460000000000005          1.2397473483360955E-006
  0.19570000000000004          1.2428242825990310E-006
  0.19680000000000003          1.2477529480747762E-006
  0.19790000000000002          1.1854879176098621E-006
  0.19900000000000001          1.0922312867478468E-006
  0.20010000000000000          1.0521824833631399E-006
  0.20120000000000005          1.0697067409637384E-006
  0.20230000000000004          1.0660745601853705E-006
  0.20340000000000003          1.0002463568525854E-006
  0.20450000000000002          9.2682449803760392E-007
  0.20560000000000000          9.0851597178698285E-007
  0.20670000000000005          9.2293686293487553E-007
  0.20780000000000004          9.0341836767038330E-007
  0.20890000000000003          8.4275961853563786E-007
