 -0.12000000000000000          0.0000000000000000
 -0.11889999999999999          0.0000000000000000
 -0.11780000000000000          0.0000000000000000
 -0.11670000000000000          0.0000000000000000
 -0.11559999999999999         -2.3976216724597620E-041
 -0.11449999999999999          1.4284266213707587E-015
 -0.11340000000000000         -2.4924147760865129E-015
 -0.11230000000000000         -1.3384939146355700E-014
 -0.11119999999999999          2.1669289829834813E-014
 -0.11009999999999999          9.6478509588934086E-014
 -0.10900000000000000         -6.4762993958519116E-014
 -0.10790000000000000         -5.1346725265730142E-013
 -0.10679999999999999         -1.4715512879417969E-013
 -0.10569999999999999          1.8767459374763318E-012
 -0.10460000000000000          2.3827196726083910E-012
 -0.10349999999999999         -3.7394445179250724E-012
 -0.10239999999999999         -1.1419128663481271E-011
 -0.10130000000000000         -2.0969831773798298E-012
 -0.10020000000000000          2.8348457262183935E-011
  -9.9099999999999994E-002     3.8769626398149626E-011
  -9.7999999999999990E-002    -2.0811768974837719E-011
  -9.6899999999999986E-002    -1.1168243413406387E-010
  -9.5799999999999996E-002    -9.2686011643472455E-011
  -9.4699999999999993E-002     1.0614278900256124E-010
  -9.3599999999999989E-002     3.0103769477207720E-010
  -9.2499999999999999E-002     1.8590790018535586E-010
  -9.1399999999999995E-002    -2.5472449149965826E-010
  -9.0299999999999991E-002    -5.8175581019170863E-010
  -8.9200000000000002E-002    -3.5416425347989389E-010
  -8.8099999999999984E-002     2.7511012912206922E-010
  -8.6999999999999994E-002     6.7017652538581274E-010
  -8.5899999999999990E-002     5.1441384485428898E-010
  -8.4799999999999986E-002     2.1862073262823856E-010
  -8.3699999999999997E-002     2.5128907288340940E-010
  -8.2599999999999993E-002     2.7846724925950639E-010
  -8.1499999999999989E-002    -5.3182730441747594E-010
  -8.0399999999999999E-002    -2.2713610992042277E-009
  -7.9299999999999995E-002    -3.7994651869155405E-009
  -7.8199999999999992E-002    -3.6941389947031666E-009
  -7.7100000000000002E-002    -1.2695845486021540E-009
  -7.5999999999999984E-002     3.6348541954112079E-009
  -7.4899999999999994E-002     1.1205800731772797E-008
  -7.3799999999999991E-002     2.1071221212309865E-008
  -7.2699999999999987E-002     3.1462842997598273E-008
  -7.1599999999999997E-002     4.0369378950799728E-008
  -7.0499999999999993E-002     4.8108034889082774E-008
  -6.9399999999999989E-002     5.7568250610984251E-008
  -6.8300000000000000E-002     7.0786583705739758E-008
  -6.7199999999999996E-002     8.6315459668639960E-008
  -6.6099999999999992E-002     1.0202891331800856E-007
  -6.5000000000000002E-002     1.2042855246363615E-007
  -6.3899999999999985E-002     1.4856051677725191E-007
  -6.2799999999999995E-002     1.9108937010514637E-007
  -6.1699999999999991E-002     2.4523833985767851E-007
  -6.0599999999999994E-002     3.0510227588820271E-007
  -5.9499999999999990E-002     3.7036326716588519E-007
  -5.8399999999999994E-002     4.4808234633819666E-007
  -5.7299999999999990E-002     5.4581448694079882E-007
  -5.6199999999999986E-002     6.6625688077692757E-007
  -5.5099999999999996E-002     8.1032442267314764E-007
  -5.3999999999999992E-002     9.8234590950596612E-007
  -5.2899999999999989E-002     1.1887317441505729E-006
  -5.1799999999999985E-002     1.4335645346363890E-006
  -5.0699999999999995E-002     1.7206463098773384E-006
  -4.9599999999999991E-002     2.0601601136149839E-006
  -4.8499999999999988E-002     2.4675302938703680E-006
  -4.7399999999999998E-002     2.9524921956181061E-006
  -4.6299999999999994E-002     3.5144985304214060E-006
  -4.5199999999999990E-002     4.1555599636922125E-006
  -4.4099999999999986E-002     4.8957158469420392E-006
  -4.2999999999999997E-002     5.7676679716678336E-006
  -4.1899999999999993E-002     6.7942878558824304E-006
  -4.0799999999999989E-002     7.9788869697949849E-006
  -3.9699999999999985E-002     9.3232611106941476E-006
  -3.8599999999999995E-002     1.0849546924873721E-005
  -3.7499999999999992E-002     1.2595923180924729E-005
  -3.6399999999999988E-002     1.4593530067941174E-005
  -3.5299999999999984E-002     1.6858370145200752E-005
  -3.4199999999999994E-002     1.9407847503316589E-005
  -3.3099999999999991E-002     2.2273721697274595E-005
  -3.1999999999999987E-002     2.5490691768936813E-005
  -3.0899999999999997E-002     2.9080771128064953E-005
  -2.9799999999999993E-002     3.3061700378311798E-005
  -2.8699999999999989E-002     3.7467609217856079E-005
  -2.7599999999999986E-002     4.2344625398982316E-005
  -2.6499999999999996E-002     4.7720877773826942E-005
  -2.5399999999999992E-002     5.3594634664477780E-005
  -2.4299999999999988E-002     5.9963509556837380E-005
  -2.3199999999999985E-002     6.6855391196440905E-005
  -2.2099999999999995E-002     7.4312214564997703E-005
  -2.0999999999999991E-002     8.2345773989800364E-005
  -1.9899999999999987E-002     9.0926943812519312E-005
  -1.8799999999999983E-002     1.0002390627050772E-004
  -1.7699999999999994E-002     1.0963048407575116E-004
  -1.6599999999999990E-002     1.1974067456321791E-004
  -1.5499999999999986E-002     1.3030838454142213E-004
  -1.4399999999999996E-002     1.4125497546046972E-004
  -1.3299999999999992E-002     1.5251159493345767E-004
  -1.2199999999999989E-002     1.6402637993451208E-004
  -1.1099999999999985E-002     1.7571874195709825E-004
  -9.9999999999999950E-003     1.8744851695373654E-004
  -8.8999999999999913E-003     1.9905570661649108E-004
  -7.7999999999999875E-003     2.1041464060544968E-004
  -6.6999999999999837E-003     2.2141665976960212E-004
  -5.5999999999999939E-003     2.3190731008071452E-004
  -4.4999999999999901E-003     2.4166378716472536E-004
  -3.3999999999999864E-003     2.5045269285328686E-004
  -2.2999999999999826E-003     2.5808680220507085E-004
  -1.1999999999999927E-003     2.6439636712893844E-004
  -9.9999999999988987E-005     2.6916770730167627E-004
   1.0000000000000148E-003     2.7214342844672501E-004
   2.1000000000000185E-003     2.7309157303534448E-004
   3.2000000000000084E-003     2.7183344354853034E-004
   4.3000000000000121E-003     2.6818693731911480E-004
   5.4000000000000159E-003     2.6192079531028867E-004
   6.5000000000000058E-003     2.5281417765654624E-004
   7.6000000000000234E-003     2.4073265376500785E-004
   8.7000000000000133E-003     2.2561685182154179E-004
   9.8000000000000032E-003     2.0738759485539049E-004
   1.0900000000000021E-002     1.8590989930089563E-004
   1.2000000000000011E-002     1.6109796706587076E-004
   1.3100000000000001E-002     1.3300110003910959E-004
   1.4200000000000018E-002     1.0175870556849986E-004
   1.5300000000000008E-002     6.7491266236174852E-005
   1.6400000000000026E-002     3.0292834708234295E-005
   1.7500000000000016E-002    -9.6686599135864526E-006
   1.8600000000000005E-002    -5.2095176215516403E-005
   1.9700000000000023E-002    -9.6633528301026672E-005
   2.0800000000000013E-002    -1.4295043365564197E-004
   2.1900000000000003E-002    -1.9070555572398007E-004
   2.3000000000000020E-002    -2.3944598797243088E-004
   2.4100000000000010E-002    -2.8862073668278754E-004
   2.5200000000000000E-002    -3.3770111622288823E-004
   2.6300000000000018E-002    -3.8622878491878510E-004
   2.7400000000000008E-002    -4.3371997890062630E-004
   2.8500000000000025E-002    -4.7956703929230571E-004
   2.9600000000000015E-002    -5.2310928003862500E-004
   3.0700000000000005E-002    -5.6378514273092151E-004
   3.1800000000000023E-002    -6.0115358792245388E-004
   3.2900000000000013E-002    -6.3475948991253972E-004
   3.4000000000000002E-002    -6.6406413679942489E-004
   3.5100000000000020E-002    -6.8855105200782418E-004
   3.6200000000000010E-002    -7.0786109426990151E-004
   3.7300000000000028E-002    -7.2176015237346292E-004
   3.8400000000000017E-002    -7.2999781696125865E-004
   3.9500000000000007E-002    -7.3229358531534672E-004
   4.0600000000000025E-002    -7.2848197305575013E-004
   4.1700000000000015E-002    -7.1860360912978649E-004
   4.2800000000000005E-002    -7.0279045030474663E-004
   4.3900000000000022E-002    -6.8112398730590940E-004
   4.5000000000000012E-002    -6.5368594368919730E-004
   4.6100000000000002E-002    -6.2072667060419917E-004
   4.7200000000000020E-002    -5.8269896544516087E-004
   4.8300000000000010E-002    -5.4008903680369258E-004
   4.9400000000000027E-002    -4.9330107867717743E-004
   5.0500000000000017E-002    -4.4275133404880762E-004
   5.1600000000000007E-002    -3.8903357926756144E-004
   5.2700000000000025E-002    -3.3286324469372630E-004
   5.3800000000000014E-002    -2.7488920022733510E-004
   5.4900000000000004E-002    -2.1564774215221405E-004
   5.6000000000000022E-002    -1.5572094707749784E-004
   5.7100000000000012E-002    -9.5835333922877908E-005
   5.8200000000000002E-002    -3.6740875657415017E-005
   5.9300000000000019E-002     2.0984514776500873E-005
   6.0400000000000009E-002     7.6908931077923626E-005
   6.1500000000000027E-002     1.3054159353487194E-004
   6.2600000000000017E-002     1.8127633666153997E-004
   6.3700000000000007E-002     2.2857006115373224E-004
   6.4800000000000024E-002     2.7211289852857590E-004
   6.5900000000000014E-002     3.1172294984571636E-004
   6.7000000000000004E-002     3.4714810317382216E-004
   6.8100000000000022E-002     3.7807159242220223E-004
   6.9200000000000012E-002     4.0432135574519634E-004
   7.0300000000000029E-002     4.2595720151439309E-004
   7.1400000000000019E-002     4.4308087672106922E-004
   7.2500000000000009E-002     4.5567736378870904E-004
   7.3600000000000027E-002     4.6372297219932079E-004
   7.4700000000000016E-002     4.6740937978029251E-004
   7.5800000000000006E-002     4.6711193863302469E-004
   7.6900000000000024E-002     4.6314421342685819E-004
   7.8000000000000014E-002     4.5565905747935176E-004
   7.9100000000000004E-002     4.4483406236395240E-004
   8.0200000000000021E-002     4.3106512748636305E-004
   8.1300000000000011E-002     4.1485854308120906E-004
   8.2400000000000029E-002     3.9658215246163309E-004
   8.3500000000000019E-002     3.7644535768777132E-004
   8.4600000000000009E-002     3.5472225863486528E-004
   8.5700000000000026E-002     3.3186544897034764E-004
   8.6800000000000016E-002     3.0832312768325210E-004
   8.7900000000000006E-002     2.8434189152903855E-004
   8.9000000000000024E-002     2.6006184634752572E-004
   9.0100000000000013E-002     2.3575608793180436E-004
   9.1200000000000003E-002     2.1183512581046671E-004
   9.2300000000000021E-002     1.8859472766052932E-004
   9.3400000000000011E-002     1.6608863370493054E-004
   9.4500000000000028E-002     1.4432762691285461E-004
   9.5600000000000018E-002     1.2350862380117178E-004
   9.6700000000000008E-002     1.0392571857664734E-004
   9.7800000000000026E-002     8.5699139162898064E-005
   9.8900000000000016E-002     6.8730660132132471E-005
  0.10000000000000001          5.2950803365092725E-005
  0.10110000000000002          3.8477697671623901E-005
  0.10220000000000001          2.5454199203522876E-005
  0.10330000000000003          1.3822163964505307E-005
  0.10440000000000002          3.3927244658116251E-006
  0.10550000000000001         -5.8997761698265094E-006
  0.10660000000000003         -1.3957806913822424E-005
  0.10770000000000002         -2.0755152945639566E-005
  0.10880000000000001         -2.6481919121579267E-005
  0.10990000000000003         -3.1364066671812907E-005
  0.11100000000000002         -3.5427183320280164E-005
  0.11210000000000001         -3.8566919101867825E-005
  0.11320000000000002         -4.0821661968948320E-005
  0.11430000000000001         -4.2430699977558106E-005
  0.11540000000000003         -4.3589479901129380E-005
  0.11650000000000002         -4.4268337660469115E-005
  0.11760000000000001         -4.4372824049787596E-005
  0.11870000000000003         -4.3990505218971521E-005
  0.11980000000000002         -4.3348860344849527E-005
  0.12090000000000001         -4.2553208913886920E-005
  0.12200000000000003         -4.1511710151098669E-005
  0.12310000000000001         -4.0159084164770320E-005
  0.12420000000000003         -3.8630292692687362E-005
  0.12530000000000002         -3.7116435123607516E-005
  0.12640000000000001         -3.5626795579446480E-005
  0.12750000000000003         -3.4023112675640732E-005
  0.12860000000000002         -3.2273939723381773E-005
  0.12970000000000001         -3.0537627026205882E-005
  0.13080000000000003         -2.8948745239176787E-005
  0.13190000000000002         -2.7439878977020271E-005
  0.13300000000000001         -2.5870396711979993E-005
  0.13410000000000000         -2.4262442821054719E-005
  0.13520000000000004         -2.2778205675422214E-005
  0.13630000000000003         -2.1477344489539973E-005
  0.13740000000000002         -2.0231671442161314E-005
  0.13850000000000001         -1.8927945347968489E-005
  0.13960000000000000         -1.7646918422542512E-005
  0.14070000000000005         -1.6541620425414294E-005
  0.14180000000000004         -1.5603502106387168E-005
  0.14290000000000003         -1.4673788427899126E-005
  0.14400000000000002         -1.3681144082511310E-005
  0.14510000000000001         -1.2742507351504173E-005
  0.14620000000000000         -1.1979067494394258E-005
  0.14730000000000004         -1.1331456335028633E-005
  0.14840000000000003         -1.0653802746674046E-005
  0.14950000000000002         -9.9334110927884467E-006
  0.15060000000000001         -9.2978634711471386E-006
  0.15170000000000000         -8.8078568296623416E-006
  0.15280000000000005         -8.3596605691127479E-006
  0.15390000000000004         -7.8458433563355356E-006
  0.15500000000000003         -7.3199789767386392E-006
  0.15610000000000002         -6.9097063715162221E-006
  0.15720000000000001         -6.6149073063570540E-006
  0.15830000000000000         -6.3033103288034908E-006
  0.15940000000000004         -5.9080957726109773E-006
  0.16050000000000003         -5.5250216064450797E-006
  0.16160000000000002         -5.2622003750002477E-006
  0.16270000000000001         -5.0759422265400644E-006
  0.16380000000000000         -4.8401875574199948E-006
  0.16490000000000005         -4.5365172809397336E-006
  0.16600000000000004         -4.2737169678730424E-006
  0.16710000000000003         -4.1148864511342254E-006
  0.16820000000000002         -3.9820788515498862E-006
  0.16930000000000001         -3.7804884414072149E-006
  0.17040000000000000         -3.5436878533801064E-006
  0.17150000000000004         -3.3768915272958111E-006
  0.17260000000000003         -3.2910929803620093E-006
  0.17370000000000002         -3.1856336590863066E-006
  0.17480000000000001         -3.0028179480723338E-006
  0.17590000000000000         -2.8147674129286315E-006
  0.17700000000000005         -2.7116270757687744E-006
  0.17810000000000004         -2.6658774459065171E-006
  0.17920000000000003         -2.5774706955417059E-006
  0.18030000000000002         -2.4242269773822045E-006
  0.18140000000000001         -2.2885662929184036E-006
  0.18250000000000000         -2.2273054582910845E-006
  0.18360000000000004         -2.1889443360123551E-006
  0.18470000000000003         -2.0988277356082108E-006
  0.18580000000000002         -1.9732697182917036E-006
  0.18690000000000001         -1.8877942693507066E-006
  0.18800000000000000         -1.8569982103144866E-006
  0.18910000000000005         -1.8145490230381256E-006
  0.19020000000000004         -1.7194196288983221E-006
  0.19130000000000003         -1.6194239833566826E-006
  0.19240000000000002         -1.5753256548123318E-006
  0.19350000000000001         -1.5660262988603790E-006
  0.19460000000000005         -1.5211701338557759E-006
  0.19570000000000004         -1.4278693925007246E-006
  0.19680000000000003         -1.3478226037477725E-006
  0.19790000000000002         -1.3231897355581168E-006
  0.19900000000000001         -1.3163031553631299E-006
  0.20010000000000000         -1.2705775134236319E-006
  0.20120000000000005         -1.1939498563151574E-006
  0.20230000000000004         -1.1404810038584401E-006
  0.20340000000000003         -1.1263996384514030E-006
  0.20450000000000002         -1.1106989177278592E-006
  0.20560000000000000         -1.0626365565258311E-006
  0.20670000000000005         -1.0066282811749261E-006
  0.20780000000000004         -9.7902670859184582E-007
  0.20890000000000003         -9.7025508694059681E-007
