 -0.12000000000000000          0.0000000000000000
 -0.11889999999999999          0.0000000000000000
 -0.11780000000000000          0.0000000000000000
 -0.11670000000000000          1.2546758770826116E-011
 -0.11559999999999999          1.8168352239333959E-011
 -0.11449999999999999         -2.8160898959961158E-011
 -0.11340000000000000         -7.4961516161043071E-011
 -0.11230000000000000         -7.1864246324616536E-012
 -0.11119999999999999          9.8632810252573325E-011
 -0.11009999999999999          3.4899860779093218E-011
 -0.10900000000000000         -4.0868669559651679E-011
 -0.10790000000000000          3.0829422348333512E-010
 -0.10679999999999999          7.4258388327308280E-010
 -0.10569999999999999         -4.0189036126803645E-011
 -0.10460000000000000         -2.2186261716683632E-009
 -0.10349999999999999         -3.2006584049781966E-009
 -0.10239999999999999         -2.7629007415264177E-010
 -0.10130000000000000          4.7190189533807998E-009
 -0.10020000000000000          6.1720113464503323E-009
  -9.9099999999999994E-002     1.9703498832513445E-009
  -9.7999999999999990E-002    -2.6980160328093598E-009
  -9.6899999999999986E-002    -2.4106316942607373E-009
  -9.5799999999999996E-002    -3.5083380645072452E-010
  -9.4699999999999993E-002    -4.1651704307811245E-009
  -9.3599999999999989E-002    -1.2471417676351903E-008
  -9.2499999999999999E-002    -1.2972209972872409E-008
  -9.1399999999999995E-002     9.2078794589057700E-010
  -9.0299999999999991E-002     1.7741399460646816E-008
  -8.9200000000000002E-002     2.1626483714953912E-008
  -8.8099999999999984E-002     1.6275816250299901E-008
  -8.6999999999999994E-002     2.3412782823584633E-008
  -8.5899999999999990E-002     5.3338844452355870E-008
  -8.4799999999999986E-002     8.8167340095424919E-008
  -8.3699999999999997E-002     1.0448663800843961E-007
  -8.2599999999999993E-002     1.0566869690365038E-007
  -8.1499999999999989E-002     1.1758067586242911E-007
  -8.0399999999999999E-002     1.5362515171091392E-007
  -7.9299999999999995E-002     2.0025748881380632E-007
  -7.8199999999999992E-002     2.4293854039570110E-007
  -7.7100000000000002E-002     2.9085077812851851E-007
  -7.5999999999999984E-002     3.6206074582878908E-007
  -7.4899999999999994E-002     4.5507692902902406E-007
  -7.3799999999999991E-002     5.5578055935257612E-007
  -7.2699999999999987E-002     6.7041435158899583E-007
  -7.1599999999999997E-002     8.2784413280024659E-007
  -7.0499999999999993E-002     1.0399910479463984E-006
  -6.9399999999999989E-002     1.2819222092730482E-006
  -6.8300000000000000E-002     1.5320108559535753E-006
  -6.7199999999999996E-002     1.8184398413723307E-006
  -6.6099999999999992E-002     2.1972250578983467E-006
  -6.5000000000000002E-002     2.6851032544073247E-006
  -6.3899999999999985E-002     3.2458513032907277E-006
  -6.2799999999999995E-002     3.8575435610255650E-006
  -6.1699999999999991E-002     4.5664883145946586E-006
  -6.0599999999999994E-002     5.4460433602799340E-006
  -5.9499999999999990E-002     6.5167337197636508E-006
  -5.8399999999999994E-002     7.7444010457839733E-006
  -5.7299999999999990E-002     9.1200799943181771E-006
  -5.6199999999999986E-002     1.0704555279517199E-005
  -5.5099999999999996E-002     1.2574152606248531E-005
  -5.3999999999999992E-002     1.4752450624655631E-005
  -5.2899999999999989E-002     1.7229796867468584E-005
  -5.1799999999999985E-002     2.0034745830344260E-005
  -5.0699999999999995E-002     2.3242835595738400E-005
  -4.9599999999999991E-002     2.6911915483651981E-005
  -4.8499999999999988E-002     3.1053059501573789E-005
  -4.7399999999999998E-002     3.5688699426828352E-005
  -4.6299999999999994E-002     4.0903090848587907E-005
  -4.5199999999999990E-002     4.6792083594482914E-005
  -4.4099999999999986E-002     5.3380237659440034E-005
  -4.2999999999999997E-002     6.0640599258477539E-005
  -4.1899999999999993E-002     6.8603207182605578E-005
  -4.0799999999999989E-002     7.7392549428624023E-005
  -3.9699999999999985E-002     8.7124040874187865E-005
  -3.8599999999999995E-002     9.7799049399328571E-005
  -3.7499999999999992E-002     1.0935105092357966E-004
  -3.6399999999999988E-002     1.2177707685623453E-004
  -3.5299999999999984E-002     1.3516776380129308E-004
  -3.4199999999999994E-002     1.4959425607230680E-004
  -3.3099999999999991E-002     1.6501886420883423E-004
  -3.1999999999999987E-002     1.8135103164240918E-004
  -3.0899999999999997E-002     1.9854720449075322E-004
  -2.9799999999999993E-002     2.1659940830432120E-004
  -2.8699999999999989E-002     2.3543872521259151E-004
  -2.7599999999999986E-002     2.5491422275081559E-004
  -2.6499999999999996E-002     2.7488154591992801E-004
  -2.5399999999999992E-002     2.9525125864893523E-004
  -2.4299999999999988E-002     3.1590278376825506E-004
  -2.3199999999999985E-002     3.3658958273008840E-004
  -2.2099999999999995E-002     3.5699244472198584E-004
  -2.0999999999999991E-002     3.7685225834139109E-004
  -1.9899999999999987E-002     3.9598610601388357E-004
  -1.8799999999999983E-002     4.1415428859182163E-004
  -1.7699999999999994E-002     4.3097333400510729E-004
  -1.6599999999999990E-002     4.4600517139770584E-004
  -1.5499999999999986E-002     4.5889400644228372E-004
  -1.4399999999999996E-002     4.6935243881308063E-004
  -1.3299999999999992E-002     4.7703229938634271E-004
  -1.2199999999999989E-002     4.8148626228794992E-004
  -1.1099999999999985E-002     4.8228271771222890E-004
  -9.9999999999999950E-003     4.7909829299897487E-004
  -8.8999999999999913E-003     4.7165231080726315E-004
  -7.7999999999999875E-003     4.5959834824316713E-004
  -6.6999999999999837E-003     4.4255785178393619E-004
  -5.5999999999999939E-003     4.2025250149891247E-004
  -4.4999999999999901E-003     3.9255246520042853E-004
  -3.3999999999999864E-003     3.5936976200901373E-004
  -2.2999999999999826E-003     3.2057115458883703E-004
  -1.1999999999999927E-003     2.7605256764218515E-004
  -9.9999999999988987E-005     2.2586763952858995E-004
   1.0000000000000148E-003     1.7022559768520485E-004
   2.1000000000000185E-003     1.0937244951492296E-004
   3.2000000000000084E-003     4.3549160182010864E-005
   4.3000000000000121E-003    -2.6911822715192403E-005
   5.4000000000000159E-003    -1.0149370064027720E-004
   6.5000000000000058E-003    -1.7956555529963426E-004
   7.6000000000000234E-003    -2.6050154701806892E-004
   8.7000000000000133E-003    -3.4367130137980364E-004
   9.8000000000000032E-003    -4.2832476901822269E-004
   1.0900000000000021E-002    -5.1355024334043839E-004
   1.2000000000000011E-002    -5.9838744346053070E-004
   1.3100000000000001E-002    -6.8194087361917659E-004
   1.4200000000000018E-002    -7.6333316974342715E-004
   1.5300000000000008E-002    -8.4160850383342245E-004
   1.6400000000000026E-002    -9.1574032558129257E-004
   1.7500000000000016E-002    -9.8475685808808696E-004
   1.8600000000000005E-002    -1.0477993637323497E-003
   1.9700000000000023E-002    -1.1040541576221709E-003
   2.0800000000000013E-002    -1.1526930611580738E-003
   2.1900000000000003E-002    -1.1929400498047603E-003
   2.3000000000000020E-002    -1.2241838267073172E-003
   2.4100000000000010E-002    -1.2459771241992851E-003
   2.5200000000000000E-002    -1.2579450849443813E-003
   2.6300000000000018E-002    -1.2597481254488369E-003
   2.7400000000000008E-002    -1.2511701788753410E-003
   2.8500000000000025E-002    -1.2322093825787442E-003
   2.9600000000000015E-002    -1.2030454818159476E-003
   3.0700000000000005E-002    -1.1639436706900727E-003
   3.1800000000000023E-002    -1.1152421357110266E-003
   3.2900000000000013E-002    -1.0574240004643915E-003
   3.4000000000000002E-002    -9.9113502074034128E-004
   3.5100000000000020E-002    -9.1713230358437723E-004
   3.6200000000000010E-002    -8.3622999954969623E-004
   3.7300000000000028E-002    -7.4930989649147630E-004
   3.8400000000000017E-002    -6.5736990654841792E-004
   3.9500000000000007E-002    -5.6149135343731068E-004
   4.0600000000000025E-002    -4.6276018838398674E-004
   4.1700000000000015E-002    -3.6222679773345991E-004
   4.2800000000000005E-002    -2.6095067732967724E-004
   4.3900000000000022E-002    -1.6003182099666625E-004
   4.5000000000000012E-002    -6.0564900195459575E-005
   4.6100000000000002E-002     3.6434565117815916E-005
   4.7200000000000020E-002     1.3003274216316784E-004
   4.8300000000000010E-002     2.1937747078482306E-004
   4.9400000000000027E-002     3.0367283034138718E-004
   5.0500000000000017E-002     3.8222066359594887E-004
   5.1600000000000007E-002     4.5442488044500855E-004
   5.2700000000000025E-002     5.1978509873152354E-004
   5.3800000000000014E-002     5.7789840502665087E-004
   5.4900000000000004E-002     6.2848307425156930E-004
   5.6000000000000022E-002     6.7138439044357094E-004
   5.7100000000000012E-002     7.0656102616340703E-004
   5.8200000000000002E-002     7.3405640432611921E-004
   5.9300000000000019E-002     7.5399328488857389E-004
   6.0400000000000009E-002     7.6658750185743820E-004
   6.1500000000000027E-002     7.7214156044647954E-004
   6.2600000000000017E-002     7.7103322837502621E-004
   6.3700000000000007E-002     7.6370174065233123E-004
   6.4800000000000024E-002     7.5064378324896932E-004
   6.5900000000000014E-002     7.3240423807875135E-004
   6.7000000000000004E-002     7.0954149123282032E-004
   6.8100000000000022E-002     6.8260531406850382E-004
   6.9200000000000012E-002     6.5216381335631739E-004
   7.0300000000000029E-002     6.1882153386250821E-004
   7.1400000000000019E-002     5.8318424271420295E-004
   7.2500000000000009E-002     5.4580823052675139E-004
   7.3600000000000027E-002     5.0719967111945716E-004
   7.4700000000000016E-002     4.6785833546892329E-004
   7.5800000000000006E-002     4.2828623554669798E-004
   7.6900000000000024E-002     3.8893270539120273E-004
   7.8000000000000014E-002     3.5015720641240868E-004
   7.9100000000000004E-002     3.1227181898430337E-004
   8.0200000000000021E-002     2.7559965383261746E-004
   8.1300000000000011E-002     2.4045315512921929E-004
   8.2400000000000029E-002     2.0705482165795050E-004
   8.3500000000000019E-002     1.7552133067511217E-004
   8.4600000000000009E-002     1.4594002277590497E-004
   8.5700000000000026E-002     1.1843331594718752E-004
   8.6800000000000016E-002     9.3108254077379690E-005
   8.7900000000000006E-002     6.9980269472581176E-005
   8.9000000000000024E-002     4.8990073992172798E-005
   9.0100000000000013E-002     3.0094301109784618E-005
   9.1200000000000003E-002     1.3288669833855385E-005
   9.2300000000000021E-002    -1.4778485137867555E-006
   9.3400000000000011E-002    -1.4351725440065070E-005
   9.4500000000000028E-002    -2.5492847271380299E-005
   9.5600000000000018E-002    -3.4976092138095214E-005
   9.6700000000000008E-002    -4.2833351471927491E-005
   9.7800000000000026E-002    -4.9179310735781295E-005
   9.8900000000000016E-002    -5.4233332775766633E-005
  0.10000000000000001         -5.8185647503706339E-005
  0.10110000000000002         -6.1104015912861310E-005
  0.10220000000000001         -6.3014020270203014E-005
  0.10330000000000003         -6.4034851675388177E-005
  0.10440000000000002         -6.4363470301032785E-005
  0.10550000000000001         -6.4134161220864180E-005
  0.10660000000000003         -6.3374391174875905E-005
  0.10770000000000002         -6.2117374909576720E-005
  0.10880000000000001         -6.0493497585412786E-005
  0.10990000000000003         -5.8650566643337438E-005
  0.11100000000000002         -5.6626617151778822E-005
  0.11210000000000001         -5.4380208894145347E-005
  0.11320000000000002         -5.1944287406514043E-005
  0.11430000000000001         -4.9464440962765915E-005
  0.11540000000000003         -4.7050871216925383E-005
  0.11650000000000002         -4.4667762267636630E-005
  0.11760000000000001         -4.2230243707309013E-005
  0.11870000000000003         -3.9770657167537578E-005
  0.11980000000000002         -3.7419267755467858E-005
  0.12090000000000001         -3.5231510992162323E-005
  0.12200000000000003         -3.3126849302789562E-005
  0.12310000000000001         -3.1033519917400899E-005
  0.12420000000000003         -2.9013945095357807E-005
  0.12530000000000002         -2.7175519790035043E-005
  0.12640000000000001         -2.5503242795821561E-005
  0.12750000000000003         -2.3879510990809914E-005
  0.12860000000000002         -2.2264528524829322E-005
  0.12970000000000001         -2.0760620827786855E-005
  0.13080000000000003         -1.9455919755273715E-005
  0.13190000000000002         -1.8285574697074684E-005
  0.13300000000000001         -1.7121477867476832E-005
  0.13410000000000000         -1.5957288269419399E-005
  0.13520000000000004         -1.4907259355823210E-005
  0.13630000000000003         -1.4022931281943030E-005
  0.13740000000000002         -1.3211151781433873E-005
  0.13850000000000001         -1.2376306585793055E-005
  0.13960000000000000         -1.1563350199139806E-005
  0.14070000000000005         -1.0878940884140442E-005
  0.14180000000000004         -1.0313955499441476E-005
  0.14290000000000003         -9.7472184279468978E-006
  0.14400000000000002         -9.1274814622012052E-006
  0.14510000000000001         -8.5518122432405163E-006
  0.14620000000000000         -8.1153029896086980E-006
  0.14730000000000004         -7.7595677794307386E-006
  0.14840000000000003         -7.3549872467993632E-006
  0.14950000000000002         -6.8920821831853434E-006
  0.15060000000000001         -6.4901837504294964E-006
  0.15170000000000000         -6.2122198869474927E-006
  0.15280000000000005         -5.9687090470106993E-006
  0.15390000000000004         -5.6557332754892450E-006
  0.15500000000000003         -5.3110284170543902E-006
  0.15610000000000002         -5.0495355026214951E-006
  0.15720000000000001         -4.8811834858498147E-006
  0.15830000000000000         -4.6936565922806548E-006
  0.15940000000000004         -4.4256271394261185E-006
  0.16050000000000003         -4.1610892367316884E-006
  0.16160000000000002         -3.9996380110097101E-006
  0.16270000000000001         -3.9025067053444641E-006
  0.16380000000000000         -3.7506824810407535E-006
  0.16490000000000005         -3.5242228477728016E-006
  0.16600000000000004         -3.3281853575318032E-006
  0.16710000000000003         -3.2296841254720126E-006
  0.16820000000000002         -3.1578547350364149E-006
  0.16930000000000001         -3.0168807825248553E-006
  0.17040000000000000         -2.8328477128525586E-006
  0.17150000000000004         -2.7084752218798112E-006
  0.17260000000000003         -2.6602899652062043E-006
  0.17370000000000002         -2.5929348339559790E-006
  0.17480000000000001         -2.4482562821504233E-006
  0.17590000000000000         -2.2964593426877662E-006
  0.17700000000000005         -2.2281005840341349E-006
  0.17810000000000004         -2.2139829525258633E-006
  0.17920000000000003         -2.1486548575922148E-006
  0.18030000000000002         -2.0100380879739757E-006
  0.18140000000000001         -1.8914171278084031E-006
  0.18250000000000000         -1.8592664901007293E-006
  0.18360000000000004         -1.8550533695816029E-006
  0.18470000000000003         -1.7866391317511636E-006
  0.18580000000000002         -1.6657387504892729E-006
  0.18690000000000001         -1.5841230833757618E-006
  0.18800000000000000         -1.5723625210739729E-006
  0.18910000000000005         -1.5584851098538078E-006
  0.19020000000000004         -1.4831281305305474E-006
  0.19130000000000003         -1.3883256997360308E-006
  0.19240000000000002         -1.3468462611854345E-006
  0.19350000000000001         -1.3478710343406565E-006
  0.19460000000000005         -1.3167668839742106E-006
  0.19570000000000004         -1.2334910479694510E-006
  0.19680000000000003         -1.1632696441665893E-006
  0.19790000000000002         -1.1539818842720835E-006
  0.19900000000000001         -1.1613574315561104E-006
  0.20010000000000000         -1.1171803180332183E-006
  0.20120000000000005         -1.0335841125197594E-006
  0.20230000000000004         -9.8403552328819621E-007
  0.20340000000000003         -9.9213934845466802E-007
  0.20450000000000002         -9.9812689313695195E-007
  0.20560000000000000         -9.5027257884795408E-007
  0.20670000000000005         -8.7974513007794592E-007
  0.20780000000000004         -8.4930479715695658E-007
  0.20890000000000003         -8.5931111470928077E-007
