 -0.12000000000000000          0.0000000000000000
 -0.11889999999999999          0.0000000000000000
 -0.11780000000000000          0.0000000000000000
 -0.11670000000000000          1.2546763107634806E-011
 -0.11559999999999999          1.3697700959602876E-011
 -0.11449999999999999         -3.8519902545441909E-011
 -0.11340000000000000         -6.0436954052445202E-011
 -0.11230000000000000          8.1728214473830718E-011
 -0.11119999999999999          2.1664796345799431E-010
 -0.11009999999999999         -3.4040759794295994E-011
 -0.10900000000000000         -4.8208037561892070E-010
 -0.10790000000000000         -2.7206722985617660E-010
 -0.10679999999999999          7.1667305423517291E-010
 -0.10569999999999999          1.0246066217689531E-009
 -0.10460000000000000         -4.2161307778343371E-010
 -0.10349999999999999         -1.8818460123526393E-009
 -0.10239999999999999         -6.0493349218759818E-010
 -0.10130000000000000          2.4258615116679039E-009
 -0.10020000000000000          2.5024642358317806E-009
  -9.9099999999999994E-002    -1.8537316126554515E-009
  -9.7999999999999990E-002    -4.8300927701916407E-009
  -9.6899999999999986E-002    -6.5602179244450554E-010
  -9.5799999999999996E-002     6.4043952363590506E-009
  -9.4699999999999993E-002     5.8165947613986191E-009
  -9.3599999999999989E-002    -3.7803462582530756E-009
  -9.2499999999999999E-002    -9.8755332800237738E-009
  -9.1399999999999995E-002    -2.5646944568080698E-009
  -9.0299999999999991E-002     9.5434886659973017E-009
  -8.9200000000000002E-002     9.3254017841104542E-009
  -8.8099999999999984E-002    -4.2170866798585394E-009
  -8.6999999999999994E-002    -1.2694496120957410E-008
  -8.5899999999999990E-002    -3.9121990091928183E-009
  -8.4799999999999986E-002     9.9854426949264052E-009
  -8.3699999999999997E-002     9.7388248576635306E-009
  -8.2599999999999993E-002    -2.9504099163801811E-009
  -8.1499999999999989E-002    -8.7991427477618345E-009
  -8.0399999999999999E-002    -8.1166989795988798E-010
  -7.9299999999999995E-002     5.8463314189793891E-009
  -7.8199999999999992E-002    -3.1160796165607962E-010
  -7.7100000000000002E-002    -7.3378387810407730E-009
  -7.5999999999999984E-002     2.5387274747712407E-012
  -7.4899999999999994E-002     1.1606599237268256E-008
  -7.3799999999999991E-002     4.7743906606001474E-009
  -7.2699999999999987E-002    -1.6707804917359681E-008
  -7.1599999999999997E-002    -2.0920376542221675E-008
  -7.0499999999999993E-002     5.0192481282351764E-009
  -6.9399999999999989E-002     2.8317156619550587E-008
  -6.8300000000000000E-002     1.2550309236303292E-008
  -6.7199999999999996E-002    -2.6889320992040666E-008
  -6.6099999999999992E-002    -3.8678155789284574E-008
  -6.5000000000000002E-002    -6.8535745967324146E-009
  -6.3899999999999985E-002     2.4599115633350266E-008
  -6.2799999999999995E-002     1.2649330471958820E-008
  -6.1699999999999991E-002    -2.5253156010762723E-008
  -6.0599999999999994E-002    -3.9290497966248950E-008
  -5.9499999999999990E-002    -1.9399330142277904E-008
  -5.8399999999999994E-002    -3.7929277496573377E-009
  -5.7299999999999990E-002    -1.5921214568948017E-008
  -5.6199999999999986E-002    -3.1356634622170532E-008
  -5.5099999999999996E-002    -2.4922773178559510E-008
  -5.3999999999999992E-002    -1.7672707741667182E-008
  -5.2899999999999989E-002    -4.2303426539547218E-008
  -5.1799999999999985E-002    -8.0379429334698216E-008
  -5.0699999999999995E-002    -7.9851560030874680E-008
  -4.9599999999999991E-002    -3.7816239029098142E-008
  -4.8499999999999988E-002    -1.9379177373934908E-008
  -4.7399999999999998E-002    -6.9065542618318432E-008
  -4.6299999999999994E-002    -1.3943443377684162E-007
  -4.5199999999999990E-002    -1.5008748732725508E-007
  -4.4099999999999986E-002    -1.0019634544278233E-007
  -4.2999999999999997E-002    -7.1698671888498211E-008
  -4.1899999999999993E-002    -1.1484486606150313E-007
  -4.0799999999999989E-002    -1.8234942444905755E-007
  -3.9699999999999985E-002    -2.0370399056446331E-007
  -3.8599999999999995E-002    -1.8455946815265634E-007
  -3.7499999999999992E-002    -1.8543856583619345E-007
  -3.6399999999999988E-002    -2.2235279573123989E-007
  -3.5299999999999984E-002    -2.4812786136862996E-007
  -3.4199999999999994E-002    -2.3916339841889567E-007
  -3.3099999999999991E-002    -2.4109093033075624E-007
  -3.1999999999999987E-002    -2.9325832429094589E-007
  -3.0899999999999997E-002    -3.5236487860856869E-007
  -2.9799999999999993E-002    -3.4683242233768397E-007
  -2.8699999999999989E-002    -2.9045335736554989E-007
  -2.7599999999999986E-002    -2.7569447524911084E-007
  -2.6499999999999996E-002    -3.4227826972710318E-007
  -2.5399999999999992E-002    -4.1457929000898730E-007
  -2.4299999999999988E-002    -4.0490195374331961E-007
  -2.3199999999999985E-002    -3.3585470760044700E-007
  -2.2099999999999995E-002    -3.0343605317284528E-007
  -2.0999999999999991E-002    -3.3794842124734714E-007
  -1.9899999999999987E-002    -3.6756603094545426E-007
  -1.8799999999999983E-002    -3.3277424904554209E-007
  -1.7699999999999994E-002    -2.7469013730296865E-007
  -1.6599999999999990E-002    -2.5755230126378592E-007
  -1.5499999999999986E-002    -2.6052151724798023E-007
  -1.4399999999999996E-002    -2.1537330496812501E-007
  -1.3299999999999992E-002    -1.2097690671453165E-007
  -1.2199999999999989E-002    -5.5208374760695733E-008
  -1.1099999999999985E-002    -5.4076277677950202E-008
  -9.9999999999999950E-003    -4.7001272207580769E-008
  -8.8999999999999913E-003     4.3080817135887628E-008
  -7.7999999999999875E-003     1.8393188838672359E-007
  -6.6999999999999837E-003     2.7360400167708576E-007
  -5.5999999999999939E-003     2.9039165383437648E-007
  -4.4999999999999901E-003     3.1700477620688616E-007
  -3.3999999999999864E-003     4.1837731146188162E-007
  -2.2999999999999826E-003     5.4789461501059122E-007
  -1.1999999999999927E-003     6.2447645632346394E-007
  -9.9999999999988987E-005     6.5406658222855185E-007
   1.0000000000000148E-003     7.1165402459882898E-007
   2.1000000000000185E-003     8.1659442230375134E-007
   3.2000000000000084E-003     9.0158124521622085E-007
   4.3000000000000121E-003     9.2058377276771353E-007
   5.4000000000000159E-003     9.2486163794092136E-007
   6.5000000000000058E-003     9.8124291980639100E-007
   7.6000000000000234E-003     1.0644265557857580E-006
   8.7000000000000133E-003     1.0896312687691534E-006
   9.8000000000000032E-003     1.0403292662886088E-006
   1.0900000000000021E-002     9.9612134363269433E-007
   1.2000000000000011E-002     1.0121425475517754E-006
   1.3100000000000001E-002     1.0386895610281499E-006
   1.4200000000000018E-002     9.9561702882056125E-007
   1.5300000000000008E-002     8.9182555029765354E-007
   1.6400000000000026E-002     8.0716210959508317E-007
   1.7500000000000016E-002     7.7117022101447219E-007
   1.8600000000000005E-002     7.2379947368972353E-007
   1.9700000000000023E-002     6.1376169924187707E-007
   2.0800000000000013E-002     4.7590819463039225E-007
   2.1900000000000003E-002     3.7488209159164398E-007
   2.3000000000000020E-002     3.0477636414616427E-007
   2.4100000000000010E-002     2.0488272411967046E-007
   2.5200000000000000E-002     6.0118800604413991E-008
   2.6300000000000018E-002    -7.5385479192391358E-008
   2.7400000000000008E-002    -1.6203112807033904E-007
   2.8500000000000025E-002    -2.3326204257045902E-007
   2.9600000000000015E-002    -3.4349380939602270E-007
   3.0700000000000005E-002    -4.7949663439794676E-007
   3.1800000000000023E-002    -5.7730056823857012E-007
   3.2900000000000013E-002    -6.2129430489221704E-007
   3.4000000000000002E-002    -6.6293785039306385E-007
   3.5100000000000020E-002    -7.3605826855782652E-007
   3.6200000000000010E-002    -8.1612063240754651E-007
   3.7300000000000028E-002    -8.5060776200407417E-007
   3.8400000000000017E-002    -8.4976659309177194E-007
   3.9500000000000007E-002    -8.5463818777498091E-007
   4.0600000000000025E-002    -8.7598823483858723E-007
   4.1700000000000015E-002    -8.7473580379082705E-007
   4.2800000000000005E-002    -8.3472878031898290E-007
   4.3900000000000022E-002    -7.8909187095632660E-007
   4.5000000000000012E-002    -7.6668567317028646E-007
   4.6100000000000002E-002    -7.4710351327667013E-007
   4.7200000000000020E-002    -6.9237688649081974E-007
   4.8300000000000010E-002    -6.0091304021625547E-007
   4.9400000000000027E-002    -5.2024773822267889E-007
   5.0500000000000017E-002    -4.7455725393774628E-007
   5.1600000000000007E-002    -4.3265009708193247E-007
   5.2700000000000025E-002    -3.6311965345703356E-007
   5.3800000000000014E-002    -2.7804304636447341E-007
   5.4900000000000004E-002    -2.0590576355061785E-007
   5.6000000000000022E-002    -1.4596454889215238E-007
   5.7100000000000012E-002    -8.0791807022251305E-008
   5.8200000000000002E-002    -1.8976148652427582E-008
   5.9300000000000019E-002     2.1360643032153348E-008
   6.0400000000000009E-002     4.6303327394525695E-008
   6.1500000000000027E-002     8.7316884389565530E-008
   6.2600000000000017E-002     1.5217445081816550E-007
   6.3700000000000007E-002     2.0627663843697519E-007
   6.4800000000000024E-002     2.1885816181566042E-007
   6.5900000000000014E-002     2.0863133443072002E-007
   6.7000000000000004E-002     2.1469170974341978E-007
   6.8100000000000022E-002     2.4050109459494706E-007
   6.9200000000000012E-002     2.5431356220906309E-007
   7.0300000000000029E-002     2.4450520186292124E-007
   7.1400000000000019E-002     2.3540503946151148E-007
   7.2500000000000009E-002     2.4112213736771082E-007
   7.3600000000000027E-002     2.3752320998937648E-007
   7.4700000000000016E-002     2.0464084116156300E-007
   7.5800000000000006E-002     1.6837188354656973E-007
   7.6900000000000024E-002     1.6648439782329660E-007
   7.8000000000000014E-002     1.8524184497437091E-007
   7.9100000000000004E-002     1.7339922919745732E-007
   8.0200000000000021E-002     1.1933460086765990E-007
   8.1300000000000011E-002     7.3393010779909673E-008
   8.2400000000000029E-002     7.3483739981838880E-008
   8.3500000000000019E-002     8.7517818769811129E-008
   8.4600000000000009E-002     6.5851331498834043E-008
   8.5700000000000026E-002     2.1289025653459248E-008
   8.6800000000000016E-002     1.0630764712971086E-008
   8.7900000000000006E-002     3.8231700472124430E-008
   8.9000000000000024E-002     4.2563360835856656E-008
   9.0100000000000013E-002    -8.9534921698941616E-009
   9.1200000000000003E-002    -6.0889433939337323E-008
   9.2300000000000021E-002    -4.6570782785693154E-008
   9.3400000000000011E-002     6.3925735815928419E-009
   9.4500000000000028E-002     1.4597079989187023E-008
   9.5600000000000018E-002    -3.8807780100569289E-008
   9.6700000000000008E-002    -7.9648586392977450E-008
   9.7800000000000026E-002    -5.4669367699489158E-008
   9.8900000000000016E-002    -1.0861715971088870E-008
  0.10000000000000001         -1.6659384982631309E-008
  0.10110000000000002         -5.4076711109019016E-008
  0.10220000000000001         -5.2174023323914298E-008
  0.10330000000000003         -7.2969461584193596E-009
  0.10440000000000002          5.7959321786427154E-009
  0.10550000000000001         -4.6026300992707547E-008
  0.10660000000000003         -8.8331255199136649E-008
  0.10770000000000002         -4.7679737491534979E-008
  0.10880000000000001          2.9757336150737501E-008
  0.10990000000000003          3.7109689543513014E-008
  0.11100000000000002         -3.5842838030930579E-008
  0.11210000000000001         -8.2054285144295136E-008
  0.11320000000000002         -3.4683836247495492E-008
  0.11430000000000001          3.5074826598702202E-008
  0.11540000000000003          2.8879139080117966E-008
  0.11650000000000002         -3.2956439355302791E-008
  0.11760000000000001         -4.8123190765636537E-008
  0.11870000000000003          5.4698028328914461E-009
  0.11980000000000002          3.7245282413778114E-008
  0.12090000000000001         -8.7477065591201608E-009
  0.12200000000000003         -6.0033173099327541E-008
  0.12310000000000001         -2.7370107957835899E-008
  0.12420000000000003          5.0481897773124729E-008
  0.12530000000000002          5.9379992478625354E-008
  0.12640000000000001         -1.6739528874154530E-008
  0.12750000000000003         -6.6709112900298351E-008
  0.12860000000000002         -1.8529446421666762E-008
  0.12970000000000001          5.2834757013897615E-008
  0.13080000000000003          4.1009759144117197E-008
  0.13190000000000002         -2.9868573392377584E-008
  0.13300000000000001         -4.6539536668888104E-008
  0.13410000000000000          1.5037358025438152E-008
  0.13520000000000004          5.3127141796949218E-008
  0.13630000000000003          2.1428032681569675E-009
  0.13740000000000002         -5.9680580477561307E-008
  0.13850000000000001         -2.9582571059449947E-008
  0.13960000000000000          5.6234789269637986E-008
  0.14070000000000005          7.0077682323699264E-008
  0.14180000000000004         -1.3810841359429560E-008
  0.14290000000000003         -7.6690547246016649E-008
  0.14400000000000002         -3.0704040199225346E-008
  0.14510000000000001          5.2657490812180185E-008
  0.14620000000000000          5.2753183155118677E-008
  0.14730000000000004         -2.0759269858672269E-008
  0.14840000000000003         -5.1547736745760631E-008
  0.14950000000000002          1.4831299521844699E-009
  0.15060000000000001          4.6407983234075800E-008
  0.15170000000000000          9.2771923476675511E-009
  0.15280000000000005         -4.7975415640166830E-008
  0.15390000000000004         -2.7418115777777530E-008
  0.15500000000000003          4.5674230619852096E-008
  0.15610000000000002          5.6815913751506741E-008
  0.15720000000000001         -1.9394025940755455E-008
  0.15830000000000000         -7.3445363568680477E-008
  0.15940000000000004         -2.3721783648511519E-008
  0.16050000000000003          5.9023832932325604E-008
  0.16160000000000002          5.6167735351664305E-008
  0.16270000000000001         -2.3025334527915220E-008
  0.16380000000000000         -5.9661047657755262E-008
  0.16490000000000005         -5.3413824474546345E-009
  0.16600000000000004          5.0549303409752611E-008
  0.16710000000000003          2.3437245033619547E-008
  0.16820000000000002         -3.8455468143183680E-008
  0.16930000000000001         -3.4975510487811334E-008
  0.17040000000000000          2.7974609295711161E-008
  0.17150000000000004          4.9042416350175699E-008
  0.17260000000000003         -8.4474898187636427E-009
  0.17370000000000002         -5.7525411989445274E-008
  0.17480000000000001         -2.1254820126159757E-008
  0.17590000000000000          4.8232930538461005E-008
  0.17700000000000005          4.8225487603303918E-008
  0.17810000000000004         -1.9509416304686056E-008
  0.17920000000000003         -5.4003031380034372E-008
  0.18030000000000002         -8.6731795079231233E-009
  0.18140000000000001          4.2425675417234743E-008
  0.18250000000000000          2.2307661495801767E-008
  0.18360000000000004         -3.2781905190404359E-008
  0.18470000000000003         -3.4317437780373439E-008
  0.18580000000000002          1.9646398285999567E-008
  0.18690000000000001          4.3697568230527395E-008
  0.18800000000000000         -5.4029569707125802E-010
  0.18910000000000005         -4.4873051052718438E-008
  0.19020000000000004         -2.0598887928713339E-008
  0.19130000000000003          3.5663006769937056E-008
  0.19240000000000002          3.8515583611342663E-008
  0.19350000000000001         -1.6231629373919532E-008
  0.19460000000000005         -4.6725556757110098E-008
  0.19570000000000004         -9.4936387640132125E-009
  0.19680000000000003          3.7794151808157039E-008
  0.19790000000000002          2.6761940219444114E-008
  0.19900000000000001         -2.0190155325394699E-008
  0.20010000000000000         -2.9676465729266965E-008
  0.20120000000000005          9.4005851991596501E-009
  0.20230000000000004          3.3178778835463163E-008
  0.20340000000000003          4.5368588885708050E-009
  0.20450000000000002         -3.1050319648784352E-008
  0.20560000000000000         -1.8512954724769770E-008
  0.20670000000000005          2.1865389498998411E-008
  0.20780000000000004          2.7755630682690935E-008
  0.20890000000000003         -8.7803604387204359E-009
