 -0.12000000000000000          0.0000000000000000
 -0.11889999999999999          0.0000000000000000
 -0.11780000000000000          0.0000000000000000
 -0.11670000000000000          0.0000000000000000
 -0.11559999999999999          0.0000000000000000
 -0.11449999999999999          0.0000000000000000
 -0.11340000000000000          0.0000000000000000
 -0.11230000000000000          0.0000000000000000
 -0.11119999999999999         -4.1322761958672943E-023
 -0.11009999999999999          2.1174035175913191E-022
 -0.10900000000000000          3.3840587928784622E-022
 -0.10790000000000000         -3.1919964817367598E-021
 -0.10679999999999999         -2.4595674292574424E-021
 -0.10569999999999999          2.7823363738911882E-020
 -0.10460000000000000          2.6121972772338212E-020
 -0.10349999999999999         -1.7167833760566039E-019
 -0.10239999999999999         -2.5715561489049863E-019
 -0.10130000000000000          7.4125458978587941E-019
 -0.10020000000000000          1.8589521487070116E-018
  -9.9099999999999994E-002    -1.7697973815151274E-018
  -9.7999999999999990E-002    -9.5481259583648972E-018
  -9.6899999999999986E-002    -2.3307714206138895E-018
  -9.5799999999999996E-002     3.3285139044202995E-017
  -9.4699999999999993E-002     4.3579170156853909E-017
  -9.3599999999999989E-002    -6.3014208782705822E-017
  -9.2499999999999999E-002    -2.0800597350146714E-016
  -9.1399999999999995E-002    -5.0404065337461529E-017
  -9.0299999999999991E-002     5.3073019832145527E-016
  -8.9200000000000002E-002     7.6570560821927073E-016
  -8.8099999999999984E-002    -4.3524123603194220E-016
  -8.6999999999999994E-002    -2.3900188689170718E-015
  -8.5899999999999990E-002    -1.9493919062389111E-015
  -8.4799999999999986E-002     2.7732824310665663E-015
  -8.3699999999999997E-002     7.5284821982718984E-015
  -8.2599999999999993E-002     4.3198383848437778E-015
  -8.1499999999999989E-002    -7.9972641126003184E-015
  -8.0399999999999999E-002    -1.8157062631847173E-014
  -7.9299999999999995E-002    -1.3027948640405903E-014
  -7.8199999999999992E-002     7.5585882903161580E-015
  -7.7100000000000002E-002     3.2724216674114015E-014
  -7.5999999999999984E-002     5.1969767465159800E-014
  -7.4899999999999994E-002     4.7131694841428054E-014
  -7.3799999999999991E-002    -2.2096077544704260E-014
  -7.2699999999999987E-002    -1.7327807212089846E-013
  -7.1599999999999997E-002    -2.9815117930966084E-013
  -7.0499999999999993E-002    -1.6148349747235197E-013
  -6.9399999999999989E-002     3.5283852662520987E-013
  -6.8300000000000000E-002     9.3191014800819705E-013
  -6.7199999999999996E-002     9.1752050835475218E-013
  -6.6099999999999992E-002    -7.2035693382543897E-014
  -6.5000000000000002E-002    -1.5639340950751590E-012
  -6.3899999999999985E-002    -2.4554789625208517E-012
  -6.2799999999999995E-002    -1.9365490114275907E-012
  -6.1699999999999991E-002    -9.0355403280922841E-014
  -6.0599999999999994E-002     2.4414101382902453E-012
  -5.9499999999999990E-002     4.9988060565886450E-012
  -5.8399999999999994E-002     6.6478667189173724E-012
  -5.7299999999999990E-002     5.6404941481402737E-012
  -5.6199999999999986E-002     1.9967607753877681E-013
  -5.5099999999999996E-002    -9.2706684343135670E-012
  -5.3999999999999992E-002    -1.8935304713085799E-011
  -5.2899999999999989E-002    -2.3220644157495585E-011
  -5.1799999999999985E-002    -1.7981501704289471E-011
  -5.0699999999999995E-002    -1.9798169180462732E-012
  -4.9599999999999991E-002     2.3476739649530565E-011
  -4.8499999999999988E-002     5.3602199068247813E-011
  -4.7399999999999998E-002     7.7266075482196328E-011
  -4.6299999999999994E-002     7.7324147085278128E-011
  -4.5199999999999990E-002     3.8913500893800190E-011
  -4.4099999999999986E-002    -3.8352734182955928E-011
  -4.2999999999999997E-002    -1.3492897077416188E-010
  -4.1899999999999993E-002    -2.1769225311274454E-010
  -4.0799999999999989E-002    -2.5185567520402685E-010
  -3.9699999999999985E-002    -2.1002619088328345E-010
  -3.8599999999999995E-002    -7.8455172913827198E-011
  -3.7499999999999992E-002     1.3511912422270456E-010
  -3.6399999999999988E-002     3.9504646776045149E-010
  -3.5299999999999984E-002     6.4197502869234313E-010
  -3.4199999999999994E-002     8.0890205644834623E-010
  -3.3099999999999991E-002     8.3884982293724875E-010
  -3.1999999999999987E-002     6.9849453998571676E-010
  -3.0899999999999997E-002     3.9552439101697701E-010
  -2.9799999999999993E-002     1.6693767678974125E-012
  -2.8699999999999989E-002    -3.4262917503191659E-010
  -2.7599999999999986E-002    -4.7086323728962043E-010
  -2.6499999999999996E-002    -2.6797641883291590E-010
  -2.5399999999999992E-002     2.7370375410562531E-010
  -2.4299999999999988E-002     1.0588574461678490E-009
  -2.3199999999999985E-002     1.9248045379782752E-009
  -2.2099999999999995E-002     2.6510977857441276E-009
  -2.0999999999999991E-002     2.9409461532736714E-009
  -1.9899999999999987E-002     2.4368238538130527E-009
  -1.8799999999999983E-002     8.0754525288995183E-010
  -1.7699999999999994E-002    -2.1462400745519972E-009
  -1.6599999999999990E-002    -6.4552110323745637E-009
  -1.5499999999999986E-002    -1.2028800178143229E-008
  -1.4399999999999996E-002    -1.8728570694293012E-008
  -1.3299999999999992E-002    -2.6424190835427908E-008
  -1.2199999999999989E-002    -3.5052849511885142E-008
  -1.1099999999999985E-002    -4.4698314383140314E-008
  -9.9999999999999950E-003    -5.5653107011721659E-008
  -8.8999999999999913E-003    -6.8428136046350119E-008
  -7.7999999999999875E-003    -8.3746449774935172E-008
  -6.6999999999999837E-003    -1.0258045790578763E-007
  -5.5999999999999939E-003    -1.2618809819286980E-007
  -4.4999999999999901E-003    -1.5604439340677345E-007
  -3.3999999999999864E-003    -1.9367881520793162E-007
  -2.2999999999999826E-003    -2.4060483383436804E-007
  -1.1999999999999927E-003    -2.9845236326764280E-007
  -9.9999999999988987E-005    -3.6916566159561626E-007
   1.0000000000000148E-003    -4.5503426804316405E-007
   2.1000000000000185E-003    -5.5858339464975870E-007
   3.2000000000000084E-003    -6.8262409058661433E-007
   4.3000000000000121E-003    -8.3059433109156089E-007
   5.4000000000000159E-003    -1.0069521749755950E-006
   6.5000000000000058E-003    -1.2172095011919737E-006
   7.6000000000000234E-003    -1.4676031696581049E-006
   8.7000000000000133E-003    -1.7648895891397842E-006
   9.8000000000000032E-003    -2.1164892132219393E-006
   1.0900000000000021E-002    -2.5307870146207279E-006
   1.2000000000000011E-002    -3.0172391234373208E-006
   1.3100000000000001E-002    -3.5862274216924561E-006
   1.4200000000000018E-002    -4.2490032683417667E-006
   1.5300000000000008E-002    -5.0178609853901435E-006
   1.6400000000000026E-002    -5.9063941080239601E-006
   1.7500000000000016E-002    -6.9297097979870159E-006
   1.8600000000000005E-002    -8.1046964623965323E-006
   1.9700000000000023E-002    -9.4501228886656463E-006
   2.0800000000000013E-002    -1.0986265806423035E-005
   2.1900000000000003E-002    -1.2734172742057126E-005
   2.3000000000000020E-002    -1.4714933968207333E-005
   2.4100000000000010E-002    -1.6950010831351392E-005
   2.5200000000000000E-002    -1.9462231648503803E-005
   2.6300000000000018E-002    -2.2275882656686008E-005
   2.7400000000000008E-002    -2.5415412892471068E-005
   2.8500000000000025E-002    -2.8904010832775384E-005
   2.9600000000000015E-002    -3.2763055060058832E-005
   3.0700000000000005E-002    -3.7013734981883317E-005
   3.1800000000000023E-002    -4.1677143599372357E-005
   3.2900000000000013E-002    -4.6773406211286783E-005
   3.4000000000000002E-002    -5.2318791858851910E-005
   3.5100000000000020E-002    -5.8324094425188377E-005
   3.6200000000000010E-002    -6.4795065554790199E-005
   3.7300000000000028E-002    -7.1732109063304961E-005
   3.8400000000000017E-002    -7.9130004451144487E-005
   3.9500000000000007E-002    -8.6977386672515422E-005
   4.0600000000000025E-002    -9.5254872576333582E-005
   4.1700000000000015E-002    -1.0393274715170264E-004
   4.2800000000000005E-002    -1.1297047603875399E-004
   4.3900000000000022E-002    -1.2231606524437666E-004
   4.5000000000000012E-002    -1.3190708705224097E-004
   4.6100000000000002E-002    -1.4167133485898376E-004
   4.7200000000000020E-002    -1.5152587729971856E-004
   4.8300000000000010E-002    -1.6137096099555492E-004
   4.9400000000000027E-002    -1.7109127657022327E-004
   5.0500000000000017E-002    -1.8055870896205306E-004
   5.1600000000000007E-002    -1.8963504408020526E-004
   5.2700000000000025E-002    -1.9817493739537895E-004
   5.3800000000000014E-002    -2.0601935102604330E-004
   5.4900000000000004E-002    -2.1299616491887718E-004
   5.6000000000000022E-002    -2.1892310178373009E-004
   5.7100000000000012E-002    -2.2361468290910125E-004
   5.8200000000000002E-002    -2.2688446915708482E-004
   5.9300000000000019E-002    -2.2854423150420189E-004
   6.0400000000000009E-002    -2.2840834571979940E-004
   6.1500000000000027E-002    -2.2629504383075982E-004
   6.2600000000000017E-002    -2.2202983382157981E-004
   6.3700000000000007E-002    -2.1544759511016309E-004
   6.4800000000000024E-002    -2.0640072762034833E-004
   6.5900000000000014E-002    -1.9476791203487664E-004
   6.7000000000000004E-002    -1.8045124306809157E-004
   6.8100000000000022E-002    -1.6337673878297210E-004
   6.9200000000000012E-002    -1.4349624689202756E-004
   7.0300000000000029E-002    -1.2079535372322425E-004
   7.1400000000000019E-002    -9.5302035333588719E-005
   7.2500000000000009E-002    -6.7090179072692990E-005
   7.3600000000000027E-002    -3.6274286685511470E-005
   7.4700000000000016E-002    -3.0087733193795430E-006
   7.5800000000000006E-002     3.2514602935407311E-005
   7.6900000000000024E-002     7.0062262238934636E-005
   7.8000000000000014E-002     1.0935262980638072E-004
   7.9100000000000004E-002     1.5005609020590782E-004
   8.0200000000000021E-002     1.9180266826879233E-004
   8.1300000000000011E-002     2.3419338685926050E-004
   8.2400000000000029E-002     2.7680673520080745E-004
   8.3500000000000019E-002     3.1919841421768069E-004
   8.4600000000000009E-002     3.6089672357775271E-004
   8.5700000000000026E-002     4.0140759665518999E-004
   8.6800000000000016E-002     4.4022849760949612E-004
   8.7900000000000006E-002     4.7686649486422539E-004
   8.9000000000000024E-002     5.1084754522889853E-004
   9.0100000000000013E-002     5.4171821102499962E-004
   9.1200000000000003E-002     5.6904176017269492E-004
   9.2300000000000021E-002     5.9240363771095872E-004
   9.3400000000000011E-002     6.1142485355958343E-004
   9.4500000000000028E-002     6.2578293727710843E-004
   9.5600000000000018E-002     6.3521944684907794E-004
   9.6700000000000008E-002     6.3953903736546636E-004
   9.7800000000000026E-002     6.3860201044008136E-004
   9.8900000000000016E-002     6.3232111278921366E-004
  0.10000000000000001          6.2067405087873340E-004
  0.10110000000000002          6.0371973086148500E-004
  0.10220000000000001          5.8160151820629835E-004
  0.10330000000000003          5.5453152162954211E-004
  0.10440000000000002          5.2277994109317660E-004
  0.10550000000000001          4.8666758812032640E-004
  0.10660000000000003          4.4656920363195240E-004
  0.10770000000000002          4.0291991899721324E-004
  0.10880000000000001          3.5620981361716986E-004
  0.10990000000000003          3.0696840258315206E-004
  0.11100000000000002          2.5575337349437177E-004
  0.11210000000000001          2.0312629931140691E-004
  0.11320000000000002          1.4965386071708053E-004
  0.11430000000000001          9.5913055702112615E-005
  0.11540000000000003          4.2486306483624503E-005
  0.11650000000000002         -1.0054181984742172E-005
  0.11760000000000001         -6.1169914260972291E-005
  0.11870000000000003         -1.1036548676202074E-004
  0.11980000000000002         -1.5718396753072739E-004
  0.12090000000000001         -2.0120850240346044E-004
  0.12200000000000003         -2.4205840600188822E-004
  0.12310000000000001         -2.7940532891079783E-004
  0.12420000000000003         -3.1299027614295483E-004
  0.12530000000000002         -3.4261928522028029E-004
  0.12640000000000001         -3.6815289058722556E-004
  0.12750000000000003         -3.8950602174736559E-004
  0.12860000000000002         -4.0664625703357160E-004
  0.12970000000000001         -4.1960080852732062E-004
  0.13080000000000003         -4.2844950803555548E-004
  0.13190000000000002         -4.3332425411790609E-004
  0.13300000000000001         -4.3440196895971894E-004
  0.13410000000000000         -4.3189921416342258E-004
  0.13520000000000004         -4.2606281931512058E-004
  0.13630000000000003         -4.1716176201589406E-004
  0.13740000000000002         -4.0548795368522406E-004
  0.13850000000000001         -3.9135888800956309E-004
  0.13960000000000000         -3.7511085974983871E-004
  0.14070000000000005         -3.5707969800569117E-004
  0.14180000000000004         -3.3758862991817296E-004
  0.14290000000000003         -3.1695261714048684E-004
  0.14400000000000002         -2.9548918246291578E-004
  0.14510000000000001         -2.7351526659913361E-004
  0.14620000000000000         -2.5132900918833911E-004
  0.14730000000000004         -2.2919548791833222E-004
  0.14840000000000003         -2.0735389261972159E-004
  0.14950000000000002         -1.8603027274366468E-004
  0.15060000000000001         -1.6543694073334336E-004
  0.15170000000000000         -1.4575968089047819E-004
  0.15280000000000005         -1.2714882905129343E-004
  0.15390000000000004         -1.0972895688610151E-004
  0.15500000000000003         -9.3608025053981692E-005
  0.15610000000000002         -7.8876662882976234E-005
  0.15720000000000001         -6.5598302171565592E-005
  0.15830000000000000         -5.3809948440175503E-005
  0.15940000000000004         -4.3533149437280372E-005
  0.16050000000000003         -3.4779193811118603E-005
  0.16160000000000002         -2.7542171665118076E-005
  0.16270000000000001         -2.1794925487483852E-005
  0.16380000000000000         -1.7497030057711527E-005
  0.16490000000000005         -1.4606572221964598E-005
  0.16600000000000004         -1.3076074537821114E-005
  0.16710000000000003         -1.2839343980886042E-005
  0.16820000000000002         -1.3811434655508492E-005
  0.16930000000000001         -1.5905670807114802E-005
  0.17040000000000000         -1.9045815861318260E-005
  0.17150000000000004         -2.3155413146014325E-005
  0.17260000000000003         -2.8136895707575604E-005
  0.17370000000000002         -3.3871481718961149E-005
  0.17480000000000001         -4.0241549868369475E-005
  0.17590000000000000         -4.7144098061835393E-005
  0.17700000000000005         -5.4478066886076704E-005
  0.17810000000000004         -6.2124236137606204E-005
  0.17920000000000003         -6.9945286668371409E-005
  0.18030000000000002         -7.7803328167647123E-005
  0.18140000000000001         -8.5567873611580580E-005
  0.18250000000000000         -9.3105401901993901E-005
  0.18360000000000004         -1.0026958625530824E-004
  0.18470000000000003         -1.0690974886529148E-004
  0.18580000000000002         -1.1288242967566475E-004
  0.18690000000000001         -1.1804709356511012E-004
  0.18800000000000000         -1.2225263344589621E-004
  0.18910000000000005         -1.2533822155091912E-004
  0.19020000000000004         -1.2715409684460610E-004
  0.19130000000000003         -1.2757410877384245E-004
  0.19240000000000002         -1.2648124538827688E-004
  0.19350000000000001         -1.2375165533740073E-004
  0.19460000000000005         -1.1926244042115286E-004
  0.19570000000000004         -1.1291326518403366E-004
  0.19680000000000003         -1.0463788203196600E-004
  0.19790000000000002         -9.4390168669633567E-005
  0.19900000000000001         -8.2131322415079921E-005
  0.20010000000000000         -6.7840839619748294E-005
  0.20120000000000005         -5.1536630053305998E-005
  0.20230000000000004         -3.3273048757109791E-005
  0.20340000000000003         -1.3126110388839152E-005
  0.20450000000000002          8.8108254203689285E-006
  0.20560000000000000          3.2410760468337685E-005
  0.20670000000000005          5.7501078117638826E-005
  0.20780000000000004          8.3872379036620259E-005
  0.20890000000000003          1.1129787162644789E-004
