 -0.12000000000000000          0.0000000000000000
 -0.11889999999999999          0.0000000000000000
 -0.11780000000000000          0.0000000000000000
 -0.11670000000000000          0.0000000000000000
 -0.11559999999999999          0.0000000000000000
 -0.11449999999999999          0.0000000000000000
 -0.11340000000000000          0.0000000000000000
 -0.11230000000000000          4.5173342993479524E-021
 -0.11119999999999999         -2.1335530527994547E-021
 -0.11009999999999999         -5.0255073772323631E-020
 -0.10900000000000000          6.3248923627350262E-021
 -0.10790000000000000          3.2296871521402589E-019
 -0.10679999999999999          1.0674493740123475E-019
 -0.10569999999999999         -1.4623045693271151E-018
 -0.10460000000000000         -1.2596271212781472E-018
 -0.10349999999999999          4.7662457088035162E-018
 -0.10239999999999999          7.2483645049398550E-018
 -0.10130000000000000         -1.0592419147836556E-017
 -0.10020000000000000         -2.7792547280287584E-017
  -9.9099999999999994E-002     1.2570450356370323E-017
  -9.7999999999999990E-002     7.9820493891643815E-017
  -9.6899999999999986E-002     1.2145736952396808E-017
  -9.5799999999999996E-002    -1.8955681505177023E-016
  -9.4699999999999993E-002    -1.2843964243355882E-016
  -9.3599999999999989E-002     3.9215264353533634E-016
  -9.2499999999999999E-002     5.3948973660592641E-016
  -9.1399999999999995E-002    -6.0574221852043443E-016
  -9.0299999999999991E-002    -1.6980221736469887E-015
  -8.9200000000000002E-002     1.2997281177275851E-016
  -8.8099999999999984E-002     3.8443687218803115E-015
  -8.6999999999999994E-002     2.7951502806658306E-015
  -8.5899999999999990E-002    -5.4412778197564758E-015
  -8.4799999999999986E-002    -9.5917206265777079E-015
  -8.3699999999999997E-002     2.5227902246079993E-015
  -8.2599999999999993E-002     1.8417169509290024E-014
  -8.1499999999999989E-002     8.2132431145900617E-015
  -8.0399999999999999E-002    -2.5318141748148677E-014
  -7.9299999999999995E-002    -2.8646823682729888E-014
  -7.8199999999999992E-002     2.6885427139244043E-014
  -7.7100000000000002E-002     6.7104558942963216E-014
  -7.5999999999999984E-002    -4.8577589399753564E-015
  -7.4899999999999994E-002    -1.2584742547106648E-013
  -7.3799999999999991E-002    -8.8558995477595187E-014
  -7.2699999999999987E-002     1.4607453159391770E-013
  -7.1599999999999997E-002     2.6607267279189772E-013
  -7.0499999999999993E-002    -1.4645767170101513E-014
  -6.9399999999999989E-002    -4.1285174606255082E-013
  -6.8300000000000000E-002    -2.8991506461142902E-013
  -6.7199999999999996E-002     3.7689447916766650E-013
  -6.6099999999999992E-002     6.6022952079428099E-013
  -6.5000000000000002E-002    -1.0487619073965698E-013
  -6.3899999999999985E-002    -1.0222499929879447E-012
  -6.2799999999999995E-002    -5.2547078016954019E-013
  -6.1699999999999991E-002     1.1612631429375186E-012
  -6.0599999999999994E-002     1.6429087907818274E-012
  -5.9499999999999990E-002    -4.3079640332441271E-013
  -5.8399999999999994E-002    -2.6582674863412370E-012
  -5.7299999999999990E-002    -1.4798791532488753E-012
  -5.6199999999999986E-002     2.3741694374357358E-012
  -5.5099999999999996E-002     3.6569970142397157E-012
  -5.3999999999999992E-002    -3.4668996189493595E-013
  -5.2899999999999989E-002    -4.7691746385414291E-012
  -5.1799999999999985E-002    -2.8353749469828271E-012
  -5.0699999999999995E-002     3.9462673580292762E-012
  -4.9599999999999991E-002     6.1617755169052213E-012
  -4.8499999999999988E-002    -6.3210889430717621E-013
  -4.7399999999999998E-002    -7.9608255751373314E-012
  -4.6299999999999994E-002    -4.8448879456930438E-012
  -4.5199999999999990E-002     5.9953075490226659E-012
  -4.4099999999999986E-002     1.0003406956948790E-011
  -4.2999999999999997E-002     7.0892364244581896E-013
  -4.1899999999999993E-002    -9.9521614907449596E-012
  -4.0799999999999989E-002    -7.5309142602564272E-012
  -3.9699999999999985E-002     4.1717879151192960E-012
  -3.8599999999999995E-002     8.2176071503070602E-012
  -3.7499999999999992E-002    -6.3585996277343293E-013
  -3.6399999999999988E-002    -8.0503251634334028E-012
  -3.5299999999999984E-002    -1.8635887104323512E-012
  -3.4199999999999994E-002     9.1507201122054127E-012
  -3.3099999999999991E-002     8.9044153994688457E-012
  -3.1999999999999987E-002    -8.5880331708934610E-013
  -3.0899999999999997E-002    -4.3762619396370273E-012
  -2.9799999999999993E-002     6.2576788369128611E-013
  -2.8699999999999989E-002    -1.9714557677324995E-012
  -2.7599999999999986E-002    -1.6755583032157517E-011
  -2.6499999999999996E-002    -2.0911130466094718E-011
  -2.5399999999999992E-002     2.9868102349034364E-012
  -2.4299999999999988E-002     3.0750145485480829E-011
  -2.3199999999999985E-002     2.1629559254776609E-011
  -2.2099999999999995E-002    -1.9659069511179794E-011
  -2.0999999999999991E-002    -3.8394627754900768E-011
  -1.9899999999999987E-002    -5.0737756010499346E-012
  -1.8799999999999983E-002     3.2645570274825175E-011
  -1.7699999999999994E-002     9.1782761946213043E-012
  -1.6599999999999990E-002    -5.9796653739674355E-011
  -1.5499999999999986E-002    -8.4343511341788968E-011
  -1.4399999999999996E-002    -1.9562835726349981E-011
  -1.3299999999999992E-002     6.4529555310333109E-011
  -1.2199999999999989E-002     6.8715116929851661E-011
  -1.1099999999999985E-002    -7.3518873280886687E-012
  -9.9999999999999950E-003    -7.1582607896747419E-011
  -8.8999999999999913E-003    -6.8349853554749984E-011
  -7.7999999999999875E-003    -4.3248894049385811E-011
  -6.6999999999999837E-003    -6.1479404900310897E-011
  -5.5999999999999939E-003    -1.0975650943656490E-010
  -4.4999999999999901E-003    -1.2989753717107533E-010
  -3.3999999999999864E-003    -1.1112920306199925E-010
  -2.2999999999999826E-003    -9.2062441003903928E-011
  -1.1999999999999927E-003    -8.0985745887218741E-011
  -9.9999999999988987E-005    -4.8621245918312184E-011
   1.0000000000000148E-003    -2.1889877063752117E-011
   2.1000000000000185E-003    -9.6950336647694257E-011
   3.2000000000000084E-003    -3.0232755188208671E-010
   4.3000000000000121E-003    -4.9991083495015687E-010
   5.4000000000000159E-003    -5.2037785192027286E-010
   6.5000000000000058E-003    -3.9191186407272482E-010
   7.6000000000000234E-003    -3.3009414646123503E-010
   8.7000000000000133E-003    -4.5136233639553325E-010
   9.8000000000000032E-003    -6.1600624601254594E-010
   1.0900000000000021E-002    -6.0884919328429987E-010
   1.2000000000000011E-002    -4.6420395305446505E-010
   1.3100000000000001E-002    -4.5164197381986071E-010
   1.4200000000000018E-002    -7.4653611070729653E-010
   1.5300000000000008E-002    -1.1793170884288884E-009
   1.6400000000000026E-002    -1.4775434209468585E-009
   1.7500000000000016E-002    -1.5583602186453049E-009
   1.8600000000000005E-002    -1.5452583657094010E-009
   1.9700000000000023E-002    -1.5591017366034521E-009
   2.0800000000000013E-002    -1.5774719308581098E-009
   2.1900000000000003E-002    -1.6255836676748459E-009
   2.3000000000000020E-002    -1.7308952049432946E-009
   2.4100000000000010E-002    -1.9139549944924283E-009
   2.5200000000000000E-002    -2.0930537303343044E-009
   2.6300000000000018E-002    -2.3102504354000075E-009
   2.7400000000000008E-002    -2.5688677851576358E-009
   2.8500000000000025E-002    -2.8909263871668145E-009
   2.9600000000000015E-002    -3.3250882047752839E-009
   3.0700000000000005E-002    -3.4449387786850139E-009
   3.1800000000000023E-002    -3.2617260004030868E-009
   3.2900000000000013E-002    -3.0117794924677810E-009
   3.4000000000000002E-002    -2.9676305857151419E-009
   3.5100000000000020E-002    -3.0887350455088836E-009
   3.6200000000000010E-002    -3.0104940762498700E-009
   3.7300000000000028E-002    -2.6331987701411208E-009
   3.8400000000000017E-002    -2.5143644943881327E-009
   3.9500000000000007E-002    -2.8027455911683319E-009
   4.0600000000000025E-002    -2.9917128774314961E-009
   4.1700000000000015E-002    -2.6092876748151639E-009
   4.2800000000000005E-002    -1.7935849472294763E-009
   4.3900000000000022E-002    -1.2546034211524670E-009
   4.5000000000000012E-002    -1.4208865195541875E-009
   4.6100000000000002E-002    -1.2282782568817652E-009
   4.7200000000000020E-002    -4.2814726763928945E-010
   4.8300000000000010E-002     1.2394981707686270E-009
   4.9400000000000027E-002     2.6642890116335138E-009
   5.0500000000000017E-002     3.6315013218768399E-009
   5.1600000000000007E-002     3.9942520402291848E-009
   5.2700000000000025E-002     4.0806535928084031E-009
   5.3800000000000014E-002     4.2688230728060717E-009
   5.4900000000000004E-002     5.9497913262873681E-009
   5.6000000000000022E-002     7.5739903238059014E-009
   5.7100000000000012E-002     8.2909989984614185E-009
   5.8200000000000002E-002     9.0482599190977453E-009
   5.9300000000000019E-002     9.9851842350062725E-009
   6.0400000000000009E-002     1.0765688784886152E-008
   6.1500000000000027E-002     1.1443209047001801E-008
   6.2600000000000017E-002     1.3410615729014808E-008
   6.3700000000000007E-002     1.5435475120284536E-008
   6.4800000000000024E-002     1.5657553475989516E-008
   6.5900000000000014E-002     1.3950038457721803E-008
   6.7000000000000004E-002     1.2275261696004236E-008
   6.8100000000000022E-002     1.1772018027045306E-008
   6.9200000000000012E-002     1.3772083029550686E-008
   7.0300000000000029E-002     1.6613714848290329E-008
   7.1400000000000019E-002     1.6858111351325533E-008
   7.2500000000000009E-002     1.3033826462560683E-008
   7.3600000000000027E-002     8.0270625701928111E-009
   7.4700000000000016E-002     6.7080812016229174E-009
   7.5800000000000006E-002     1.0062492172835391E-008
   7.6900000000000024E-002     1.2341637933843685E-008
   7.8000000000000014E-002     9.5796481858201332E-009
   7.9100000000000004E-002     3.5987861579656055E-009
   8.0200000000000021E-002    -8.3402007522437316E-010
   8.1300000000000011E-002    -1.3657563968649811E-009
   8.2400000000000029E-002     2.7120511392197955E-010
   8.3500000000000019E-002     1.6949709691349568E-010
   8.4600000000000009E-002    -3.3800180432308480E-009
   8.5700000000000026E-002    -8.6126394904795234E-009
   8.6800000000000016E-002    -1.3506033624821612E-008
   8.7900000000000006E-002    -1.6555851800603705E-008
   8.9000000000000024E-002    -1.6048870676854676E-008
   9.0100000000000013E-002    -1.2398812643255042E-008
   9.1200000000000003E-002    -9.5803240895975250E-009
   9.2300000000000021E-002    -1.2855042363923985E-008
   9.3400000000000011E-002    -2.2317584225106657E-008
   9.4500000000000028E-002    -2.9870339091075948E-008
   9.5600000000000018E-002    -2.7247182288192562E-008
   9.6700000000000008E-002    -1.6813491043876638E-008
   9.7800000000000026E-002    -1.0395655891670685E-008
   9.8900000000000016E-002    -1.5202600067709682E-008
  0.10000000000000001         -2.5570328077151316E-008
  0.10110000000000002         -3.0645015414165755E-008
  0.10220000000000001         -2.4330297776486987E-008
  0.10330000000000003         -1.2748644806492848E-008
  0.10440000000000002         -5.9990679091015409E-009
  0.10550000000000001         -7.5927415466026105E-009
  0.10660000000000003         -1.3566141987553237E-008
  0.10770000000000002         -1.9373093351759962E-008
  0.10880000000000001         -1.9745680646110486E-008
  0.10990000000000003         -1.0657826621240929E-008
  0.11100000000000002          3.2943647809702270E-009
  0.11210000000000001          1.2516705005793938E-008
  0.11320000000000002          7.4016508477825482E-009
  0.11430000000000001         -5.4754174527715804E-009
  0.11540000000000003         -1.1369565733332365E-008
  0.11650000000000002         -3.5889107241615648E-009
  0.11760000000000001          1.3094229700527649E-008
  0.11870000000000003          2.2208460848105460E-008
  0.11980000000000002          1.6299377847417418E-008
  0.12090000000000001          8.8260648789528773E-010
  0.12200000000000003         -3.9185592548562909E-009
  0.12310000000000001          6.9328596197237857E-009
  0.12420000000000003          2.1332045463395843E-008
  0.12530000000000002          2.6485977855372766E-008
  0.12640000000000001          2.0363415842439281E-008
  0.12750000000000003          1.1413852085695453E-008
  0.12860000000000002          4.8171715505418433E-009
  0.12970000000000001          1.9294701392169600E-009
  0.13080000000000003          4.6890744620498026E-009
  0.13190000000000002          1.3711033197694178E-008
  0.13300000000000001          2.1897054836017560E-008
  0.13410000000000000          1.9107037729781950E-008
  0.13520000000000004          5.5695070777517230E-009
  0.13630000000000003         -5.7109814655120772E-009
  0.13740000000000002         -2.9412761115565900E-009
  0.13850000000000001          1.0120758453524559E-008
  0.13960000000000000          1.7659397499869556E-008
  0.14070000000000005          1.0819272588946660E-008
  0.14180000000000004         -2.0965944536044390E-009
  0.14290000000000003         -7.6410309191032866E-009
  0.14400000000000002         -3.2345099931774257E-009
  0.14510000000000001          2.9066571372027283E-009
  0.14620000000000000          4.1626559976748467E-009
  0.14730000000000004          2.5523549940231760E-009
  0.14840000000000003          1.6356321852484257E-009
  0.14950000000000002         -8.3782147886068969E-010
  0.15060000000000001         -7.0883361402707123E-009
  0.15170000000000000         -1.1397168542259806E-008
  0.15280000000000005         -4.9020978387659397E-009
  0.15390000000000004          7.4520398740673954E-009
  0.15500000000000003          1.1806156940963319E-008
  0.15610000000000002          8.8161211664328221E-010
  0.15720000000000001         -1.5599761482576469E-008
  0.15830000000000000         -1.8849032557000100E-008
  0.15940000000000004         -5.9522315964954942E-009
  0.16050000000000003          7.7309714185958001E-009
  0.16160000000000002          9.0978620193027382E-009
  0.16270000000000001          1.0104019704249012E-010
  0.16380000000000000         -7.3670012312732069E-009
  0.16490000000000005         -8.4303426461929121E-009
  0.16600000000000004         -6.1324914035765232E-009
  0.16710000000000003         -2.8950011277117937E-009
  0.16820000000000002          2.0950516876894199E-009
  0.16930000000000001          6.2693192859342162E-009
  0.17040000000000000          3.2117575265999676E-009
  0.17150000000000004         -7.8683433102355593E-009
  0.17260000000000003         -1.4882803434090874E-008
  0.17370000000000002         -6.3122591598130384E-009
  0.17480000000000001          1.1274388533877300E-008
  0.17590000000000000          1.7449474754016592E-008
  0.17700000000000005          3.3853535530425916E-009
  0.17810000000000004         -1.5086007110198807E-008
  0.17920000000000003         -1.6758143317474605E-008
  0.18030000000000002         -1.0664641392210683E-009
  0.18140000000000001          1.2634046697712620E-008
  0.18250000000000000          1.0211516965341616E-008
  0.18360000000000004         -1.4710785922744662E-009
  0.18470000000000003         -7.5396391352455794E-009
  0.18580000000000002         -4.6032195832879097E-009
  0.18690000000000001         -3.6465994113221711E-010
  0.18800000000000000          1.1730808546772664E-009
  0.18910000000000005          3.3796785370299176E-009
  0.19020000000000004          6.6857119840335599E-009
  0.19130000000000003          4.5549355398577518E-009
  0.19240000000000002         -5.1598241235240039E-009
  0.19350000000000001         -1.2010941574658318E-008
  0.19460000000000005         -5.2345221490668337E-009
  0.19570000000000004          9.0334806301939352E-009
  0.19680000000000003          1.2816517624969492E-008
  0.19790000000000002          4.0585410032711877E-010
  0.19900000000000001         -1.2592561660085266E-008
  0.20010000000000000         -9.3833874004189965E-009
  0.20120000000000005          5.2678106321479845E-009
  0.20230000000000004          1.2172769459084520E-008
  0.20340000000000003          3.9270338092478596E-009
  0.20450000000000002         -6.6009118171450609E-009
  0.20560000000000000         -6.1086082858707869E-009
  0.20670000000000005          1.2548271310919290E-009
  0.20780000000000004          3.1449691739737773E-009
  0.20890000000000003         -1.4637107081938439E-009
