 -0.12000000000000000          0.0000000000000000
 -0.11889999999999999          0.0000000000000000
 -0.11780000000000000          0.0000000000000000
 -0.11670000000000000          0.0000000000000000
 -0.11559999999999999          0.0000000000000000
 -0.11449999999999999          0.0000000000000000
 -0.11340000000000000          0.0000000000000000
 -0.11230000000000000          4.5173359149350863E-021
 -0.11119999999999999         -2.1335482060380530E-021
 -0.11009999999999999         -5.0255054385278025E-020
 -0.10900000000000000          6.3249275017551884E-021
 -0.10790000000000000          3.2296868936463174E-019
 -0.10679999999999999          1.0674448503683726E-019
 -0.10569999999999999         -1.4623051897125746E-018
 -0.10460000000000000         -1.2596270178805706E-018
 -0.10349999999999999          4.7662465359841288E-018
 -0.10239999999999999          7.2483653321204675E-018
 -0.10130000000000000         -1.0592426592462069E-017
 -0.10020000000000000         -2.7792534045397783E-017
  -9.9099999999999994E-002     1.2570483443594825E-017
  -9.7999999999999990E-002     7.9820407864860109E-017
  -9.6899999999999986E-002     1.2145775002704986E-017
  -9.5799999999999996E-002    -1.8955656358886401E-016
  -9.4699999999999993E-002    -1.2844003948025284E-016
  -9.3599999999999989E-002     3.9215251118643833E-016
  -9.2499999999999999E-002     5.3948989542460402E-016
  -9.1399999999999995E-002    -6.0574327731161850E-016
  -9.0299999999999991E-002    -1.6980252441414225E-015
  -8.9200000000000002E-002     1.2996865601736104E-016
  -8.8099999999999984E-002     3.8443729570450478E-015
  -8.6999999999999994E-002     2.7951610803359081E-015
  -8.5899999999999990E-002    -5.4412786667894231E-015
  -8.4799999999999986E-002    -9.5917519667967563E-015
  -8.3699999999999997E-002     2.5227643901031081E-015
  -8.2599999999999993E-002     1.8417188144014864E-014
  -8.1499999999999989E-002     8.2133176534894201E-015
  -8.0399999999999999E-002    -2.5318134971885099E-014
  -7.9299999999999995E-002    -2.8646901609761036E-014
  -7.8199999999999992E-002     2.6885437303639410E-014
  -7.7100000000000002E-002     6.7104565719226794E-014
  -7.5999999999999984E-002    -4.8576166384402177E-015
  -7.4899999999999994E-002    -1.2584734415590354E-013
  -7.3799999999999991E-002    -8.8559178436711794E-014
  -7.2699999999999987E-002     1.4607438251611898E-013
  -7.1599999999999997E-002     2.6607229332113735E-013
  -7.0499999999999993E-002    -1.4645977234272432E-014
  -6.9399999999999989E-002    -4.1285171895749651E-013
  -6.8300000000000000E-002    -2.8991463093056002E-013
  -6.7199999999999996E-002     3.7689491284853549E-013
  -6.6099999999999992E-002     6.6022930395384649E-013
  -6.5000000000000002E-002    -1.0487652955283588E-013
  -6.3899999999999985E-002    -1.0222491256262067E-012
  -6.2799999999999995E-002    -5.2546958754715045E-013
  -6.1699999999999991E-002     1.1612628176768669E-012
  -6.0599999999999994E-002     1.6429047792337892E-012
  -5.9499999999999990E-002    -4.3080084855331990E-013
  -5.8399999999999994E-002    -2.6582672695008025E-012
  -5.7299999999999990E-002    -1.4798739490784474E-012
  -5.6199999999999986E-002     2.3741731237231223E-012
  -5.5099999999999996E-002     3.6569965805588467E-012
  -5.3999999999999992E-002    -3.4668611297722363E-013
  -5.2899999999999989E-002    -4.7691659649240492E-012
  -5.1799999999999985E-002    -2.8353955468241043E-012
  -5.0699999999999995E-002     3.9462378677301846E-012
  -4.9599999999999991E-002     6.1617846242034702E-012
  -4.8499999999999988E-002    -6.3205219053355521E-013
  -4.7399999999999998E-002    -7.9607986869234537E-012
  -4.6299999999999994E-002    -4.8449083286938865E-012
  -4.5199999999999990E-002     5.9952936712348581E-012
  -4.4099999999999986E-002     1.0003388742352293E-011
  -4.2999999999999997E-002     7.0874377330540361E-013
  -4.1899999999999993E-002    -9.9523392999012472E-012
  -4.0799999999999989E-002    -7.5307711455696591E-012
  -3.9699999999999985E-002     4.1723751190159142E-012
  -3.8599999999999995E-002     8.2179037880214523E-012
  -3.7499999999999992E-002    -6.3641621269802662E-013
  -3.6399999999999988E-002    -8.0513174252616615E-012
  -3.5299999999999984E-002    -1.8643981757743289E-012
  -3.4199999999999994E-002     9.1498744345108740E-012
  -3.3099999999999991E-002     8.9041855486082788E-012
  -3.1999999999999987E-002    -8.5693035783637739E-013
  -3.0899999999999997E-002    -4.3730804567820858E-012
  -2.9799999999999993E-002     6.2679852627645083E-013
  -2.8699999999999989E-002    -1.9755241279645341E-012
  -2.7599999999999986E-002    -1.6758559817642293E-011
  -2.6499999999999996E-002    -2.0910911890936745E-011
  -2.5399999999999992E-002     2.9898342916029330E-012
  -2.4299999999999988E-002     3.0755543944938069E-011
  -2.3199999999999985E-002     2.1641188840959558E-011
  -2.2099999999999995E-002    -1.9659511865666168E-011
  -2.0999999999999991E-002    -3.8403408925136162E-011
  -1.9899999999999987E-002    -5.0747080149182722E-012
  -1.8799999999999983E-002     3.2641351427331600E-011
  -1.7699999999999994E-002     9.1620808162495848E-012
  -1.6599999999999990E-002    -5.9806021246444629E-011
  -1.5499999999999986E-002    -8.4293447222272277E-011
  -1.4399999999999996E-002    -1.9539729209649970E-011
  -1.3299999999999992E-002     6.4505893682120785E-011
  -1.2199999999999989E-002     6.8621316962058643E-011
  -1.1099999999999985E-002    -7.3812067569178907E-012
  -9.9999999999999950E-003    -7.1527860023845591E-011
  -8.8999999999999913E-003    -6.8072485148729101E-011
  -7.7999999999999875E-003    -4.3139575245376705E-011
  -6.6999999999999837E-003    -6.1258824401999590E-011
  -5.5999999999999939E-003    -1.1021944468225797E-010
  -4.4999999999999901E-003    -1.3024495371105616E-010
  -3.3999999999999864E-003    -1.1093568424991318E-010
  -2.2999999999999826E-003    -9.0957220921783488E-011
  -1.1999999999999927E-003    -7.9585463219622454E-011
  -9.9999999999988987E-005    -4.8844810141002171E-011
   1.0000000000000148E-003    -2.3260416162629305E-011
   2.1000000000000185E-003    -9.7849679747685769E-011
   3.2000000000000084E-003    -3.0252286786769389E-010
   4.3000000000000121E-003    -4.9959808512411996E-010
   5.4000000000000159E-003    -5.2018395146902208E-010
   6.5000000000000058E-003    -3.9292222253628495E-010
   7.6000000000000234E-003    -3.2799407634342970E-010
   8.7000000000000133E-003    -4.5198494946774304E-010
   9.8000000000000032E-003    -6.1559868314020605E-010
   1.0900000000000021E-002    -6.0579824490147871E-010
   1.2000000000000011E-002    -4.6675124876216501E-010
   1.3100000000000001E-002    -4.5690623506899897E-010
   1.4200000000000018E-002    -7.3338091155505936E-010
   1.5300000000000008E-002    -1.1627258045265876E-009
   1.6400000000000026E-002    -1.4729696351523103E-009
   1.7500000000000016E-002    -1.5531413932734495E-009
   1.8600000000000005E-002    -1.5480891013552878E-009
   1.9700000000000023E-002    -1.5660303054332303E-009
   2.0800000000000013E-002    -1.6309068540110161E-009
   2.1900000000000003E-002    -1.6470708130711387E-009
   2.3000000000000020E-002    -1.7438462895924545E-009
   2.4100000000000010E-002    -1.9125063754898974E-009
   2.5200000000000000E-002    -2.1181418841109689E-009
   2.6300000000000018E-002    -2.2473067851080941E-009
   2.7400000000000008E-002    -2.4325175207451366E-009
   2.8500000000000025E-002    -2.8572793020487097E-009
   2.9600000000000015E-002    -3.3482265848761017E-009
   3.0700000000000005E-002    -3.5951461807570695E-009
   3.1800000000000023E-002    -3.4002054505322121E-009
   3.2900000000000013E-002    -3.0441114073909148E-009
   3.4000000000000002E-002    -2.7673847657894157E-009
   3.5100000000000020E-002    -2.8749955749418632E-009
   3.6200000000000010E-002    -2.9568776316324374E-009
   3.7300000000000028E-002    -2.9735522932838876E-009
   3.8400000000000017E-002    -2.7851607686812940E-009
   3.9500000000000007E-002    -2.6743196546163972E-009
   4.0600000000000025E-002    -2.6044482126508228E-009
   4.1700000000000015E-002    -2.5257860247762665E-009
   4.2800000000000005E-002    -2.2315687076002177E-009
   4.3900000000000022E-002    -1.9233528103512754E-009
   4.5000000000000012E-002    -1.2201815113854764E-009
   4.6100000000000002E-002    -6.7689892579991806E-010
   4.7200000000000020E-002     6.6350522298641579E-011
   4.8300000000000010E-002     1.0884266821165056E-009
   4.9400000000000027E-002     2.0049586435533229E-009
   5.0500000000000017E-002     3.2174325426126416E-009
   5.1600000000000007E-002     4.1003995754351763E-009
   5.2700000000000025E-002     4.3342316402572578E-009
   5.3800000000000014E-002     4.5274783921911421E-009
   5.4900000000000004E-002     5.4360880241688392E-009
   5.6000000000000022E-002     7.2073840229336383E-009
   5.7100000000000012E-002     8.8206686399416867E-009
   5.8200000000000002E-002     1.0044537646081153E-008
   5.9300000000000019E-002     9.7555208355970535E-009
   6.0400000000000009E-002     8.8137497300522227E-009
   6.1500000000000027E-002     1.0625158530785939E-008
   6.2600000000000017E-002     1.4185846275438507E-008
   6.3700000000000007E-002     1.6081044051929894E-008
   6.4800000000000024E-002     1.5112721740706547E-008
   6.5900000000000014E-002     1.4026860561955345E-008
   6.7000000000000004E-002     1.3772148754753744E-008
   6.8100000000000022E-002     1.4666524883466536E-008
   6.9200000000000012E-002     1.4135082437860547E-008
   7.0300000000000029E-002     1.3192479109136457E-008
   7.1400000000000019E-002     1.2872470200875341E-008
   7.2500000000000009E-002     1.3314259916796800E-008
   7.3600000000000027E-002     1.1654115006365373E-008
   7.4700000000000016E-002     8.8411180598768624E-009
   7.5800000000000006E-002     8.3467632805422909E-009
   7.6900000000000024E-002     1.0989642973413538E-008
   7.8000000000000014E-002     1.2298133178489934E-008
   7.9100000000000004E-002     6.8961729660088622E-009
   8.0200000000000021E-002    -2.6816151521558140E-009
   8.1300000000000011E-002    -6.6984173763273702E-009
   8.2400000000000029E-002    -2.4661523934099705E-009
   8.3500000000000019E-002     2.7872455454769351E-009
   8.4600000000000009E-002     1.8834890591623576E-010
   8.5700000000000026E-002    -8.8652329921501405E-009
   8.6800000000000016E-002    -1.5801857600195035E-008
   8.7900000000000006E-002    -1.6228403509899181E-008
   8.9000000000000024E-002    -1.3363025352930435E-008
   9.0100000000000013E-002    -1.1592937276816428E-008
   9.1200000000000003E-002    -1.2025257234427045E-008
   9.2300000000000021E-002    -1.4798597014475945E-008
   9.3400000000000011E-002    -2.0487023633108947E-008
   9.4500000000000028E-002    -2.6808427477931218E-008
   9.5600000000000018E-002    -2.7613053177333313E-008
   9.6700000000000008E-002    -2.0597726191340371E-008
   9.7800000000000026E-002    -1.1552723222507666E-008
   9.8900000000000016E-002    -1.1887110851205307E-008
  0.10000000000000001         -2.4282128308072970E-008
  0.10110000000000002         -3.2454934739689634E-008
  0.10220000000000001         -2.7316858108861197E-008
  0.10330000000000003         -1.3002222409852493E-008
  0.10440000000000002         -2.8704880694618851E-009
  0.10550000000000001         -6.2812950396562428E-009
  0.10660000000000003         -1.5835388111895554E-008
  0.10770000000000002         -1.9148506780197749E-008
  0.10880000000000001         -1.3887060390516126E-008
  0.10990000000000003         -6.2308935788735198E-009
  0.11100000000000002          3.0780508697425546E-010
  0.11210000000000001          3.9613077262856677E-009
  0.11320000000000002          1.6125015767087802E-009
  0.11430000000000001         -3.4091158784832487E-009
  0.11540000000000003         -7.9164657051933318E-009
  0.11650000000000002         -1.2225355172645891E-009
  0.11760000000000001          1.1961144963379411E-008
  0.11870000000000003          2.1849205111834635E-008
  0.11980000000000002          1.7915173344817958E-008
  0.12090000000000001          4.0177332572000068E-009
  0.12200000000000003         -3.4323781594736147E-009
  0.12310000000000001          5.3410476041904076E-009
  0.12420000000000003          2.0059744088030129E-008
  0.12530000000000002          2.5571599948648327E-008
  0.12640000000000001          1.6660276713764688E-008
  0.12750000000000003          6.1311919985485019E-009
  0.12860000000000002          4.1114134319286677E-009
  0.12970000000000001          7.9605060321341625E-009
  0.13080000000000003          1.1772200103621344E-008
  0.13190000000000002          1.4574743190109984E-008
  0.13300000000000001          1.7868293511469346E-008
  0.13410000000000000          1.7265254115272910E-008
  0.13520000000000004          7.5628623363854786E-009
  0.13630000000000003         -4.9345820762880521E-009
  0.13740000000000002         -5.4264241988732920E-009
  0.13850000000000001          9.0862037893657543E-009
  0.13960000000000000          2.1784590131801451E-008
  0.14070000000000005          1.5650913454123838E-008
  0.14180000000000004         -3.8018854731092233E-009
  0.14290000000000003         -1.5079708148846294E-008
  0.14400000000000002         -7.7304820322865453E-009
  0.14510000000000001          6.4277285716229926E-009
  0.14620000000000000          1.0798913763210294E-008
  0.14730000000000004          4.4084673689326337E-009
  0.14840000000000003         -1.8410831748028045E-009
  0.14950000000000002         -3.7709906308691643E-009
  0.15060000000000001         -6.0037481652841507E-009
  0.15170000000000000         -9.1605230068125820E-009
  0.15280000000000005         -6.1135088103014823E-009
  0.15390000000000004          4.5618753219400787E-009
  0.15500000000000003          1.0352390944490253E-008
  0.15610000000000002          3.3534366949972139E-010
  0.15720000000000001         -1.5715995616005785E-008
  0.15830000000000000         -1.6893819676511157E-008
  0.15940000000000004         -1.7330407942051096E-010
  0.16050000000000003          1.4743754661594721E-008
  0.16160000000000002          9.0550749121121044E-009
  0.16270000000000001         -9.3998639982828536E-009
  0.16380000000000000         -1.7922266337677684E-008
  0.16490000000000005         -9.4415995022245625E-009
  0.16600000000000004          2.1468313793349125E-009
  0.16710000000000003          4.3456753751058841E-009
  0.16820000000000002          1.6048790074663088E-009
  0.16930000000000001          2.6678022013726377E-009
  0.17040000000000000          3.2720961495869005E-009
  0.17150000000000004         -4.4345136451795497E-009
  0.17260000000000003         -1.4210931098546098E-008
  0.17370000000000002         -1.0591594268305471E-008
  0.17480000000000001          6.4687908363225688E-009
  0.17590000000000000          1.6503864941341817E-008
  0.17700000000000005          5.0228075032521247E-009
  0.17810000000000004         -1.3816360500129576E-008
  0.17920000000000003         -1.5577075629380488E-008
  0.18030000000000002          1.5655966523198117E-009
  0.18140000000000001          1.5038629896935163E-008
  0.18250000000000000          9.0247631590045785E-009
  0.18360000000000004         -5.4582649511303316E-009
  0.18470000000000003         -9.1961718240440860E-009
  0.18580000000000002         -1.7589119050143154E-009
  0.18690000000000001          2.3636375079405525E-009
  0.18800000000000000         -1.0920739867970042E-009
  0.18910000000000005         -1.4204253329097583E-009
  0.19020000000000004          6.1868710155010831E-009
  0.19130000000000003          9.4243857162723543E-009
  0.19240000000000002         -1.2987825259713759E-009
  0.19350000000000001         -1.4068693765523221E-008
  0.19460000000000005         -9.6710248698173018E-009
  0.19570000000000004          8.8723455249350991E-009
  0.19680000000000003          1.7474707902920272E-008
  0.19790000000000002          3.8532692592241347E-009
  0.19900000000000001         -1.4350899135706641E-008
  0.20010000000000000         -1.3747041727185660E-008
  0.20120000000000005          2.7917719247483319E-009
  0.20230000000000004          1.2126611714791125E-008
  0.20340000000000003          4.3049781517368046E-009
  0.20450000000000002         -5.8333342600747073E-009
  0.20560000000000000         -3.5446170443265146E-009
  0.20670000000000005          4.3469885468994107E-009
  0.20780000000000004          3.0748783519385370E-009
  0.20890000000000003         -5.2369366621007885E-009
