 -0.12000000000000000          0.0000000000000000
 -0.11889999999999999          0.0000000000000000
 -0.11780000000000000          0.0000000000000000
 -0.11670000000000000          0.0000000000000000
 -0.11559999999999999         -1.2065179777836675E-042
 -0.11449999999999999          1.4284272566454691E-015
 -0.11340000000000000         -2.4924177407018282E-015
 -0.11230000000000000         -1.3384947616685173E-014
 -0.11119999999999999          2.1669289829834813E-014
 -0.11009999999999999          9.6478543470251976E-014
 -0.10900000000000000         -6.4762993958519116E-014
 -0.10790000000000000         -5.1346746949773592E-013
 -0.10679999999999999         -1.4715529142450556E-013
 -0.10569999999999999          1.8767457206358973E-012
 -0.10460000000000000          2.3827211904914325E-012
 -0.10349999999999999         -3.7394436505633344E-012
 -0.10239999999999999         -1.1419126061396057E-011
 -0.10130000000000000         -2.0969827436989608E-012
 -0.10020000000000000          2.8348453792736983E-011
  -9.9099999999999994E-002     3.8769629867596578E-011
  -9.7999999999999990E-002    -2.0811755097049911E-011
  -9.6899999999999986E-002    -1.1168242025627606E-010
  -9.5799999999999996E-002    -9.2686025521260262E-011
  -9.4699999999999993E-002     1.0614276818587953E-010
  -9.3599999999999989E-002     3.0103769477207720E-010
  -9.2499999999999999E-002     1.8590790018535586E-010
  -9.1399999999999995E-002    -2.5472449149965826E-010
  -9.0299999999999991E-002    -5.8175586570285986E-010
  -8.9200000000000002E-002    -3.5416430899104512E-010
  -8.8099999999999984E-002     2.7511018463322046E-010
  -8.6999999999999994E-002     6.7017680294156889E-010
  -8.5899999999999990E-002     5.1441412241004514E-010
  -8.4799999999999986E-002     2.1862078813938979E-010
  -8.3699999999999997E-002     2.5128890634995571E-010
  -8.2599999999999993E-002     2.7846663863684284E-010
  -8.1499999999999989E-002    -5.3182758197323210E-010
  -8.0399999999999999E-002    -2.2713599889812031E-009
  -7.9299999999999995E-002    -3.7994625223802814E-009
  -7.8199999999999992E-002    -3.6941383285693519E-009
  -7.7100000000000002E-002    -1.2695914319849066E-009
  -7.5999999999999984E-002     3.6348439813593814E-009
  -7.4899999999999994E-002     1.1205798067237538E-008
  -7.3799999999999991E-002     2.1071230094094062E-008
  -7.2699999999999987E-002     3.1462846550311951E-008
  -7.1599999999999997E-002     4.0369375398086049E-008
  -7.0499999999999993E-002     4.8108038441796452E-008
  -6.9399999999999989E-002     5.7568279032693681E-008
  -6.8300000000000000E-002     7.0786605022021831E-008
  -6.7199999999999996E-002     8.6315431246930530E-008
  -6.6099999999999992E-002     1.0202895595057271E-007
  -6.5000000000000002E-002     1.2042858088534558E-007
  -6.3899999999999985E-002     1.4856054519896134E-007
  -6.2799999999999995E-002     1.9108952642454824E-007
  -6.1699999999999991E-002     2.4523856723135395E-007
  -6.0599999999999994E-002     3.0510202009281784E-007
  -5.9499999999999990E-002     3.7036284084024373E-007
  -5.8399999999999994E-002     4.4808226107306837E-007
  -5.7299999999999990E-002     5.4581477115789312E-007
  -5.6199999999999986E-002     6.6625682393350871E-007
  -5.5099999999999996E-002     8.1032470689024194E-007
  -5.3999999999999992E-002     9.8234647794015473E-007
  -5.2899999999999989E-002     1.1887335631399765E-006
  -5.1799999999999985E-002     1.4335649893837399E-006
  -5.0699999999999995E-002     1.7206425582116935E-006
  -4.9599999999999991E-002     2.0601560208888259E-006
  -4.8499999999999988E-002     2.4675300664966926E-006
  -4.7399999999999998E-002     2.9524967430916149E-006
  -4.6299999999999994E-002     3.5145035326422658E-006
  -4.5199999999999990E-002     4.1555667849024758E-006
  -4.4099999999999986E-002     4.8957135732052848E-006
  -4.2999999999999997E-002     5.7676606957102194E-006
  -4.1899999999999993E-002     6.7942728492198512E-006
  -4.0799999999999989E-002     7.9788824223214760E-006
  -3.9699999999999985E-002     9.3232729341252707E-006
  -3.8599999999999995E-002     1.0849566933757160E-005
  -3.7499999999999992E-002     1.2595934094861150E-005
  -3.6399999999999988E-002     1.4593523701478262E-005
  -3.5299999999999984E-002     1.6858359231264330E-005
  -3.4199999999999994E-002     1.9407867512200028E-005
  -3.3099999999999991E-002     2.2273750801105052E-005
  -3.1999999999999987E-002     2.5490691768936813E-005
  -3.0899999999999997E-002     2.9080734748276882E-005
  -2.9799999999999993E-002     3.3061685826396570E-005
  -2.8699999999999989E-002     3.7467623769771308E-005
  -2.7599999999999986E-002     4.2344618123024702E-005
  -2.6499999999999996E-002     4.7720845032017678E-005
  -2.5399999999999992E-002     5.3594641940435395E-005
  -2.4299999999999988E-002     5.9963578678434715E-005
  -2.3199999999999985E-002     6.6855434852186590E-005
  -2.2099999999999995E-002     7.4312280048616230E-005
  -2.0999999999999991E-002     8.2345679402351379E-005
  -1.9899999999999987E-002     9.0926812845282257E-005
  -1.8799999999999983E-002     1.0002386261476204E-004
  -1.7699999999999994E-002     1.0963066597469151E-004
  -1.6599999999999990E-002     1.1974066728726029E-004
  -1.5499999999999986E-002     1.3030839909333736E-004
  -1.4399999999999996E-002     1.4125484449323267E-004
  -1.3299999999999992E-002     1.5251160948537290E-004
  -1.2199999999999989E-002     1.6402658366132528E-004
  -1.1099999999999985E-002     1.7571834905538708E-004
  -9.9999999999999950E-003     1.8744828412309289E-004
  -8.8999999999999913E-003     1.9905602675862610E-004
  -7.7999999999999875E-003     2.1041471336502582E-004
  -6.6999999999999837E-003     2.2141651425044984E-004
  -5.5999999999999939E-003     2.3190713545773178E-004
  -4.4999999999999901E-003     2.4166353978216648E-004
  -3.3999999999999864E-003     2.5045295478776097E-004
  -2.2999999999999826E-003     2.5808758800849319E-004
  -1.1999999999999927E-003     2.6439761859364808E-004
  -9.9999999999988987E-005     2.6916820206679404E-004
   1.0000000000000148E-003     2.7214214787818491E-004
   2.1000000000000185E-003     2.7308997232466936E-004
   3.2000000000000084E-003     2.7183187194168568E-004
   4.3000000000000121E-003     2.6818676269613206E-004
   5.4000000000000159E-003     2.6192219229415059E-004
   6.5000000000000058E-003     2.5281522539444268E-004
   7.6000000000000234E-003     2.4073319218587130E-004
   8.7000000000000133E-003     2.2561635705642402E-004
   9.8000000000000032E-003     2.0738622697535902E-004
   1.0900000000000021E-002     1.8591011757962406E-004
   1.2000000000000011E-002     1.6109934949781746E-004
   1.3100000000000001E-002     1.3300222053658217E-004
   1.4200000000000018E-002     1.0175767238251865E-004
   1.5300000000000008E-002     6.7490145738702267E-005
   1.6400000000000026E-002     3.0293225790956058E-005
   1.7500000000000016E-002    -9.6689400379545987E-006
   1.8600000000000005E-002    -5.2096329454798251E-005
   1.9700000000000023E-002    -9.6633906650822610E-005
   2.0800000000000013E-002    -1.4295030268840492E-004
   2.1900000000000003E-002    -1.9070404232479632E-004
   2.3000000000000020E-002    -2.3944476561155170E-004
   2.4100000000000010E-002    -2.8862076578661799E-004
   2.5200000000000000E-002    -3.3770129084587097E-004
   2.6300000000000018E-002    -3.8622855208814144E-004
   2.7400000000000008E-002    -4.3371855281293392E-004
   2.8500000000000025E-002    -4.7956701018847525E-004
   2.9600000000000015E-002    -5.2311213221400976E-004
   3.0700000000000005E-002    -5.6378799490630627E-004
   3.1800000000000023E-002    -6.0115283122286201E-004
   3.2900000000000013E-002    -6.3475687056779861E-004
   3.4000000000000002E-002    -6.6406244877725840E-004
   3.5100000000000020E-002    -6.8855099380016327E-004
   3.6200000000000010E-002    -7.0786086143925786E-004
   3.7300000000000028E-002    -7.2175910463556647E-004
   3.8400000000000017E-002    -7.2999799158424139E-004
   3.9500000000000007E-002    -7.3229498229920864E-004
   4.0600000000000025E-002    -7.2848354466259480E-004
   4.1700000000000015E-002    -7.1860436582937837E-004
   4.2800000000000005E-002    -7.0279027568176389E-004
   4.3900000000000022E-002    -6.8112509325146675E-004
   4.5000000000000012E-002    -6.5368897048756480E-004
   4.6100000000000002E-002    -6.2072783475741744E-004
   4.7200000000000020E-002    -5.8269588043913245E-004
   4.8300000000000010E-002    -5.4008275037631392E-004
   4.9400000000000027E-002    -4.9329671310260892E-004
   5.0500000000000017E-002    -4.4275366235524416E-004
   5.1600000000000007E-002    -3.8903986569494009E-004
   5.2700000000000025E-002    -3.3286548568867147E-004
   5.3800000000000014E-002    -2.7488655177876353E-004
   5.4900000000000004E-002    -2.1564333292189986E-004
   5.6000000000000022E-002    -1.5571860421914607E-004
   5.7100000000000012E-002    -9.5838950073812157E-005
   5.8200000000000002E-002    -3.6748431739397347E-005
   5.9300000000000019E-002     2.0980438421247527E-005
   6.0400000000000009E-002     7.6912285294383764E-005
   6.1500000000000027E-002     1.3054934970568866E-004
   6.2600000000000017E-002     1.8128292867913842E-004
   6.3700000000000007E-002     2.2857259318698198E-004
   6.4800000000000024E-002     2.7211004635319114E-004
   6.5900000000000014E-002     3.1171698356047273E-004
   6.7000000000000004E-002     3.4714379580691457E-004
   6.8100000000000022E-002     3.7807237822562456E-004
   6.9200000000000012E-002     4.0432618698105216E-004
   7.0300000000000029E-002     4.2595897684805095E-004
   7.1400000000000019E-002     4.4307552161626518E-004
   7.2500000000000009E-002     4.5566807966679335E-004
   7.3600000000000027E-002     4.6372314682230353E-004
   7.4700000000000016E-002     4.6741965343244374E-004
   7.5800000000000006E-002     4.6712171752005816E-004
   7.6900000000000024E-002     4.6314523206092417E-004
   7.8000000000000014E-002     4.5565285836346447E-004
   7.9100000000000004E-002     4.4483007513917983E-004
   8.0200000000000021E-002     4.3106754310429096E-004
   8.1300000000000011E-002     4.1486183181405067E-004
   8.2400000000000029E-002     3.9658026071265340E-004
   8.3500000000000019E-002     3.7643907126039267E-004
   8.4600000000000009E-002     3.5471899900585413E-004
   8.5700000000000026E-002     3.3186827204190195E-004
   8.6800000000000016E-002     3.0832723132334650E-004
   8.7900000000000006E-002     2.8434229898266494E-004
   8.9000000000000024E-002     2.6006024563685060E-004
   9.0100000000000013E-002     2.3575712111778557E-004
   9.1200000000000003E-002     2.1183860371820629E-004
   9.2300000000000021E-002     1.8859468400478363E-004
   9.3400000000000011E-002     1.6608416626695544E-004
   9.4500000000000028E-002     1.4432398893404752E-004
   9.5600000000000018E-002     1.2351037003099918E-004
   9.6700000000000008E-002     1.0392975673312321E-004
   9.7800000000000026E-002     8.5698920884169638E-005
   9.8900000000000016E-002     6.8726963945664465E-005
  0.10000000000000001          5.2950810641050339E-005
  0.10110000000000002          3.8483856769744307E-005
  0.10220000000000001          2.5457364245085046E-005
  0.10330000000000003          1.3816144928568974E-005
  0.10440000000000002          3.3842236462078290E-006
  0.10550000000000001         -5.9000003602704965E-006
  0.10660000000000003         -1.3949077583674807E-005
  0.10770000000000002         -2.0748559109051712E-005
  0.10880000000000001         -2.6484720365260728E-005
  0.10990000000000003         -3.1370484066428617E-005
  0.11100000000000002         -3.5427376133156940E-005
  0.11210000000000001         -3.8561953260796145E-005
  0.11320000000000002         -4.0820905269356444E-005
  0.11430000000000001         -4.2437572119524702E-005
  0.11540000000000003         -4.3594940507318825E-005
  0.11650000000000002         -4.4264856114750728E-005
  0.11760000000000001         -4.4366013753460720E-005
  0.11870000000000003         -4.3990301492158324E-005
  0.11980000000000002         -4.3353938963264227E-005
  0.12090000000000001         -4.2553918319754303E-005
  0.12200000000000003         -4.1504939872538671E-005
  0.12310000000000001         -4.0153860027203336E-005
  0.12420000000000003         -3.8634963857475668E-005
  0.12530000000000002         -3.7126188544789329E-005
  0.12640000000000001         -3.5629906051326543E-005
  0.12750000000000003         -3.4017451980616897E-005
  0.12860000000000002         -3.2269119401462376E-005
  0.12970000000000001         -3.0539511499227956E-005
  0.13080000000000003         -2.8951655622222461E-005
  0.13190000000000002         -2.7436533855507150E-005
  0.13300000000000001         -2.5864977942546830E-005
  0.13410000000000000         -2.4264398234663531E-005
  0.13520000000000004         -2.2785772671340965E-005
  0.13630000000000003         -2.1478566850419156E-005
  0.13740000000000002         -2.0222421881044284E-005
  0.13850000000000001         -1.8920560250990093E-005
  0.13960000000000000         -1.7653946997597814E-005
  0.14070000000000005         -1.6556630725972354E-005
  0.14180000000000004         -1.5608087778673507E-005
  0.14290000000000003         -1.4662477042293176E-005
  0.14400000000000002         -1.3668585779669229E-005
  0.14510000000000001         -1.2743437764584087E-005
  0.14620000000000000         -1.1988966434728354E-005
  0.14730000000000004         -1.1335603630868718E-005
  0.14840000000000003         -1.0648689567460679E-005
  0.14950000000000002         -9.9291009973967448E-006
  0.15060000000000001         -9.3003545771352947E-006
  0.15170000000000000         -8.8100387074518949E-006
  0.15280000000000005         -8.3550958152045496E-006
  0.15390000000000004         -7.8416769611067139E-006
  0.15500000000000003         -7.3263140620838385E-006
  0.15610000000000002         -6.9215748226270080E-006
  0.15720000000000001         -6.6168186094728298E-006
  0.15830000000000000         -6.2908038671594113E-006
  0.15940000000000004         -5.8962118600902613E-006
  0.16050000000000003         -5.5280561355175450E-006
  0.16160000000000002         -5.2742620937351603E-006
  0.16270000000000001         -5.0802259465854149E-006
  0.16380000000000000         -4.8331025936931837E-006
  0.16490000000000005         -4.5307715481612831E-006
  0.16600000000000004         -4.2776405280164909E-006
  0.16710000000000003         -4.1202542888640892E-006
  0.16820000000000002         -3.9788051253708545E-006
  0.16930000000000001         -3.7737756883871043E-006
  0.17040000000000000         -3.5461059724184452E-006
  0.17150000000000004         -3.3873172924359096E-006
  0.17260000000000003         -3.2940959044935880E-006
  0.17370000000000002         -3.1743832096253755E-006
  0.17480000000000001         -2.9911384444858413E-006
  0.17590000000000000         -2.8188596843392588E-006
  0.17700000000000005         -2.7272944862488657E-006
  0.17810000000000004         -2.6740510747913504E-006
  0.17920000000000003         -2.5700289825181244E-006
  0.18030000000000002         -2.4130031306413002E-006
  0.18140000000000001         -2.2865683604322840E-006
  0.18250000000000000         -2.2317992716125445E-006
  0.18360000000000004         -2.1897585611441173E-006
  0.18470000000000003         -2.0959189441782655E-006
  0.18580000000000002         -1.9750286810449325E-006
  0.18690000000000001         -1.8944899693451589E-006
  0.18800000000000000         -1.8580877849672106E-006
  0.18910000000000005         -1.8055993677990045E-006
  0.19020000000000004         -1.7119072026616777E-006
  0.19130000000000003         -1.6255148693744559E-006
  0.19240000000000002         -1.5890026361375931E-006
  0.19350000000000001         -1.5698872175562428E-006
  0.19460000000000005         -1.5103347550393664E-006
  0.19570000000000004         -1.4164993444865104E-006
  0.19680000000000003         -1.3492242487700423E-006
  0.19790000000000002         -1.3323441407919745E-006
  0.19900000000000001         -1.3196382724345312E-006
  0.20010000000000000         -1.2663502957366291E-006
  0.20120000000000005         -1.1926463230338413E-006
  0.20230000000000004         -1.1465929219411919E-006
  0.20340000000000003         -1.1307741942800931E-006
  0.20450000000000002         -1.1050242392229848E-006
  0.20560000000000000         -1.0530426379773417E-006
  0.20670000000000005         -1.0051734307126026E-006
  0.20780000000000004         -9.8601708486967254E-007
  0.20890000000000003         -9.7430654477648204E-007
