 -0.12000000000000000          0.0000000000000000
 -0.11889999999999999          0.0000000000000000
 -0.11780000000000000          0.0000000000000000
 -0.11670000000000000          0.0000000000000000
 -0.11559999999999999          0.0000000000000000
 -0.11449999999999999          0.0000000000000000
 -0.11340000000000000          0.0000000000000000
 -0.11230000000000000          4.5173359149350863E-021
 -0.11119999999999999          2.6953082492800867E-021
 -0.11009999999999999         -3.9686161236339454E-020
 -0.10900000000000000         -4.3154400297803588E-020
 -0.10790000000000000          1.2673978627476235E-019
 -0.10679999999999999          1.1275644019122120E-019
 -0.10569999999999999         -2.9436517152346018E-019
 -0.10460000000000000          7.7179797541045854E-019
 -0.10349999999999999          3.4095627979175315E-018
 -0.10239999999999999         -2.6647573802559033E-018
 -0.10130000000000000         -2.4008311783143239E-017
 -0.10020000000000000         -2.3006936859753895E-017
  -9.9099999999999994E-002     5.9794457879179915E-017
  -9.7999999999999990E-002     1.6465789775542585E-016
  -9.6899999999999986E-002     6.5371931608833067E-017
  -9.5799999999999996E-002    -3.2096637999152924E-016
  -9.4699999999999993E-002    -5.9947491586458145E-016
  -9.3599999999999989E-002    -2.6554641715099926E-016
  -9.2499999999999999E-002     5.2617861383982508E-016
  -9.1399999999999995E-002     1.2265283774588157E-015
  -9.0299999999999991E-002     1.9775513048121435E-015
  -8.9200000000000002E-002     2.6896718088430943E-015
  -8.8099999999999984E-002     1.9473897585796184E-016
  -8.6999999999999994E-002    -9.5672608561598455E-015
  -8.5899999999999990E-002    -2.1019371613801956E-014
  -8.4799999999999986E-002    -1.4576922026214578E-014
  -8.3699999999999997E-002     2.3028630326445143E-014
  -8.2599999999999993E-002     6.8656289421015204E-014
  -8.1499999999999989E-002     7.0093948277994561E-014
  -8.0399999999999999E-002     1.8027597033991143E-015
  -7.9299999999999995E-002    -9.8447529154385011E-014
  -7.8199999999999992E-002    -1.7167498434118855E-013
  -7.7100000000000002E-002    -1.9459247039242678E-013
  -7.5999999999999984E-002    -1.4046701085276836E-013
  -7.4899999999999994E-002     9.1882976379319137E-014
  -7.3799999999999991E-002     5.6259592253957158E-013
  -7.2699999999999987E-002     1.0080229836603727E-012
  -7.1599999999999997E-002     8.3523905023211165E-013
  -7.0499999999999993E-002    -2.9889697487905931E-013
  -6.9399999999999989E-002    -1.8545854955920316E-012
  -6.8300000000000000E-002    -2.6645749408998887E-012
  -6.7199999999999996E-002    -2.0365263295185621E-012
  -6.6099999999999992E-002    -3.4666507945507741E-013
  -6.5000000000000002E-002     1.7393235289542286E-012
  -6.3899999999999985E-002     4.1749273309299451E-012
  -6.2799999999999995E-002     6.7709891513056952E-012
  -6.1699999999999991E-002     7.5979595878794548E-012
  -6.0599999999999994E-002     3.6871321967835158E-012
  -5.9499999999999990E-002    -5.3345882398969646E-012
  -5.8399999999999994E-002    -1.5047053880667960E-011
  -5.7299999999999990E-002    -1.9570272485891493E-011
  -5.6199999999999986E-002    -1.7235563670725540E-011
  -5.5099999999999996E-002    -1.0806322850442918E-011
  -5.3999999999999992E-002    -1.1948066234307442E-012
  -5.2899999999999989E-002     1.5830852254095085E-011
  -5.1799999999999985E-002     4.2452201476361751E-011
  -5.0699999999999995E-002     6.8811435716131797E-011
  -4.9599999999999991E-002     7.5453983339190955E-011
  -4.8499999999999988E-002     4.9081089886771068E-011
  -4.7399999999999998E-002    -6.5035424962056609E-012
  -4.6299999999999994E-002    -7.7459059999451796E-011
  -4.5199999999999990E-002    -1.5275572473605337E-010
  -4.4099999999999986E-002    -2.2125679066675730E-010
  -4.2999999999999997E-002    -2.5614393939221713E-010
  -4.1899999999999993E-002    -2.1505976166569241E-010
  -4.0799999999999989E-002    -6.9064857999290297E-011
  -3.9699999999999985E-002     1.6694938487216149E-010
  -3.8599999999999995E-002     4.3755252199240147E-010
  -3.7499999999999992E-002     6.7744693188487304E-010
  -3.6399999999999988E-002     8.2886481012067748E-010
  -3.5299999999999984E-002     8.2947099189212281E-010
  -3.4199999999999994E-002     6.0446986305251471E-010
  -3.3099999999999991E-002     9.7095373408073726E-011
  -3.1999999999999987E-002    -6.8152322674208676E-010
  -3.0899999999999997E-002    -1.6310403028185760E-009
  -2.9799999999999993E-002    -2.5782675994179272E-009
  -2.8699999999999989E-002    -3.2951132933334293E-009
  -2.7599999999999986E-002    -3.5026777034374845E-009
  -2.6499999999999996E-002    -2.8971745003047999E-009
  -2.5399999999999992E-002    -1.2209881994351690E-009
  -2.4299999999999988E-002     1.6695326232607499E-009
  -2.3199999999999985E-002     5.8055156237912797E-009
  -2.2099999999999995E-002     1.1159327684140408E-008
  -2.0999999999999991E-002     1.7667007412569546E-008
  -1.9899999999999987E-002     2.5200604270025906E-008
  -1.8799999999999983E-002     3.3585770609079191E-008
  -1.7699999999999994E-002     4.2738832917166292E-008
  -1.6599999999999990E-002     5.2840039899137992E-008
  -1.5499999999999986E-002     6.4385268672140228E-008
  -1.4399999999999996E-002     7.8097215805428277E-008
  -1.3299999999999992E-002     9.4849063714264048E-008
  -1.2199999999999989E-002     1.1570776337066491E-007
  -1.1099999999999985E-002     1.4199837039541308E-007
  -9.9999999999999950E-003     1.7523113626793929E-007
  -8.8999999999999913E-003     2.1693169571790349E-007
  -7.7999999999999875E-003     2.6858705837184971E-007
  -6.6999999999999837E-003     3.3180504033225589E-007
  -5.5999999999999939E-003     4.0853231553228397E-007
  -4.4999999999999901E-003     5.0113561655962258E-007
  -3.3999999999999864E-003     6.1238222315296298E-007
  -2.2999999999999826E-003     7.4549916462274268E-007
  -1.1999999999999927E-003     9.0435412403166993E-007
  -9.9999999999988987E-005     1.0935974614767474E-006
   1.0000000000000148E-003     1.3186787555241608E-006
   2.1000000000000185E-003     1.5858481674513314E-006
   3.2000000000000084E-003     1.9022527339984663E-006
   4.3000000000000121E-003     2.2760293632018147E-006
   5.4000000000000159E-003     2.7162566311744740E-006
   6.5000000000000058E-003     3.2328596262232168E-006
   7.6000000000000234E-003     3.8367284105333965E-006
   8.7000000000000133E-003     4.5400688577501569E-006
   9.8000000000000032E-003     5.3566186579701025E-006
   1.0900000000000021E-002     6.3015008890943136E-006
   1.2000000000000011E-002     7.3909536695282441E-006
   1.3100000000000001E-002     8.6424206529045478E-006
   1.4200000000000018E-002     1.0074983038066421E-005
   1.5300000000000008E-002     1.1709572390827816E-005
   1.6400000000000026E-002     1.3568743270298000E-005
   1.7500000000000016E-002     1.5676201655878685E-005
   1.8600000000000005E-002     1.8056514818454161E-005
   1.9700000000000023E-002     2.0735051293740980E-005
   2.0800000000000013E-002     2.3737800802337006E-005
   2.1900000000000003E-002     2.7090907678939402E-005
   2.3000000000000020E-002     3.0820170650258660E-005
   2.4100000000000010E-002     3.4950655390275642E-005
   2.5200000000000000E-002     3.9506470784544945E-005
   2.6300000000000018E-002     4.4510295992949978E-005
   2.7400000000000008E-002     4.9982518248725682E-005
   2.8500000000000025E-002     5.5940567108336836E-005
   2.9600000000000015E-002     6.2398139561992139E-005
   3.0700000000000005E-002     6.9364410592243075E-005
   3.1800000000000023E-002     7.6842748967465013E-005
   3.2900000000000013E-002     8.4829574916511774E-005
   3.4000000000000002E-002     9.3312759418040514E-005
   3.5100000000000020E-002     1.0227121674688533E-004
   3.6200000000000010E-002     1.1167435150127858E-004
   3.7300000000000028E-002     1.2148071982664987E-004
   3.8400000000000017E-002     1.3163703260943294E-004
   3.9500000000000007E-002     1.4207695494405925E-004
   4.0600000000000025E-002     1.5272168093360960E-004
   4.1700000000000015E-002     1.6347886412404478E-004
   4.2800000000000005E-002     1.7424253746867180E-004
   4.3900000000000022E-002     1.8489183275960386E-004
   4.5000000000000012E-002     1.9529036944732070E-004
   4.6100000000000002E-002     2.0528883032966405E-004
   4.7200000000000020E-002     2.1472341904882342E-004
   4.8300000000000010E-002     2.2342005104292184E-004
   4.9400000000000027E-002     2.3119202523957938E-004
   5.0500000000000017E-002     2.3784446239005774E-004
   5.1600000000000007E-002     2.4317484349012375E-004
   5.2700000000000025E-002     2.4697586195543408E-004
   5.3800000000000014E-002     2.4904138990677893E-004
   5.4900000000000004E-002     2.4916516849771142E-004
   5.6000000000000022E-002     2.4714530445635319E-004
   5.7100000000000012E-002     2.4278952332679182E-004
   5.8200000000000002E-002     2.3592034995090216E-004
   5.9300000000000019E-002     2.2637684014625847E-004
   6.0400000000000009E-002     2.1401989215519279E-004
   6.1500000000000027E-002     1.9873333803843707E-004
   6.2600000000000017E-002     1.8043100135400891E-004
   6.3700000000000007E-002     1.5906404587440193E-004
   6.4800000000000024E-002     1.3462000060826540E-004
   6.5900000000000014E-002     1.0712724179029465E-004
   6.7000000000000004E-002     7.6656964665744454E-005
   6.8100000000000022E-002     4.3326348531991243E-005
   6.9200000000000012E-002     7.2988400461326819E-006
   7.0300000000000029E-002    -3.1213985494105145E-005
   7.1400000000000019E-002    -7.1951559220906347E-005
   7.2500000000000009E-002    -1.1460571840871125E-004
   7.3600000000000027E-002    -1.5882067964412272E-004
   7.4700000000000016E-002    -2.0420041983015835E-004
   7.5800000000000006E-002    -2.5031561381183565E-004
   7.6900000000000024E-002    -2.9670566436834633E-004
   7.8000000000000014E-002    -3.4287784365005791E-004
   7.9100000000000004E-002    -3.8831020356155932E-004
   8.0200000000000021E-002    -4.3246636050753295E-004
   8.1300000000000011E-002    -4.7480961075052619E-004
   8.2400000000000029E-002    -5.1481201080605388E-004
   8.3500000000000019E-002    -5.5195385357365012E-004
   8.4600000000000009E-002    -5.8572622947394848E-004
   8.5700000000000026E-002    -6.1564292991533875E-004
   8.6800000000000016E-002    -6.4125651260837913E-004
   8.7900000000000006E-002    -6.6216924460604787E-004
   8.9000000000000024E-002    -6.7803869023919106E-004
   9.0100000000000013E-002    -6.8857858423143625E-004
   9.1200000000000003E-002    -6.9356255698949099E-004
   9.2300000000000021E-002    -6.9282978074625134E-004
   9.3400000000000011E-002    -6.8629137240350246E-004
   9.4500000000000028E-002    -6.7393633071333170E-004
   9.5600000000000018E-002    -6.5583456307649612E-004
   9.6700000000000008E-002    -6.3213647808879614E-004
   9.7800000000000026E-002    -6.0306210070848465E-004
   9.8900000000000016E-002    -5.6889589177444577E-004
  0.10000000000000001         -5.2998779574409127E-004
  0.10110000000000002         -4.8675487050786614E-004
  0.10220000000000001         -4.3967828969471157E-004
  0.10330000000000003         -3.8929138099774718E-004
  0.10440000000000002         -3.3615398569963872E-004
  0.10550000000000001         -2.8085682424716651E-004
  0.10660000000000003         -2.2400471789296716E-004
  0.10770000000000002         -1.6622398106846958E-004
  0.10880000000000001         -1.0814966663019732E-004
  0.10990000000000003         -5.0414269935572520E-005
  0.11100000000000002          6.3780885284359101E-006
  0.11210000000000001          6.1660612118430436E-005
  0.11320000000000002          1.1490188626339659E-004
  0.11430000000000001          1.6559708456043154E-004
  0.11540000000000003          2.1327668218873441E-004
  0.11650000000000002          2.5752934743650258E-004
  0.11760000000000001          2.9801839264109731E-004
  0.11870000000000003          3.3447306486777961E-004
  0.11980000000000002          3.6667965468950570E-004
  0.12090000000000001          3.9447814924642444E-004
  0.12200000000000003          4.1776621947064996E-004
  0.12310000000000001          4.3650734005495906E-004
  0.12420000000000003          4.5073177898302674E-004
  0.12530000000000002          4.6052745892666280E-004
  0.12640000000000001          4.6603739610873163E-004
  0.12750000000000003          4.6744974679313600E-004
  0.12860000000000002          4.6498450683429837E-004
  0.12970000000000001          4.5889077591709793E-004
  0.13080000000000003          4.4945199624635279E-004
  0.13190000000000002          4.3698798981495202E-004
  0.13300000000000001          4.2184547055512667E-004
  0.13410000000000000          4.0437519783154130E-004
  0.13520000000000004          3.8491518353112042E-004
  0.13630000000000003          3.6379875382408500E-004
  0.13740000000000002          3.4136517206206918E-004
  0.13850000000000001          3.1795797985978425E-004
  0.13960000000000000          2.9390698182396591E-004
  0.14070000000000005          2.6951212203130126E-004
  0.14180000000000004          2.4504560860805213E-004
  0.14290000000000003          2.2076121240388602E-004
  0.14400000000000002          1.9689375767484307E-004
  0.14510000000000001          1.7365110397804528E-004
  0.14620000000000000          1.5121231263037771E-004
  0.14730000000000004          1.2973068805877119E-004
  0.14840000000000003          1.0933616431429982E-004
  0.14950000000000002          9.0129738964606076E-005
  0.15060000000000001          7.2180773713625968E-005
  0.15170000000000000          5.5535954743390903E-005
  0.15280000000000005          4.0229275327874348E-005
  0.15390000000000004          2.6279260055162013E-005
  0.15500000000000003          1.3678451068699360E-005
  0.15610000000000002          2.3954921744007152E-006
  0.15720000000000001         -7.6104952313471586E-006
  0.15830000000000000         -1.6381141904275864E-005
  0.15940000000000004         -2.3965994842001237E-005
  0.16050000000000003         -3.0436000088229775E-005
  0.16160000000000002         -3.5875502362614498E-005
  0.16270000000000001         -4.0362923755310476E-005
  0.16380000000000000         -4.3964038923149928E-005
  0.16490000000000005         -4.6745895815547556E-005
  0.16600000000000004         -4.8792746383696795E-005
  0.16710000000000003         -5.0197224481962621E-005
  0.16820000000000002         -5.1039987738477066E-005
  0.16930000000000001         -5.1383660320425406E-005
  0.17040000000000000         -5.1287224778207019E-005
  0.17150000000000004         -5.0816823204513639E-005
  0.17260000000000003         -5.0037604523822665E-005
  0.17370000000000002         -4.9004909669747576E-005
  0.17480000000000001         -4.7767392970854416E-005
  0.17590000000000000         -4.6374829253181815E-005
  0.17700000000000005         -4.4872911530546844E-005
  0.17810000000000004         -4.3291060137562454E-005
  0.17920000000000003         -4.1646249883342534E-005
  0.18030000000000002         -3.9963128074305132E-005
  0.18140000000000001         -3.8280970329651609E-005
  0.18250000000000000         -3.6634410207625479E-005
  0.18360000000000004         -3.5033164749620482E-005
  0.18470000000000003         -3.3468990295659751E-005
  0.18580000000000002         -3.1943567591952160E-005
  0.18690000000000001         -3.0477613108814694E-005
  0.18800000000000000         -2.9090588213875890E-005
  0.18910000000000005         -2.7781310564023443E-005
  0.19020000000000004         -2.6536650693742558E-005
  0.19130000000000003         -2.5353569071739912E-005
  0.19240000000000002         -2.4239989215857349E-005
  0.19350000000000001         -2.3197631890070625E-005
  0.19460000000000005         -2.2214333512238227E-005
  0.19570000000000004         -2.1279751308611594E-005
  0.19680000000000003         -2.0397090338519774E-005
  0.19790000000000002         -1.9571009033825248E-005
  0.19900000000000001         -1.8790822650771588E-005
  0.20010000000000000         -1.8036982510238886E-005
  0.20120000000000005         -1.7302310880040750E-005
  0.20230000000000004         -1.6595422493992373E-005
  0.20340000000000003         -1.5919200450298376E-005
  0.20450000000000002         -1.5257401173585095E-005
  0.20560000000000000         -1.4591438230127096E-005
  0.20670000000000005         -1.3922716789238621E-005
  0.20780000000000004         -1.3265657798910979E-005
  0.20890000000000003         -1.2619785593415145E-005
