 -0.12000000000000000          0.0000000000000000
 -0.11889999999999999          0.0000000000000000
 -0.11780000000000000          0.0000000000000000
 -0.11670000000000000          0.0000000000000000
 -0.11559999999999999          0.0000000000000000
 -0.11449999999999999          0.0000000000000000
 -0.11340000000000000         -1.0370384665327475E-019
 -0.11230000000000000         -4.6410028092447451E-020
 -0.11119999999999999          8.2720816800718335E-019
 -0.11009999999999999          8.0861940339037372E-019
 -0.10900000000000000         -2.4883404351136564E-018
 -0.10790000000000000         -2.5798855474806656E-018
 -0.10679999999999999          4.4458116559321118E-018
 -0.10569999999999999         -8.2915939401437703E-018
 -0.10460000000000000         -4.1711826467627700E-017
 -0.10349999999999999          3.4793578991809795E-017
 -0.10239999999999999          2.8669156235779840E-016
 -0.10130000000000000          2.5638850868352258E-016
 -0.10020000000000000         -6.8406110828505358E-016
  -9.9099999999999994E-002    -1.7782992977065414E-015
  -9.7999999999999990E-002    -6.4952328692120028E-016
  -9.6899999999999986E-002     3.2767226042560273E-015
  -9.5799999999999996E-002     5.7871624532183485E-015
  -9.4699999999999993E-002     2.2170151422974595E-015
  -9.3599999999999989E-002    -5.0691050952600923E-015
  -9.2499999999999999E-002    -9.9055183814481668E-015
  -9.1399999999999995E-002    -1.3656581765507207E-014
  -9.0299999999999991E-002    -1.9275622154739207E-014
  -8.9200000000000002E-002    -7.1703075402618395E-015
  -8.8099999999999984E-002     5.4147800880675195E-014
  -8.6999999999999994E-002     1.3642899472903619E-013
  -8.5899999999999990E-002     1.1752884364508998E-013
  -8.4799999999999986E-002    -9.3426161988999223E-014
  -8.3699999999999997E-002    -3.7053056478088264E-013
  -8.2599999999999993E-002    -4.1808922860223086E-013
  -8.1499999999999989E-002    -1.0171683916156138E-013
  -8.0399999999999999E-002     3.5628225088062127E-013
  -7.9299999999999995E-002     6.6289074923675528E-013
  -7.8199999999999992E-002     8.2279685452088525E-013
  -7.7100000000000002E-002     9.0005580028959531E-013
  -7.5999999999999984E-002     4.4932579792295035E-013
  -7.4899999999999994E-002    -1.1745861444936723E-012
  -7.3799999999999991E-002    -3.4557842698568209E-012
  -7.2699999999999987E-002    -4.2359809236669488E-012
  -7.1599999999999997E-002    -1.7172246697533255E-012
  -7.0499999999999993E-002     2.9525648419237438E-012
  -6.9399999999999989E-002     6.3249457754599447E-012
  -6.8300000000000000E-002     6.5535181448250768E-012
  -6.7199999999999996E-002     5.3395530184852102E-012
  -6.6099999999999992E-002     4.4603561295819549E-012
  -6.5000000000000002E-002     1.5831516870026818E-012
  -6.3899999999999985E-002    -7.2067837808553747E-012
  -6.2799999999999995E-002    -1.9912894250184721E-011
  -6.1699999999999991E-002    -2.7178294337293352E-011
  -6.0599999999999994E-002    -2.1546885803358506E-011
  -5.9499999999999990E-002    -6.1065978662622200E-012
  -5.8399999999999994E-002     1.0584717997919046E-011
  -5.7299999999999990E-002     2.7202120764235893E-011
  -5.6199999999999986E-002     5.0020987352183965E-011
  -5.5099999999999996E-002     7.6653031144680028E-011
  -5.3999999999999992E-002     8.5816208306166430E-011
  -5.2899999999999989E-002     5.3101488484141868E-011
  -5.1799999999999985E-002    -2.2090570692134825E-011
  -5.0699999999999995E-002    -1.1234483482391866E-010
  -4.9599999999999991E-002    -1.8649722044461470E-010
  -4.8499999999999988E-002    -2.2949642186631536E-010
  -4.7399999999999998E-002    -2.3298935003523980E-010
  -4.6299999999999994E-002    -1.7724233192240035E-010
  -4.5199999999999990E-002    -3.9996603251601925E-011
  -4.4099999999999986E-002     1.7328674606353900E-010
  -4.2999999999999997E-002     4.1959735685992428E-010
  -4.1899999999999993E-002     6.4424221513093016E-010
  -4.0799999999999989E-002     8.0668738355882397E-010
  -3.9699999999999985E-002     8.7561830008908714E-010
  -3.8599999999999995E-002     8.1776713178882687E-010
  -3.7499999999999992E-002     6.2022265101546736E-010
  -3.6399999999999988E-002     3.2892047419075254E-010
  -3.5299999999999984E-002     4.5463622450059304E-011
  -3.4199999999999994E-002    -1.2487036404884577E-010
  -3.3099999999999991E-002    -1.0977034559100929E-010
  -3.1999999999999987E-002     1.4635608003299438E-010
  -3.0899999999999997E-002     6.9390920787171240E-010
  -2.9799999999999993E-002     1.5184301593862415E-009
  -2.8699999999999989E-002     2.4584252411585794E-009
  -2.7599999999999986E-002     3.2189768628398951E-009
  -2.6499999999999996E-002     3.4918326008437361E-009
  -2.5399999999999992E-002     3.0425306718484535E-009
  -2.4299999999999988E-002     1.6651947598589345E-009
  -2.3199999999999985E-002    -8.9591323249038624E-010
  -2.2099999999999995E-002    -4.8898631810345705E-009
  -2.0999999999999991E-002    -1.0389041626979179E-008
  -1.9899999999999987E-002    -1.7221722714566567E-008
  -1.8799999999999983E-002    -2.5130852066013176E-008
  -1.7699999999999994E-002    -3.4010259497563311E-008
  -1.6599999999999990E-002    -4.3995992626832958E-008
  -1.5499999999999986E-002    -5.5407383570127422E-008
  -1.4399999999999996E-002    -6.8721256241133233E-008
  -1.3299999999999992E-002    -8.4656782917136297E-008
  -1.2199999999999989E-002    -1.0424457741464721E-007
  -1.1099999999999985E-002    -1.2877217159257270E-007
  -9.9999999999999950E-003    -1.5969001765370194E-007
  -8.8999999999999913E-003    -1.9860765121393342E-007
  -7.7999999999999875E-003    -2.4732568704166624E-007
  -6.6999999999999837E-003    -3.0777584925090196E-007
  -5.5999999999999939E-003    -3.8194309581740526E-007
  -4.4999999999999901E-003    -4.7199955588439479E-007
  -3.3999999999999864E-003    -5.8066399333256413E-007
  -2.2999999999999826E-003    -7.1144120283861412E-007
  -1.1999999999999927E-003    -8.6852099911993719E-007
  -9.9999999999988987E-005    -1.0565568118181545E-006
   1.0000000000000148E-003    -1.2807659004465677E-006
   2.1000000000000185E-003    -1.5473508483410114E-006
   3.2000000000000084E-003    -1.8637225593920448E-006
   4.3000000000000121E-003    -2.2382860151992645E-006
   5.4000000000000159E-003    -2.6801287731359480E-006
   6.5000000000000058E-003    -3.1991285140975378E-006
   7.6000000000000234E-003    -3.8063787997089094E-006
   8.7000000000000133E-003    -4.5144906835048459E-006
   9.8000000000000032E-003    -5.3374460549093783E-006
   1.0900000000000021E-002    -6.2903332036512438E-006
   1.2000000000000011E-002    -7.3894238994398620E-006
   1.3100000000000001E-002    -8.6525105871260166E-006
   1.4200000000000018E-002    -1.0098967322846875E-005
   1.5300000000000008E-002    -1.1749659279303160E-005
   1.6400000000000026E-002    -1.3626902727992274E-005
   1.7500000000000016E-002    -1.5754329069750383E-005
   1.8600000000000005E-002    -1.8156688383896835E-005
   1.9700000000000023E-002    -2.0859355572611094E-005
   2.0800000000000013E-002    -2.3887807401479222E-005
   2.1900000000000003E-002    -2.7267689802101813E-005
   2.3000000000000020E-002    -3.1024545023683459E-005
   2.4100000000000010E-002    -3.5183595173293725E-005
   2.5200000000000000E-002    -3.9768743590684608E-005
   2.6300000000000018E-002    -4.4801225158153102E-005
   2.7400000000000008E-002    -5.0300008297199383E-005
   2.8500000000000025E-002    -5.6281482102349401E-005
   2.9600000000000015E-002    -6.2758910644333810E-005
   3.0700000000000005E-002    -6.9740941398777068E-005
   3.1800000000000023E-002    -7.7229735325090587E-005
   3.2900000000000013E-002    -8.5220366599969566E-005
   3.4000000000000002E-002    -9.3699993158224970E-005
   3.5100000000000020E-002    -1.0264717275276780E-004
   3.6200000000000010E-002    -1.1203010944882408E-004
   3.7300000000000028E-002    -1.2180591147625819E-004
   3.8400000000000017E-002    -1.3192096957936883E-004
   3.9500000000000007E-002    -1.4230984379537404E-004
   4.0600000000000025E-002    -1.5289294242393225E-004
   4.1700000000000015E-002    -1.6357650747522712E-004
   4.2800000000000005E-002    -1.7425406258553267E-004
   4.3900000000000022E-002    -1.8480536527931690E-004
   4.5000000000000012E-002    -1.9509713456500322E-004
   4.6100000000000002E-002    -2.0498124649748206E-004
   4.7200000000000020E-002    -2.1429515618365258E-004
   4.8300000000000010E-002    -2.2286589955911040E-004
   4.9400000000000027E-002    -2.3051085008773953E-004
   5.0500000000000017E-002    -2.3703652550466359E-004
   5.1600000000000007E-002    -2.4224267690442502E-004
   5.2700000000000025E-002    -2.4592565023340285E-004
   5.3800000000000014E-002    -2.4788366863504052E-004
   5.4900000000000004E-002    -2.4791510077193379E-004
   5.6000000000000022E-002    -2.4581974139437079E-004
   5.7100000000000012E-002    -2.4140746972989291E-004
   5.8200000000000002E-002    -2.3450329899787903E-004
   5.9300000000000019E-002    -2.2494998120237142E-004
   6.0400000000000009E-002    -2.1261071378830820E-004
   6.1500000000000027E-002    -1.9737365073524415E-004
   6.2600000000000017E-002    -1.7915361968334764E-004
   6.3700000000000007E-002    -1.5790073666721582E-004
   6.4800000000000024E-002    -1.3360164302866906E-004
   6.5900000000000014E-002    -1.0628184099914506E-004
   6.7000000000000004E-002    -7.6013093348592520E-005
   6.8100000000000022E-002    -4.2912783101201057E-005
   6.9200000000000012E-002    -7.1406484494218603E-006
   7.0300000000000029E-002     3.1098665203899145E-005
   7.1400000000000019E-002     7.1551497967448086E-005
   7.2500000000000009E-002     1.1391352018108591E-004
   7.3600000000000027E-002     1.5783427807036787E-004
   7.4700000000000016E-002     2.0292426052037627E-004
   7.5800000000000006E-002     2.4876123643480241E-004
   7.6900000000000024E-002     2.9489057487808168E-004
   7.8000000000000014E-002     3.4082491765730083E-004
   7.9100000000000004E-002     3.8604988367296755E-004
   8.0200000000000021E-002     4.3003767495974898E-004
   8.1300000000000011E-002     4.7225860180333257E-004
   8.2400000000000029E-002     5.1218550652265549E-004
   8.3500000000000019E-002     5.4929772159084678E-004
   8.4600000000000009E-002     5.8308953884989023E-004
   8.5700000000000026E-002     6.1308057047426701E-004
   8.6800000000000016E-002     6.3882517861202359E-004
   8.7900000000000006E-002     6.5992178861051798E-004
   8.9000000000000024E-002     6.7602068884298205E-004
   9.0100000000000013E-002     6.8683177232742310E-004
   9.1200000000000003E-002     6.9212645757943392E-004
   9.2300000000000021E-002     6.9173809606581926E-004
   9.3400000000000011E-002     6.8557076156139374E-004
   9.4500000000000028E-002     6.7360309185460210E-004
   9.5600000000000018E-002     6.5589771838858724E-004
   9.6700000000000008E-002     6.3259602757170796E-004
   9.7800000000000026E-002     6.0391216538846493E-004
   9.8900000000000016E-002     5.7012180332094431E-004
  0.10000000000000001          5.3156306967139244E-004
  0.10110000000000002          4.8864516429603100E-004
  0.10220000000000001          4.4184323633089662E-004
  0.10330000000000003          3.9168715011328459E-004
  0.10440000000000002          3.3873334177769721E-004
  0.10550000000000001          2.8356316033750772E-004
  0.10660000000000003          2.2678499226458371E-004
  0.10770000000000002          1.6902404604479671E-004
  0.10880000000000001          1.1091497435700148E-004
  0.10990000000000003          5.3084193496033549E-005
  0.11100000000000002         -3.8575972212129273E-006
  0.11210000000000001         -5.9328318457119167E-005
  0.11320000000000002         -1.1278658348601311E-004
  0.11430000000000001         -1.6373027756344527E-004
  0.11540000000000003         -2.1169595129322261E-004
  0.11650000000000002         -2.5626699789427221E-004
  0.11760000000000001         -2.9708698275499046E-004
  0.11870000000000003         -3.3386365976184607E-004
  0.11980000000000002         -3.6638410529121757E-004
  0.12090000000000001         -3.9449232281185687E-004
  0.12200000000000003         -4.1808569221757352E-004
  0.12310000000000001         -4.3711569742299616E-004
  0.12420000000000003         -4.5159884029999375E-004
  0.12530000000000002         -4.6161783393472433E-004
  0.12640000000000001         -4.6731528709642589E-004
  0.12750000000000003         -4.6887656208127737E-004
  0.12860000000000002         -4.6652436139993370E-004
  0.12970000000000001         -4.6051261597312987E-004
  0.13080000000000003         -4.5112735824659467E-004
  0.13190000000000002         -4.3868302600458264E-004
  0.13300000000000001         -4.2351710726507008E-004
  0.13410000000000000         -4.0598234045319259E-004
  0.13520000000000004         -3.8643408333882689E-004
  0.13630000000000003         -3.6521948641166091E-004
  0.13740000000000002         -3.4267595037817955E-004
  0.13850000000000001         -3.1913668499328196E-004
  0.13960000000000000         -2.9493149486370385E-004
  0.14070000000000005         -2.7037569088861346E-004
  0.14180000000000004         -2.4575463612563908E-004
  0.14290000000000003         -2.2132121375761926E-004
  0.14400000000000002         -1.9730393250938505E-004
  0.14510000000000001         -1.7391385335940868E-004
  0.14620000000000000         -1.5134057321120054E-004
  0.14730000000000004         -1.2974117998965085E-004
  0.14840000000000003         -1.0924041998805478E-004
  0.14950000000000002         -8.9936474978458136E-005
  0.15060000000000001         -7.1906717494130135E-005
  0.15170000000000000         -5.5205211538122967E-005
  0.15280000000000005         -3.9861133700469509E-005
  0.15390000000000004         -2.5883402486215346E-005
  0.15500000000000003         -1.3266711903270334E-005
  0.15610000000000002         -1.9897952370229177E-006
  0.15720000000000001          7.9869814726407640E-006
  0.15830000000000000          1.6718673577997833E-005
  0.15940000000000004          2.4265509637189098E-005
  0.16050000000000003          3.0688261176692322E-005
  0.16160000000000002          3.6055334931006655E-005
  0.16270000000000001          4.0448045183438808E-005
  0.16380000000000000          4.3952713895123452E-005
  0.16490000000000005          4.6648940042359754E-005
  0.16600000000000004          4.8607900680508465E-005
  0.16710000000000003          4.9904345360118896E-005
  0.16820000000000002          5.0620416004676372E-005
  0.16930000000000001          5.0835620641009882E-005
  0.17040000000000000          5.0615861255209893E-005
  0.17150000000000004          5.0016373279504478E-005
  0.17260000000000003          4.9095386202679947E-005
  0.17370000000000002          4.7916288167471066E-005
  0.17480000000000001          4.6536795707652345E-005
  0.17590000000000000          4.4998363591730595E-005
  0.17700000000000005          4.3332383938832209E-005
  0.17810000000000004          4.1573435737518594E-005
  0.17920000000000003          3.9759106584824622E-005
  0.18030000000000002          3.7919478927506134E-005
  0.18140000000000001          3.6073321098228917E-005
  0.18250000000000000          3.4237706131534651E-005
  0.18360000000000004          3.2433767046313733E-005
  0.18470000000000003          3.0678809707751498E-005
  0.18580000000000002          2.8977437978028320E-005
  0.18690000000000001          2.7328733267495409E-005
  0.18800000000000000          2.5741021090652794E-005
  0.18910000000000005          2.4231820134446025E-005
  0.19020000000000004          2.2810163500253111E-005
  0.19130000000000003          2.1466084945132025E-005
  0.19240000000000002          2.0184515960863791E-005
  0.19350000000000001          1.8965689378092065E-005
  0.19460000000000005          1.7822789232013747E-005
  0.19570000000000004          1.6762651284807362E-005
  0.19680000000000003          1.5775327483424917E-005
  0.19790000000000002          1.4846804333501495E-005
  0.19900000000000001          1.3973847671877593E-005
  0.20010000000000000          1.3160716662241612E-005
  0.20120000000000005          1.2405462257447653E-005
  0.20230000000000004          1.1699501555995084E-005
  0.20340000000000003          1.1039783203159459E-005
  0.20450000000000002          1.0431208465888631E-005
  0.20560000000000000          9.8733062259270810E-006
  0.20670000000000005          9.3522212409880012E-006
  0.20780000000000004          8.8534170572529547E-006
  0.20890000000000003          8.3793138401233591E-006
