 -0.12000000000000000          0.0000000000000000
 -0.11889999999999999          0.0000000000000000
 -0.11780000000000000          0.0000000000000000
 -0.11670000000000000         -2.6561612391276908E-040
 -0.11559999999999999         -1.6396096381098534E-014
 -0.11449999999999999          2.1678988357080875E-014
 -0.11340000000000000          1.2450508831383933E-013
 -0.11230000000000000         -1.4876008682263714E-013
 -0.11119999999999999         -7.5565866498178424E-013
 -0.11009999999999999          1.9396071933904663E-013
 -0.10900000000000000          3.1764740577450157E-012
 -0.10790000000000000          2.0208446461361662E-012
 -0.10679999999999999         -8.5105152092257441E-012
 -0.10569999999999999         -1.4544766432922351E-011
 -0.10460000000000000          8.3655591134879081E-012
 -0.10349999999999999          4.6377127832508691E-011
 -0.10239999999999999          3.1755844481784479E-011
 -0.10130000000000000         -6.6460267844625776E-011
 -0.10020000000000000         -1.4168191619923221E-010
  -9.9099999999999994E-002    -3.8163673610203119E-011
  -9.7999999999999990E-002     2.0275008061343414E-010
  -9.6899999999999986E-002     2.9167257498130539E-010
  -9.5799999999999996E-002     3.1752742796209432E-011
  -9.4699999999999993E-002    -3.4510536095488931E-010
  -9.3599999999999989E-002    -3.9535866247497609E-010
  -9.2499999999999999E-002    -5.2329581640142564E-011
  -9.1399999999999995E-002     2.5030427730499127E-010
  -9.0299999999999991E-002     1.9362203507178322E-010
  -8.9200000000000002E-002     5.4075046523882619E-011
  -8.8099999999999984E-002     2.4755386629493614E-010
  -8.6999999999999994E-002     5.6479776411322291E-010
  -8.5899999999999990E-002     3.5876840387416564E-010
  -8.4799999999999986E-002    -4.5047221508554003E-010
  -8.3699999999999997E-002    -1.0953492557419509E-009
  -8.2599999999999993E-002    -9.6010510652888570E-010
  -8.1499999999999989E-002    -3.4732711151619355E-010
  -8.0399999999999999E-002     2.2505228236546770E-010
  -7.9299999999999995E-002     9.2577728816323201E-010
  -7.8199999999999992E-002     1.8414293423418826E-009
  -7.7100000000000002E-002     1.5221577331914204E-009
  -7.5999999999999984E-002    -2.3157871176238132E-009
  -7.4899999999999994E-002    -1.0041577347408293E-008
  -7.3799999999999991E-002    -1.9254615679642484E-008
  -7.2699999999999987E-002    -2.7822284920375751E-008
  -7.1599999999999997E-002    -3.6855002605307163E-008
  -7.0499999999999993E-002    -4.8887738302028083E-008
  -6.9399999999999989E-002    -6.3468455380188971E-008
  -6.8300000000000000E-002    -7.7072890292129159E-008
  -6.7199999999999996E-002    -8.8544979348625930E-008
  -6.6099999999999992E-002    -1.0255885030119316E-007
  -6.5000000000000002E-002    -1.2546379934974539E-007
  -6.3899999999999985E-002    -1.5878876524766383E-007
  -6.2799999999999995E-002    -1.9951447427501989E-007
  -6.1699999999999991E-002    -2.4643509277666453E-007
  -6.0599999999999994E-002    -3.0301072229121928E-007
  -5.9499999999999990E-002    -3.7302081068446569E-007
  -5.8399999999999994E-002    -4.5698197936872020E-007
  -5.7299999999999990E-002    -5.5577288549102377E-007
  -5.6199999999999986E-002    -6.7517612478695810E-007
  -5.5099999999999996E-002    -8.2239847642995301E-007
  -5.3999999999999992E-002    -9.9919111562485341E-007
  -5.2899999999999989E-002    -1.2042108892273973E-006
  -5.1799999999999985E-002    -1.4437683830692549E-006
  -5.0699999999999995E-002    -1.7342935052511166E-006
  -4.9599999999999991E-002    -2.0892605334665859E-006
  -4.8499999999999988E-002    -2.5078963972191559E-006
  -4.7399999999999998E-002    -2.9845689368812600E-006
  -4.6299999999999994E-002    -3.5290679534227820E-006
  -4.5199999999999990E-002    -4.1695598156366032E-006
  -4.4099999999999986E-002    -4.9321311053063255E-006
  -4.2999999999999997E-002    -5.8245868785888888E-006
  -4.1899999999999993E-002    -6.8469544203253463E-006
  -4.0799999999999989E-002    -8.0130412243306637E-006
  -3.9699999999999985E-002    -9.3523931354866363E-006
  -3.8599999999999995E-002    -1.0892681530094706E-005
  -3.7499999999999992E-002    -1.2651196811930276E-005
  -3.6399999999999988E-002    -1.4646810086560436E-005
  -3.5299999999999984E-002    -1.6909056284930557E-005
  -3.4199999999999994E-002    -1.9466675439616665E-005
  -3.3099999999999991E-002    -2.2335467292577960E-005
  -3.1999999999999987E-002    -2.5531548089929856E-005
  -3.0899999999999997E-002    -2.9093926059431396E-005
  -2.9799999999999993E-002    -3.3076867111958563E-005
  -2.8699999999999989E-002    -3.7513498682528734E-005
  -2.7599999999999986E-002    -4.2401214159326628E-005
  -2.6499999999999996E-002    -4.7735436965012923E-005
  -2.5399999999999992E-002    -5.3549203585134819E-005
  -2.4299999999999988E-002    -5.9899401094298810E-005
  -2.3199999999999985E-002    -6.6816479375120252E-005
  -2.2099999999999995E-002    -7.4284427682869136E-005
  -2.0999999999999991E-002    -8.2278624176979065E-005
  -1.9899999999999987E-002    -9.0801811893470585E-005
  -1.8799999999999983E-002    -9.9868062534369528E-005
  -1.7699999999999994E-002    -1.0946306429104879E-004
  -1.6599999999999990E-002    -1.1954052024520934E-004
  -1.5499999999999986E-002    -1.3005669461563230E-004
  -1.4399999999999996E-002    -1.4097731036599725E-004
  -1.3299999999999992E-002    -1.5224062371999025E-004
  -1.2199999999999989E-002    -1.6373785911127925E-004
  -1.1099999999999985E-002    -1.7535011284053326E-004
  -9.9999999999999950E-003    -1.8699311476666480E-004
  -8.8999999999999913E-003    -1.9858960877172649E-004
  -7.7999999999999875E-003    -2.1000414562877268E-004
  -6.6999999999999837E-003    -2.2102924413047731E-004
  -5.5999999999999939E-003    -2.3145908198785037E-004
  -4.4999999999999901E-003    -2.4114019470289350E-004
  -3.3999999999999864E-003    -2.4993219994939864E-004
  -2.2999999999999826E-003    -2.5763499434106052E-004
  -1.1999999999999927E-003    -2.6398932095617056E-004
  -9.9999999999988987E-005    -2.6875690673477948E-004
   1.0000000000000148E-003    -2.7175151626579463E-004
   2.1000000000000185E-003    -2.7278356719762087E-004
   3.2000000000000084E-003    -2.7161175967194140E-004
   4.3000000000000121E-003    -2.6799013721756637E-004
   5.4000000000000159E-003    -2.6174401864409447E-004
   6.5000000000000058E-003    -2.5275518419221044E-004
   7.6000000000000234E-003    -2.4087329802569002E-004
   8.7000000000000133E-003    -2.2590448497794569E-004
   9.8000000000000032E-003    -2.0770178525708616E-004
   1.0900000000000021E-002    -1.8624191579874605E-004
   1.2000000000000011E-002    -1.6156985657289624E-004
   1.3100000000000001E-002    -1.3369756925385445E-004
   1.4200000000000018E-002    -1.0261420538881794E-004
   1.5300000000000008E-002    -6.8392684624996036E-005
   1.6400000000000026E-002    -3.1235405913321301E-005
   1.7500000000000016E-002     8.6011241364758462E-006
   1.8600000000000005E-002     5.0890212150989100E-005
   1.9700000000000023E-002     9.5389499620068818E-005
   2.0800000000000013E-002     1.4173022645991296E-004
   2.1900000000000003E-002     1.8944354087579995E-004
   2.3000000000000020E-002     2.3807073011994362E-004
   2.4100000000000010E-002     2.8721682610921562E-004
   2.5200000000000000E-002     3.3643539063632488E-004
   2.6300000000000018E-002     3.8513750769197941E-004
   2.7400000000000008E-002     4.3267171713523567E-004
   2.8500000000000025E-002     4.7848050598986447E-004
   2.9600000000000015E-002     5.2210263675078750E-004
   3.0700000000000005E-002     5.6303571909666061E-004
   3.1800000000000023E-002     6.0066860169172287E-004
   3.2900000000000013E-002     6.3440413214266300E-004
   3.4000000000000002E-002     6.6379271447658539E-004
   3.5100000000000020E-002     6.8848853698000312E-004
   3.6200000000000010E-002     7.0810772012919188E-004
   3.7300000000000028E-002     7.2223070310428739E-004
   3.8400000000000017E-002     7.3055556276813149E-004
   3.9500000000000007E-002     7.3297345079481602E-004
   4.0600000000000025E-002     7.2944490239024162E-004
   4.1700000000000015E-002     7.1986991679295897E-004
   4.2800000000000005E-002     7.0416904054582119E-004
   4.3900000000000022E-002     6.8246084265410900E-004
   4.5000000000000012E-002     6.5506331156939268E-004
   4.6100000000000002E-002     6.2231306219473481E-004
   4.7200000000000020E-002     5.8445957256481051E-004
   4.8300000000000010E-002     5.4180686129257083E-004
   4.9400000000000027E-002     4.9486622447147965E-004
   5.0500000000000017E-002     4.4428042019717395E-004
   5.1600000000000007E-002     3.9063132135197520E-004
   5.2700000000000025E-002     3.3441095729358494E-004
   5.3800000000000014E-002     2.7619302272796631E-004
   5.4900000000000004E-002     2.1671492140740156E-004
   5.6000000000000022E-002     1.5673266898375005E-004
   5.7100000000000012E-002     9.6844378276728094E-005
   5.8200000000000002E-002     3.7547877582255751E-005
   5.9300000000000019E-002    -2.0561290511977859E-005
   6.0400000000000009E-002    -7.6763652032241225E-005
   6.1500000000000027E-002    -1.3043828948866576E-004
   6.2600000000000017E-002    -1.8119372543878853E-004
   6.3700000000000007E-002    -2.2872438421472907E-004
   6.4800000000000024E-002    -2.7261322247795761E-004
   6.5900000000000014E-002    -3.1239874078892171E-004
   6.7000000000000004E-002    -3.4779839916154742E-004
   6.8100000000000022E-002    -3.7875748239457607E-004
   6.9200000000000012E-002    -4.0523632196709514E-004
   7.0300000000000029E-002    -4.2708005639724433E-004
   7.1400000000000019E-002    -4.4416668242774904E-004
   7.2500000000000009E-002    -4.5660493196919560E-004
   7.3600000000000027E-002    -4.6467210631817579E-004
   7.4700000000000016E-002    -4.6856590779498219E-004
   7.5800000000000006E-002    -4.6835071407258511E-004
   7.6900000000000024E-002    -4.6417649718932807E-004
   7.8000000000000014E-002    -4.5643188059329987E-004
   7.9100000000000004E-002    -4.4558633817359805E-004
   8.0200000000000021E-002    -4.3194895260967314E-004
   8.1300000000000011E-002    -4.1570540633983910E-004
   8.2400000000000029E-002    -3.9716096944175661E-004
   8.3500000000000019E-002    -3.7680854438804090E-004
   8.4600000000000009E-002    -3.5510733141563833E-004
   8.5700000000000026E-002    -3.3230971894226968E-004
   8.6800000000000016E-002    -3.0860039987601340E-004
   8.7900000000000006E-002    -2.8432565159164369E-004
   8.9000000000000024E-002    -2.5994729367084801E-004
   9.0100000000000013E-002    -2.3577934189233929E-004
   9.1200000000000003E-002    -2.1191203268244863E-004
   9.2300000000000021E-002    -1.8844199075829238E-004
   9.3400000000000011E-002    -1.6565952682867646E-004
   9.4500000000000028E-002    -1.4390164869837463E-004
   9.5600000000000018E-002    -1.2329392484389246E-004
   9.6700000000000008E-002    -1.0376948921475559E-004
   9.7800000000000026E-002    -8.5340696386992931E-005
   9.8900000000000016E-002    -6.8202876718714833E-005
  0.10000000000000001         -5.2523217163980007E-005
  0.10110000000000002         -3.8242207665462047E-005
  0.10220000000000001         -2.5200703021255322E-005
  0.10330000000000003         -1.3389579180511646E-005
  0.10440000000000002         -2.9393431759672239E-006
  0.10550000000000001          6.1350938267423771E-006
  0.10660000000000003          1.4033756997378077E-005
  0.10770000000000002          2.0950608814018779E-005
  0.10880000000000001          2.6867468477576040E-005
  0.10990000000000003          3.1682073313277215E-005
  0.11100000000000002          3.5472286981530488E-005
  0.11210000000000001          3.8495589251397178E-005
  0.11320000000000002          4.0917300793807954E-005
  0.11430000000000001          4.2683157516876236E-005
  0.11540000000000003          4.3722298869397491E-005
  0.11650000000000002          4.4167285523144528E-005
  0.11760000000000001          4.4254386011743918E-005
  0.11870000000000003          4.4060881918994710E-005
  0.11980000000000002          4.3488471419550478E-005
  0.12090000000000001          4.2512274376349524E-005
  0.12200000000000003          4.1307710489491001E-005
  0.12310000000000001          4.0056114812614396E-005
  0.12420000000000003          3.8732807297492400E-005
  0.12530000000000002          3.7205889384495094E-005
  0.12640000000000001          3.5494529583957046E-005
  0.12750000000000003          3.3790216548368335E-005
  0.12860000000000002          3.2207874028244987E-005
  0.12970000000000001          3.0648461688542739E-005
  0.13080000000000003          2.8983480660826899E-005
  0.13190000000000002          2.7274603780824691E-005
  0.13300000000000001          2.5695941076264717E-005
  0.13410000000000000          2.4283011953230016E-005
  0.13520000000000004          2.2894855646882206E-005
  0.13630000000000003          2.1445113816298544E-005
  0.13740000000000002          2.0042296455358155E-005
  0.13850000000000001          1.8825721781468019E-005
  0.13960000000000000          1.7751997802406549E-005
  0.14070000000000005          1.6662928828736767E-005
  0.14180000000000004          1.5528052244917490E-005
  0.14290000000000003          1.4488264241663273E-005
  0.14400000000000002          1.3636792573379353E-005
  0.14510000000000001          1.2875970242021140E-005
  0.14620000000000000          1.2065829650964588E-005
  0.14730000000000004          1.1232770702918060E-005
  0.14840000000000003          1.0519494026084431E-005
  0.14950000000000002          9.9594344646902755E-006
  0.15060000000000001          9.4244896899908781E-006
  0.15170000000000000          8.8216129370266572E-006
  0.15280000000000005          8.2313445091131143E-006
  0.15390000000000004          7.7759641499142163E-006
  0.15500000000000003          7.4243357630621176E-006
  0.15610000000000002          7.0360524659918156E-006
  0.15720000000000001          6.5734534473449457E-006
  0.15830000000000000          6.1555747379316017E-006
  0.15940000000000004          5.8733512560138479E-006
  0.16050000000000003          5.6498120102332905E-006
  0.16160000000000002          5.3570356612908654E-006
  0.16270000000000001          5.0060630201187450E-006
  0.16380000000000000          4.7221656132023782E-006
  0.16490000000000005          4.5503543333325069E-006
  0.16600000000000004          4.3905051825277042E-006
  0.16710000000000003          4.1539105950505473E-006
  0.16820000000000002          3.8944795051065739E-006
  0.16930000000000001          3.7171082567510894E-006
  0.17040000000000000          3.6122787605563644E-006
  0.17150000000000004          3.4734400742308935E-006
  0.17260000000000003          3.2646712497808039E-006
  0.17370000000000002          3.0753994906262960E-006
  0.17480000000000001          2.9795476166327717E-006
  0.17590000000000000          2.9193411137384828E-006
  0.17700000000000005          2.7923924790229648E-006
  0.17810000000000004          2.6070113108289661E-006
  0.17920000000000003          2.4676066914253170E-006
  0.18030000000000002          2.4164257865777472E-006
  0.18140000000000001          2.3721620436845114E-006
  0.18250000000000000          2.2546762465935899E-006
  0.18360000000000004          2.1017806375311920E-006
  0.18470000000000003          2.0054712877026759E-006
  0.18580000000000002          1.9726701339095598E-006
  0.18690000000000001          1.9215849533793516E-006
  0.18800000000000000          1.8100848819813109E-006
  0.18910000000000005          1.6944530898399535E-006
  0.19020000000000004          1.6344054074579617E-006
  0.19130000000000003          1.5987270671757869E-006
  0.19240000000000002          1.5166546063483111E-006
  0.19350000000000001          1.3896475365982042E-006
  0.19460000000000005          1.2879150972366915E-006
  0.19570000000000004          1.2392217740853084E-006
  0.19680000000000003          1.1833569715236081E-006
  0.19790000000000002          1.0610601748339832E-006
  0.19900000000000001          9.0004607500304701E-007
  0.20010000000000000          7.6907093671252369E-007
  0.20120000000000005          6.7298140038474230E-007
  0.20230000000000004          5.4669436622134526E-007
  0.20340000000000003          3.5054517866228707E-007
  0.20450000000000002          1.1995611259862926E-007
  0.20560000000000000         -9.9950746346166852E-008
  0.20670000000000005         -3.2833895602379926E-007
  0.20780000000000004         -6.2055937632976566E-007
  0.20890000000000003         -9.8861130481964210E-007
