 -0.12000000000000000          0.0000000000000000
 -0.11889999999999999          0.0000000000000000
 -0.11780000000000000          0.0000000000000000
 -0.11670000000000000          0.0000000000000000
 -0.11559999999999999          0.0000000000000000
 -0.11449999999999999          0.0000000000000000
 -0.11340000000000000          0.0000000000000000
 -0.11230000000000000          0.0000000000000000
 -0.11119999999999999          0.0000000000000000
 -0.11009999999999999          0.0000000000000000
 -0.10900000000000000          0.0000000000000000
 -0.10790000000000000          0.0000000000000000
 -0.10679999999999999          0.0000000000000000
 -0.10569999999999999          0.0000000000000000
 -0.10460000000000000          0.0000000000000000
 -0.10349999999999999          0.0000000000000000
 -0.10239999999999999          0.0000000000000000
 -0.10130000000000000          8.7372360549116669E-041
 -0.10020000000000000         -1.3908952245256696E-039
  -9.9099999999999994E-002     6.3197818052863158E-039
  -9.7999999999999990E-002     1.3530905741655754E-038
  -9.6899999999999986E-002    -1.8106559731762029E-037
  -9.5799999999999996E-002     1.0931597703562957E-037
  -9.4699999999999993E-002     2.6626455515895688E-036
  -9.3599999999999989E-002    -3.9958352605127916E-036
  -9.2499999999999999E-002    -2.9495053108957962E-035
  -9.1399999999999995E-002     5.4106564299003916E-035
  -9.0299999999999991E-002     2.8228064201257170E-034
  -8.9200000000000002E-002    -4.9113568243996005E-034
  -8.8099999999999984E-002    -2.4500354883028763E-033
  -8.6999999999999994E-002     3.2310585469021745E-033
  -8.5899999999999990E-002     1.9282465498791189E-032
  -8.4799999999999986E-002    -1.3873794116099126E-032
  -8.3699999999999997E-002    -1.3467857419320201E-031
  -8.2599999999999993E-002     7.0792876275005439E-033
  -8.1499999999999989E-002     8.1077644573955027E-031
  -8.0399999999999999E-002     5.3403573521698727E-031
  -7.9299999999999995E-002    -4.0412626855846117E-030
  -7.8199999999999992E-002    -6.0495144741904417E-030
  -7.7100000000000002E-002     1.5387378286388109E-029
  -7.5999999999999984E-002     4.3040137720103550E-029
  -7.4899999999999994E-002    -3.3347573283562208E-029
  -7.3799999999999991E-002    -2.2751783212436603E-028
  -7.2699999999999987E-002    -7.3391586928165607E-029
  -7.1599999999999997E-002     8.9952878798188837E-028
  -7.0499999999999993E-002     1.2210278365688468E-027
  -6.9399999999999989E-002    -2.3506862824950576E-027
  -6.8300000000000000E-002    -7.2753975801490887E-027
  -6.7199999999999996E-002     1.0803703356789444E-027
  -6.6099999999999992E-002     2.8146797454342761E-026
  -6.5000000000000002E-002     2.7526272070724926E-026
  -6.3899999999999985E-002    -6.7843800460092118E-026
  -6.2799999999999995E-002    -1.7226682225029803E-025
  -6.1699999999999991E-002     2.6997226818721530E-026
  -6.0599999999999994E-002     5.9450367267156800E-025
  -5.9499999999999990E-002     6.1972464049522843E-025
  -5.8399999999999994E-002    -1.1094579214073571E-024
  -5.7299999999999990E-002    -3.2302081103915949E-024
  -5.6199999999999986E-002    -6.4326060142533677E-025
  -5.5099999999999996E-002     8.6069994350459264E-024
  -5.3999999999999992E-002     1.2517670087595982E-023
  -5.2899999999999989E-002    -8.2880148505498529E-024
  -5.1799999999999985E-002    -4.4519664953291785E-023
  -5.0699999999999995E-002    -3.4456936313630833E-023
  -4.9599999999999991E-002     7.1907511410154022E-023
  -4.8499999999999988E-002     1.8037399261187061E-022
  -4.7399999999999998E-002     5.4532490252088456E-023
  -4.6299999999999994E-002    -3.6871633864713833E-022
  -4.5199999999999990E-002    -6.1462099403394391E-022
  -4.4099999999999986E-002     4.6967872684539849E-023
  -4.2999999999999997E-002     1.4654910112183372E-021
  -4.1899999999999993E-002     1.8647015822612479E-021
  -4.0799999999999989E-002    -6.7264515935738333E-022
  -3.9699999999999985E-002    -4.9037140793218796E-021
  -3.8599999999999995E-002    -5.3731200937968996E-021
  -3.7499999999999992E-002     2.5210108332884718E-021
  -3.6399999999999988E-002     1.4352158776814696E-020
  -3.5299999999999984E-002     1.5697141528128848E-020
  -3.4199999999999994E-002    -4.8019296665059429E-021
  -3.3099999999999991E-002    -3.7193846663671575E-020
  -3.1999999999999987E-002    -4.7783322392695938E-020
  -3.0899999999999997E-002    -4.6137323446594911E-021
  -2.9799999999999993E-002     8.3212372757137093E-020
  -2.8699999999999989E-002     1.4621917884204724E-019
  -2.7599999999999986E-002     8.5385628257906784E-020
  -2.6499999999999996E-002    -1.4169948982445164E-019
  -2.5399999999999992E-002    -4.1784142008897113E-019
  -2.4299999999999988E-002    -4.4558404970762813E-019
  -2.3199999999999985E-002     6.7234681292033522E-020
  -2.2099999999999995E-002     1.0197737983567851E-018
  -2.0999999999999991E-002     1.6366842720182206E-018
  -1.9899999999999987E-002     8.0438025784740430E-019
  -1.8799999999999983E-002    -1.8127938161653275E-018
  -1.7699999999999994E-002    -4.6456957150524882E-018
  -1.6599999999999990E-002    -4.5247726628451987E-018
  -1.5499999999999986E-002     8.5958287980916659E-019
  -1.4399999999999996E-002     9.7221440797307404E-018
  -1.3299999999999992E-002     1.5263424521681635E-017
  -1.2199999999999989E-002     9.3279379239287942E-018
  -1.1099999999999985E-002    -1.0540266237395700E-017
  -9.9999999999999950E-003    -3.5328000533245605E-017
  -8.8999999999999913E-003    -4.5425182512443601E-017
  -7.7999999999999875E-003    -2.0663679768178977E-017
  -6.6999999999999837E-003     4.2963132358738717E-017
  -5.5999999999999939E-003     1.1818910116879349E-016
  -4.4999999999999901E-003     1.4611568479553917E-016
  -3.3999999999999864E-003     6.2950012949726807E-017
  -2.2999999999999826E-003    -1.4690804441302616E-016
  -1.1999999999999927E-003    -3.9762773215749013E-016
  -9.9999999999988987E-005    -4.9734227712305889E-016
   1.0000000000000148E-003    -2.3487400417216136E-016
   2.1000000000000185E-003     4.4985162792979282E-016
   3.2000000000000084E-003     1.2979864062297934E-015
   4.3000000000000121E-003     1.7106258121438959E-015
   5.4000000000000159E-003     9.9630270481272870E-016
   6.5000000000000058E-003    -1.1249291047762673E-015
   7.6000000000000234E-003    -3.9871009732727128E-015
   8.7000000000000133E-003    -5.8213753845073705E-015
   9.8000000000000032E-003    -4.3668601483611794E-015
   1.0900000000000021E-002     1.6991588918622040E-015
   1.2000000000000011E-002     1.1063666530228972E-014
   1.3100000000000001E-002     1.8930405406756244E-014
   1.4200000000000018E-002     1.8214300036224935E-014
   1.5300000000000008E-002     3.2195970082273028E-015
   1.6400000000000026E-002    -2.5259518597869207E-014
   1.7500000000000016E-002    -5.6121567218762533E-014
   1.8600000000000005E-002    -6.8897612495819743E-014
   1.9700000000000023E-002    -4.1805697358759941E-014
   2.0800000000000013E-002     3.4091575184603054E-014
   2.1900000000000003E-002     1.4036012207108844E-013
   2.3000000000000020E-002     2.2576043682068225E-013
   2.4100000000000010E-002     2.1904811406577018E-013
   2.5200000000000000E-002     6.2692283005552629E-014
   2.6300000000000018E-002    -2.4159754058450389E-013
   2.7400000000000008E-002    -5.9720945636693168E-013
   2.8500000000000025E-002    -8.1451810357222043E-013
   2.9600000000000015E-002    -6.7051610574617171E-013
   3.0700000000000005E-002    -2.2923579606260770E-014
   3.1800000000000023E-002     1.0582425777685978E-012
   3.2900000000000013E-002     2.2083190311106282E-012
   3.4000000000000002E-002     2.8079940716380092E-012
   3.5100000000000020E-002     2.1872764016661606E-012
   3.6200000000000010E-002    -3.4517592099490499E-014
   3.7300000000000028E-002    -3.5873430961896879E-012
   3.8400000000000017E-002    -7.3472538816843347E-012
   3.9500000000000007E-002    -9.4718295706730515E-012
   4.0600000000000025E-002    -7.9644372694143151E-012
   4.1700000000000015E-002    -1.5850231283726091E-012
   4.2800000000000005E-002     9.1780194555468597E-012
   4.3900000000000022E-002     2.1508220551802459E-011
   4.5000000000000012E-002     3.0469481104855589E-011
   4.6100000000000002E-002     3.0261335104420084E-011
   4.7200000000000020E-002     1.6384334861063721E-011
   4.8300000000000010E-002    -1.1866247567882127E-011
   4.9400000000000027E-002    -4.9502967697234723E-011
   5.0500000000000017E-002    -8.5532067539695333E-011
   5.1600000000000007E-002    -1.0488893781301911E-010
   5.2700000000000025E-002    -9.2614145519309687E-011
   5.3800000000000014E-002    -3.9413299013357772E-011
   5.4900000000000004E-002     5.2986913468000552E-011
   5.6000000000000022E-002     1.6859229290400179E-010
   5.7100000000000012E-002     2.7762636634065530E-010
   5.8200000000000002E-002     3.4149646999104277E-010
   5.9300000000000019E-002     3.2173519404210538E-010
   6.0400000000000009E-002     1.9113946536641890E-010
   6.1500000000000027E-002    -5.5550057609377035E-011
   6.2600000000000017E-002    -3.9428829645693497E-010
   6.3700000000000007E-002    -7.6993894593258005E-010
   6.4800000000000024E-002    -1.1010552469770118E-009
   6.5900000000000014E-002    -1.2906445912008735E-009
   6.7000000000000004E-002    -1.2408664096241750E-009
   6.8100000000000022E-002    -8.6859996972776798E-010
   6.9200000000000012E-002    -1.1850513625955017E-010
   7.0300000000000029E-002     1.0295559960127321E-009
   7.1400000000000019E-002     2.5608488662953732E-009
   7.2500000000000009E-002     4.4347561178881278E-009
   7.3600000000000027E-002     6.6016134780966240E-009
   7.4700000000000016E-002     9.0249168138711866E-009
   7.5800000000000006E-002     1.1705053815092015E-008
   7.6900000000000024E-002     1.4699809369744798E-008
   7.8000000000000014E-002     1.8137557233899315E-008
   7.9100000000000004E-002     2.2220230988523326E-008
   8.0200000000000021E-002     2.7216197295842903E-008
   8.1300000000000011E-002     3.3446212910348549E-008
   8.2400000000000029E-002     4.1267615102924537E-008
   8.3500000000000019E-002     5.1063487660485407E-008
   8.4600000000000009E-002     6.3243270176371880E-008
   8.5700000000000026E-002     7.8256199742554600E-008
   8.6800000000000016E-002     9.6618144596050115E-008
   8.7900000000000006E-002     1.1894513107790772E-007
   8.9000000000000024E-002     1.4598639097584964E-007
   9.0100000000000013E-002     1.7865095003344322E-007
   9.1200000000000003E-002     2.1802286198635557E-007
   9.2300000000000021E-002     2.6536747554928297E-007
   9.3400000000000011E-002     3.2213640110967390E-007
   9.4500000000000028E-002     3.8997717410893529E-007
   9.5600000000000018E-002     4.7075889142433880E-007
   9.6700000000000008E-002     5.6660798009033897E-007
   9.7800000000000026E-002     6.7995347308169585E-007
   9.8900000000000016E-002     8.1357580938856700E-007
  0.10000000000000001          9.7065208137792069E-007
  0.10110000000000002          1.1547745089046657E-006
  0.10220000000000001          1.3699693681701319E-006
  0.10330000000000003          1.6206977306865156E-006
  0.10440000000000002          1.9118635918857763E-006
  0.10550000000000001          2.2488045487989439E-006
  0.10660000000000003          2.6373345463071018E-006
  0.10770000000000002          3.0837643407721771E-006
  0.10880000000000001          3.5949290122516686E-006
  0.10990000000000003          4.1781768231885508E-006
  0.11100000000000002          4.8413799049740192E-006
  0.11210000000000001          5.5928503570612520E-006
  0.11320000000000002          6.4413025029352866E-006
  0.11430000000000001          7.3957221502496395E-006
  0.11540000000000003          8.4652965597342700E-006
  0.11650000000000002          9.6593130365363322E-006
  0.11760000000000001          1.0986991583195049E-005
  0.11870000000000003          1.2457360753614921E-005
  0.11980000000000002          1.4079108950681984E-005
  0.12090000000000001          1.5860410712775774E-005
  0.12200000000000003          1.7808566553867422E-005
  0.12310000000000001          1.9929731934098527E-005
  0.12420000000000003          2.2228678062674589E-005
  0.12530000000000002          2.4708420824026689E-005
  0.12640000000000001          2.7369949748390354E-005
  0.12750000000000003          3.0211804187274538E-005
  0.12860000000000002          3.3229876862606034E-005
  0.12970000000000001          3.6416986404219642E-005
  0.13080000000000003          3.9762508095009252E-005
  0.13190000000000002          4.3251962779322639E-005
  0.13300000000000001          4.6866814955137670E-005
  0.13410000000000000          5.0584254495333880E-005
  0.13520000000000004          5.4376250773202628E-005
  0.13630000000000003          5.8210258430335671E-005
  0.13740000000000002          6.2048842664808035E-005
  0.13850000000000001          6.5849199017975479E-005
  0.13960000000000000          6.9564004661515355E-005
  0.14070000000000005          7.3140690801665187E-005
  0.14180000000000004          7.6521995652001351E-005
  0.14290000000000003          7.9646626545581967E-005
  0.14400000000000002          8.2449565525166690E-005
  0.14510000000000001          8.4862200310453773E-005
  0.14620000000000000          8.6813823145348579E-005
  0.14730000000000004          8.8231863628607243E-005
  0.14840000000000003          8.9044508058577776E-005
  0.14950000000000002          8.9178873167838901E-005
  0.15060000000000001          8.8564724137540907E-005
  0.15170000000000000          8.7134962086565793E-005
  0.15280000000000005          8.4827392129227519E-005
  0.15390000000000004          8.1585538282524794E-005
  0.15500000000000003          7.7359916758723557E-005
  0.15610000000000002          7.2110597102437168E-005
  0.15720000000000001          6.5807740611489862E-005
  0.15830000000000000          5.8432648074813187E-005
  0.15940000000000004          4.9982896598521620E-005
  0.16050000000000003          4.0466107748216018E-005
  0.16160000000000002          2.9907392672612332E-005
  0.16270000000000001          1.8346891010878608E-005
  0.16380000000000000          5.8417181207914837E-006
  0.16490000000000005         -7.5341085903346539E-006
  0.16600000000000004         -2.1690879293601029E-005
  0.16710000000000003         -3.6522596928989515E-005
  0.16820000000000002         -5.1906929002143443E-005
  0.16930000000000001         -6.7707544076256454E-005
  0.17040000000000000         -8.3774684753734618E-005
  0.17150000000000004         -9.9945827969349921E-005
  0.17260000000000003         -1.1605047620832920E-004
  0.17370000000000002         -1.3191012840252370E-004
  0.17480000000000001         -1.4734209980815649E-004
  0.17590000000000000         -1.6216047515626997E-004
  0.17700000000000005         -1.7618050333112478E-004
  0.17810000000000004         -1.8921952869277447E-004
  0.17920000000000003         -2.0110233162995428E-004
  0.18030000000000002         -2.1166342776268721E-004
  0.18140000000000001         -2.2074962907936424E-004
  0.18250000000000000         -2.2822270693723112E-004
  0.18360000000000004         -2.3396176402457058E-004
  0.18470000000000003         -2.3786621750332415E-004
  0.18580000000000002         -2.3985828738659620E-004
  0.18690000000000001         -2.3988384054973722E-004
  0.18800000000000000         -2.3791349667590111E-004
  0.18910000000000005         -2.3394334129989147E-004
  0.19020000000000004         -2.2799483849667013E-004
  0.19130000000000003         -2.2011660621501505E-004
  0.19240000000000002         -2.1038389240857214E-004
  0.19350000000000001         -1.9889610121026635E-004
  0.19460000000000005         -1.8577506125438958E-004
  0.19570000000000004         -1.7116431263275445E-004
  0.19680000000000003         -1.5522562898695469E-004
  0.19790000000000002         -1.3813811528962106E-004
  0.19900000000000001         -1.2009418423986062E-004
  0.20010000000000000         -1.0129794100066647E-004
  0.20120000000000005         -8.1959857197944075E-005
  0.20230000000000004         -6.2294726376421750E-005
  0.20340000000000003         -4.2516909161349759E-005
  0.20450000000000002         -2.2836713469587266E-005
  0.20560000000000000         -3.4616407447174424E-006
  0.20670000000000005          1.5410183550557122E-005
  0.20780000000000004          3.3592685213079676E-005
  0.20890000000000003          5.0913396989926696E-005
