 -0.12000000000000000          0.0000000000000000
 -0.11889999999999999          0.0000000000000000
 -0.11780000000000000          0.0000000000000000
 -0.11670000000000000          0.0000000000000000
 -0.11559999999999999          0.0000000000000000
 -0.11449999999999999          0.0000000000000000
 -0.11340000000000000          0.0000000000000000
 -0.11230000000000000          0.0000000000000000
 -0.11119999999999999          0.0000000000000000
 -0.11009999999999999          2.4000252904485224E-024
 -0.10900000000000000         -1.3332594957125496E-023
 -0.10790000000000000         -2.2150799277769865E-023
 -0.10679999999999999          2.2310097115804765E-022
 -0.10569999999999999          1.7721213712954893E-022
 -0.10460000000000000         -2.1391645927606390E-021
 -0.10349999999999999         -2.0389634553359172E-021
 -0.10239999999999999          1.4471801082015115E-020
 -0.10130000000000000          2.1805800881586200E-020
 -0.10020000000000000         -6.8965337003950523E-020
  -9.9099999999999994E-002    -1.7179189399412743E-019
  -9.7999999999999990E-002     1.9025066200779553E-019
  -9.6899999999999986E-002     9.6671533194033682E-019
  -9.5799999999999996E-002     1.4037748718452997E-019
  -9.4699999999999993E-002    -3.7453369152487318E-018
  -9.3599999999999989E-002    -4.5490806059159883E-018
  -9.2499999999999999E-002     8.3685573058775416E-018
  -9.1399999999999995E-002     2.4897787367627636E-017
  -9.0299999999999991E-002     2.0418109696646684E-018
  -8.9200000000000002E-002    -7.3402227465277462E-017
  -8.8099999999999984E-002    -9.4268877503442250E-017
  -8.6999999999999994E-002     8.6430659602677569E-017
  -8.5899999999999990E-002     3.5334535260084774E-016
  -8.4799999999999986E-002     2.3068915848691268E-016
  -8.3699999999999997E-002    -5.3541693749773172E-016
  -8.2599999999999993E-002    -1.2087288271052138E-015
  -8.1499999999999989E-002    -4.7744891426340359E-016
  -8.0399999999999999E-002     1.7436676145042205E-015
  -7.9299999999999995E-002     3.3463728529593275E-015
  -7.8199999999999992E-002     1.8757055455419442E-015
  -7.7100000000000002E-002    -2.7436606301098993E-015
  -7.5999999999999984E-002    -8.1821205830090969E-015
  -7.4899999999999994E-002    -1.1101894821204453E-014
  -7.3799999999999991E-002    -5.6434912658039158E-015
  -7.2699999999999987E-002     1.6435271654909045E-014
  -7.1599999999999997E-002     5.1355936240811764E-014
  -7.0499999999999993E-002     6.1798886862897418E-014
  -6.9399999999999989E-002    -9.1977639087438383E-015
  -6.8300000000000000E-002    -1.6187123527428710E-013
  -6.7199999999999996E-002    -2.6758936321098770E-013
  -6.6099999999999992E-002    -1.3148091285424685E-013
  -6.5000000000000002E-002     2.9113159365906638E-013
  -6.3899999999999985E-002     7.3013475690789087E-013
  -6.2799999999999995E-002     7.3568310731547681E-013
  -6.1699999999999991E-002     6.6426647982089498E-014
  -6.0599999999999994E-002    -1.0373296189039594E-012
  -5.9499999999999990E-002    -1.9627708746500216E-012
  -5.8399999999999994E-002    -2.0493366118673473E-012
  -5.7299999999999990E-002    -8.2077893743745522E-013
  -5.6199999999999986E-002     1.8077354934156742E-012
  -5.5099999999999996E-002     5.0855951394535026E-012
  -5.3999999999999992E-002     7.0806806598544547E-012
  -5.2899999999999989E-002     5.3764401784783811E-012
  -5.1799999999999985E-002    -1.0103194322819142E-012
  -5.0699999999999995E-002    -1.0081615230139729E-011
  -4.9599999999999991E-002    -1.7582166625396134E-011
  -4.8499999999999988E-002    -1.9545554411082300E-011
  -4.7399999999999998E-002    -1.3909932233824307E-011
  -4.6299999999999994E-002     1.6937116314487410E-013
  -4.5199999999999990E-002     2.2812193106735990E-011
  -4.4099999999999986E-002     5.0620688196723052E-011
  -4.2999999999999997E-002     7.2553039964784460E-011
  -4.1899999999999993E-002     7.0975558763564095E-011
  -4.0799999999999989E-002     3.0996774591507403E-011
  -3.9699999999999985E-002    -4.7768292793515243E-011
  -3.8599999999999995E-002    -1.4639944811989380E-010
  -3.7499999999999992E-002    -2.3152867123510390E-010
  -3.6399999999999988E-002    -2.6450719392556721E-010
  -3.5299999999999984E-002    -2.1055449050955133E-010
  -3.4199999999999994E-002    -4.9907585009112410E-011
  -3.3099999999999991E-002     2.0773770204041142E-010
  -3.1999999999999987E-002     5.1289411606703084E-010
  -3.0899999999999997E-002     7.8018119742395697E-010
  -2.9799999999999993E-002     9.0634544314127652E-010
  -2.8699999999999989E-002     7.9278250630920866E-010
  -2.7599999999999986E-002     3.6855787866052481E-010
  -2.6499999999999996E-002    -3.7981398581798942E-010
  -2.5399999999999992E-002    -1.3729909431603460E-009
  -2.4299999999999988E-002    -2.4199207082631347E-009
  -2.3199999999999985E-002    -3.2392786231127957E-009
  -2.2099999999999995E-002    -3.5146880961178795E-009
  -2.0999999999999991E-002    -2.9500311082841790E-009
  -1.9899999999999987E-002    -1.3049303859702377E-009
  -1.8799999999999983E-002     1.5754815230195618E-009
  -1.7699999999999994E-002     5.7239510908857483E-009
  -1.6599999999999990E-002     1.1035689695404471E-008
  -1.5499999999999986E-002     1.7315798572781205E-008
  -1.4399999999999996E-002     2.4378266516578151E-008
  -1.3299999999999992E-002     3.2129626958976587E-008
  -1.2199999999999989E-002     4.0597814887632921E-008
  -1.1099999999999985E-002     4.9950251934660628E-008
  -9.9999999999999950E-003     6.0562605597169750E-008
  -8.8999999999999913E-003     7.3109823972572485E-008
  -7.7999999999999875E-003     8.8576278756136162E-008
  -6.6999999999999837E-003     1.0814443385243067E-007
  -5.5999999999999939E-003     1.3305688639775326E-007
  -4.4999999999999901E-003     1.6457212836940016E-007
  -3.3999999999999864E-003     2.0401976996708981E-007
  -2.2999999999999826E-003     2.5285584115408710E-007
  -1.1999999999999927E-003     3.1267279609892284E-007
  -9.9999999999988987E-005     3.8522324530276819E-007
   1.0000000000000148E-003     4.7251776891243935E-007
   2.1000000000000185E-003     5.7696354360814439E-007
   3.2000000000000084E-003     7.0149684461284778E-007
   4.3000000000000121E-003     8.4973612501926254E-007
   5.4000000000000159E-003     1.0261710485792719E-006
   6.5000000000000058E-003     1.2362643246888183E-006
   7.6000000000000234E-003     1.4863172737022978E-006
   8.7000000000000133E-003     1.7831736158768763E-006
   9.8000000000000032E-003     2.1341170395317022E-006
   1.0900000000000021E-002     2.5471508706687018E-006
   1.2000000000000011E-002     3.0314017749333289E-006
   1.3100000000000001E-002     3.5971941088064341E-006
   1.4200000000000018E-002     4.2558112909318879E-006
   1.5300000000000008E-002     5.0194098548672628E-006
   1.6400000000000026E-002     5.9014196267526131E-006
   1.7500000000000016E-002     6.9171301220194437E-006
   1.8600000000000005E-002     8.0838153735385276E-006
   1.9700000000000023E-002     9.4202323452918790E-006
   2.0800000000000013E-002     1.0946067050099373E-005
   2.1900000000000003E-002     1.2681770385825075E-005
   2.3000000000000020E-002     1.4648719115939457E-005
   2.4100000000000010E-002     1.6869253158802167E-005
   2.5200000000000000E-002     1.9366450942470692E-005
   2.6300000000000018E-002     2.2163929315865971E-005
   2.7400000000000008E-002     2.5285615265602246E-005
   2.8500000000000025E-002     2.8755255698342808E-005
   2.9600000000000015E-002     3.2595926313661039E-005
   3.0700000000000005E-002     3.6829929740633816E-005
   3.1800000000000023E-002     4.1478600905975327E-005
   3.2900000000000013E-002     4.6561737690353766E-005
   3.4000000000000002E-002     5.2095780119998381E-005
   3.5100000000000020E-002     5.8092267863685265E-005
   3.6200000000000010E-002     6.4557360019534826E-005
   3.7300000000000028E-002     7.1492220740765333E-005
   3.8400000000000017E-002     7.8893186582718045E-005
   3.9500000000000007E-002     8.6749823822174221E-005
   4.0600000000000025E-002     9.5042436441872269E-005
   4.1700000000000015E-002     1.0374069097451866E-004
   4.2800000000000005E-002     1.1280381295364350E-004
   4.3900000000000022E-002     1.2218199844937772E-004
   4.5000000000000012E-002     1.3181573012843728E-004
   4.6100000000000002E-002     1.4163245214149356E-004
   4.7200000000000020E-002     1.5154539141803980E-004
   4.8300000000000010E-002     1.6145376139320433E-004
   4.9400000000000027E-002     1.7124268924817443E-004
   5.0500000000000017E-002     1.8078545690514147E-004
   5.1600000000000007E-002     1.8994396668858826E-004
   5.2700000000000025E-002     1.9856852304656059E-004
   5.3800000000000014E-002     2.0649845828302205E-004
   5.4900000000000004E-002     2.1356008073780686E-004
   5.6000000000000022E-002     2.1957006538286805E-004
   5.7100000000000012E-002     2.2433944104705006E-004
   5.8200000000000002E-002     2.2767817426938564E-004
   5.9300000000000019E-002     2.2939978225622326E-004
   6.0400000000000009E-002     2.2931715648155659E-004
   6.1500000000000027E-002     2.2724457085132599E-004
   6.2600000000000017E-002     2.2300168348010629E-004
   6.3700000000000007E-002     2.1641989587806165E-004
   6.4800000000000024E-002     2.0735616271849722E-004
   6.5900000000000014E-002     1.9569025607779622E-004
   6.7000000000000004E-002     1.8132128752768040E-004
   6.8100000000000022E-002     1.6416962898802012E-004
   6.9200000000000012E-002     1.4418560022022575E-004
   7.0300000000000029E-002     1.2135778524680063E-004
   7.1400000000000019E-002     9.5720308308955282E-005
   7.2500000000000009E-002     6.7349501478020102E-005
   7.3600000000000027E-002     3.6357625504024327E-005
   7.4700000000000016E-002     2.8999393180129118E-006
   7.5800000000000006E-002    -3.2828327675815672E-005
   7.6900000000000024E-002    -7.0586676883976907E-005
   7.8000000000000014E-002    -1.1008582805516198E-004
   7.9100000000000004E-002    -1.5099298616405576E-004
   8.0200000000000021E-002    -1.9293738296255469E-004
   8.1300000000000011E-002    -2.3551662161480635E-004
   8.2400000000000029E-002    -2.7830287581309676E-004
   8.3500000000000019E-002    -3.2084525446407497E-004
   8.4600000000000009E-002    -3.6266533425077796E-004
   8.5700000000000026E-002    -4.0326506132259965E-004
   8.6800000000000016E-002    -4.4214143417775631E-004
   8.7900000000000006E-002    -4.7880172496661544E-004
   8.9000000000000024E-002    -5.1277171587571502E-004
   9.0100000000000013E-002    -5.4359476780518889E-004
   9.1200000000000003E-002    -5.7082774583250284E-004
   9.2300000000000021E-002    -5.9405405772849917E-004
   9.3400000000000011E-002    -6.1290315352380276E-004
   9.4500000000000028E-002    -6.2706274911761284E-004
   9.5600000000000018E-002    -6.3627894269302487E-004
   9.6700000000000008E-002    -6.4035214018076658E-004
   9.7800000000000026E-002    -6.3913984922692180E-004
   9.8900000000000016E-002    -6.3256366411224008E-004
  0.10000000000000001         -6.2061840435490012E-004
  0.10110000000000002         -6.0337159084156156E-004
  0.10220000000000001         -5.8096525026485324E-004
  0.10330000000000003         -5.5361358681693673E-004
  0.10440000000000002         -5.2159669576212764E-004
  0.10550000000000001         -4.8524219891987741E-004
  0.10660000000000003         -4.4493036693893373E-004
  0.10770000000000002         -4.0110043482854962E-004
  0.10880000000000001         -3.5424777888692915E-004
  0.10990000000000003         -3.0491000507026911E-004
  0.11100000000000002         -2.5364069733768702E-004
  0.11210000000000001         -2.0099664106965065E-004
  0.11320000000000002         -1.4754413859918714E-004
  0.11430000000000001         -9.3865572125650942E-005
  0.11540000000000003         -4.0545481169829145E-005
  0.11650000000000002          1.1849927432194818E-005
  0.11760000000000001          6.2790561059955508E-005
  0.11870000000000003          1.1178472050232813E-004
  0.11980000000000002          1.5837872342672199E-004
  0.12090000000000001          2.0215820404700935E-004
  0.12200000000000003          2.4275292525999248E-004
  0.12310000000000001          2.7984366170130670E-004
  0.12420000000000003          3.1316635431721807E-004
  0.12530000000000002          3.4252385376021266E-004
  0.12640000000000001          3.6779011134058237E-004
  0.12750000000000003          3.8889286224730313E-004
  0.12860000000000002          4.0580501081421971E-004
  0.12970000000000001          4.1854308801703155E-004
  0.13080000000000003          4.2718122131191194E-004
  0.13190000000000002          4.3185599497519433E-004
  0.13300000000000001          4.3275710777379572E-004
  0.13410000000000000          4.3009861838072538E-004
  0.13520000000000004          4.2411411413922906E-004
  0.13630000000000003          4.1506413253955543E-004
  0.13740000000000002          4.0324471774511039E-004
  0.13850000000000001          3.8897298509255052E-004
  0.13960000000000000          3.7256797077134252E-004
  0.14070000000000005          3.5434711026027799E-004
  0.14180000000000004          3.3463141880929470E-004
  0.14290000000000003          3.1374214449897408E-004
  0.14400000000000002          2.9198778793215752E-004
  0.14510000000000001          2.6965659344568849E-004
  0.14620000000000000          2.4702225346118212E-004
  0.14730000000000004          2.2434863785747439E-004
  0.14840000000000003          2.0187944755889475E-004
  0.14950000000000002          1.7982449207920581E-004
  0.15060000000000001          1.5836201782803982E-004
  0.15170000000000000          1.3765413314104080E-004
  0.15280000000000005          1.1785056994995102E-004
  0.15390000000000004          9.9072960438206792E-005
  0.15500000000000003          8.1402940850239247E-005
  0.15610000000000002          6.4896070398390293E-005
  0.15720000000000001          4.9601454520598054E-005
  0.15830000000000000          3.5560133255785331E-005
  0.15940000000000004          2.2785419787396677E-005
  0.16050000000000003          1.1256183825025801E-005
  0.16160000000000002          9.3607337703360827E-007
  0.16270000000000001         -8.2067863331758417E-006
  0.16380000000000000         -1.6202604456339031E-005
  0.16490000000000005         -2.3101760234567337E-005
  0.16600000000000004         -2.8977137844776735E-005
  0.16710000000000003         -3.3903914300026372E-005
  0.16820000000000002         -3.7946989323245361E-005
  0.16930000000000001         -4.1171664634020999E-005
  0.17040000000000000         -4.3656993511831388E-005
  0.17150000000000004         -4.5484426664188504E-005
  0.17260000000000003         -4.6721310354769230E-005
  0.17370000000000002         -4.7424276999663562E-005
  0.17480000000000001         -4.7658468247391284E-005
  0.17590000000000000         -4.7503508540103212E-005
  0.17700000000000005         -4.7029683628352359E-005
  0.17810000000000004         -4.6280230890261009E-005
  0.17920000000000003         -4.5286480599315837E-005
  0.18030000000000002         -4.4096472265664488E-005
  0.18140000000000001         -4.2771633161464706E-005
  0.18250000000000000         -4.1359140595886856E-005
  0.18360000000000004         -3.9878275856608525E-005
  0.18470000000000003         -3.8343026972142980E-005
  0.18580000000000002         -3.6782963434234262E-005
  0.18690000000000001         -3.5234454117016867E-005
  0.18800000000000000         -3.3716303732944652E-005
  0.18910000000000005         -3.2228115742327645E-005
  0.19020000000000004         -3.0774168408242986E-005
  0.19130000000000003         -2.9375451049418189E-005
  0.19240000000000002         -2.8051106710336171E-005
  0.19350000000000001         -2.6798339604283683E-005
  0.19460000000000005         -2.5603358153603040E-005
  0.19570000000000004         -2.4466593458782881E-005
  0.19680000000000003         -2.3403697923640721E-005
  0.19790000000000002         -2.2420090317609720E-005
  0.19900000000000001         -2.1499121430679224E-005
  0.20010000000000000         -2.0623632735805586E-005
  0.20120000000000005         -1.9797245840891264E-005
  0.20230000000000004         -1.9032751879421994E-005
  0.20340000000000003         -1.8324344637221657E-005
  0.20450000000000002         -1.7647380445851013E-005
  0.20560000000000000         -1.6987152775982395E-005
  0.20670000000000005         -1.6353735190932639E-005
  0.20780000000000004         -1.5759653251734562E-005
  0.20890000000000003         -1.5193589206319302E-005
