 -0.12000000000000000          0.0000000000000000
 -0.11889999999999999          0.0000000000000000
 -0.11780000000000000          0.0000000000000000
 -0.11670000000000000         -6.8713791236938865E-040
 -0.11559999999999999         -1.6396099769230323E-014
 -0.11449999999999999          2.1678957863894774E-014
 -0.11340000000000000          1.2450515607647511E-013
 -0.11230000000000000         -1.4876010037516429E-013
 -0.11119999999999999         -7.5565877340200149E-013
 -0.11009999999999999          1.9396101749464406E-013
 -0.10900000000000000          3.1764738409045812E-012
 -0.10790000000000000          2.0208446461361662E-012
 -0.10679999999999999         -8.5105160765874821E-012
 -0.10569999999999999         -1.4544763830837137E-011
 -0.10460000000000000          8.3655582461261702E-012
 -0.10349999999999999          4.6377124363061739E-011
 -0.10239999999999999          3.1755841012337527E-011
 -0.10130000000000000         -6.6460267844625776E-011
 -0.10020000000000000         -1.4168190232144440E-010
  -9.9099999999999994E-002    -3.8163694426884831E-011
  -9.7999999999999990E-002     2.0275002510228290E-010
  -9.6899999999999986E-002     2.9167257498130539E-010
  -9.5799999999999996E-002     3.1752801776807615E-011
  -9.4699999999999993E-002    -3.4510527768816246E-010
  -9.3599999999999989E-002    -3.9535852369709801E-010
  -9.2499999999999999E-002    -5.2329390820560207E-011
  -9.1399999999999995E-002     2.5030399974923512E-010
  -9.0299999999999991E-002     1.9362141057133186E-010
  -8.9200000000000002E-002     5.4074911215451493E-011
  -8.8099999999999984E-002     2.4755431038414599E-010
  -8.6999999999999994E-002     5.6479920740315492E-010
  -8.5899999999999990E-002     3.5876868142992180E-010
  -8.4799999999999986E-002    -4.5047360286432081E-010
  -8.3699999999999997E-002    -1.0953510320987903E-009
  -8.2599999999999993E-002    -9.6010666084112017E-010
  -8.1499999999999989E-002    -3.4732622333777385E-010
  -8.0399999999999999E-002     2.2505579344578308E-010
  -7.9299999999999995E-002     9.2578172905533052E-010
  -7.8199999999999992E-002     1.8414226810037349E-009
  -7.7100000000000002E-002     1.5221401916676314E-009
  -7.5999999999999984E-002    -2.3158186479577125E-009
  -7.4899999999999994E-002    -1.0041549813877282E-008
  -7.3799999999999991E-002    -1.9254573047078338E-008
  -7.2699999999999987E-002    -2.7822256498666320E-008
  -7.1599999999999997E-002    -3.6855027474302915E-008
  -7.0499999999999993E-002    -4.8887862647006841E-008
  -6.9399999999999989E-002    -6.3468533539889904E-008
  -6.8300000000000000E-002    -7.7073025295248954E-008
  -6.7199999999999996E-002    -8.8544901188924996E-008
  -6.6099999999999992E-002    -1.0255873661435544E-007
  -6.5000000000000002E-002    -1.2546388461487368E-007
  -6.3899999999999985E-002    -1.5878890735621098E-007
  -6.2799999999999995E-002    -1.9951443164245575E-007
  -6.1699999999999991E-002    -2.4643497908982681E-007
  -6.0599999999999994E-002    -3.0301052333925327E-007
  -5.9499999999999990E-002    -3.7302032751540537E-007
  -5.8399999999999994E-002    -4.5698160988649761E-007
  -5.7299999999999990E-002    -5.5577390867256327E-007
  -5.6199999999999986E-002    -6.7517771640268620E-007
  -5.5099999999999996E-002    -8.2239864696020959E-007
  -5.3999999999999992E-002    -9.9918804608023493E-007
  -5.2899999999999989E-002    -1.2042097523590201E-006
  -5.1799999999999985E-002    -1.4437705431191716E-006
  -5.0699999999999995E-002    -1.7342937326247920E-006
  -4.9599999999999991E-002    -2.0892646261927439E-006
  -4.8499999999999988E-002    -2.5079002625716385E-006
  -4.7399999999999998E-002    -2.9845643894077512E-006
  -4.6299999999999994E-002    -3.5290661344333785E-006
  -4.5199999999999990E-002    -4.1695648178574629E-006
  -4.4099999999999986E-002    -4.9321247388434131E-006
  -4.2999999999999997E-002    -5.8245668697054498E-006
  -4.1899999999999993E-002    -6.8469553298200481E-006
  -4.0799999999999989E-002    -8.0130585047299974E-006
  -3.9699999999999985E-002    -9.3523940449813381E-006
  -3.8599999999999995E-002    -1.0892673344642390E-005
  -3.7499999999999992E-002    -1.2651177712541539E-005
  -3.6399999999999988E-002    -1.4646828276454471E-005
  -3.5299999999999984E-002    -1.6909089026739821E-005
  -3.4199999999999994E-002    -1.9466673620627262E-005
  -3.3099999999999991E-002    -2.2335427274811082E-005
  -3.1999999999999987E-002    -2.5531502615194768E-005
  -3.0899999999999997E-002    -2.9093915145494975E-005
  -2.9799999999999993E-002    -3.3076947147492319E-005
  -2.8699999999999989E-002    -3.7513636925723404E-005
  -2.7599999999999986E-002    -4.2401174141559750E-005
  -2.6499999999999996E-002    -4.7735313273733482E-005
  -2.5399999999999992E-002    -5.3549072617897764E-005
  -2.4299999999999988E-002    -5.9899488405790180E-005
  -2.3199999999999985E-002    -6.6816639446187764E-005
  -2.2099999999999995E-002    -7.4284595029894263E-005
  -2.0999999999999991E-002    -8.2278485933784395E-005
  -1.9899999999999987E-002    -9.0801288024522364E-005
  -1.8799999999999983E-002    -9.9867822427768260E-005
  -1.7699999999999994E-002    -1.0946323163807392E-004
  -1.6599999999999990E-002    -1.1954094952670857E-004
  -1.5499999999999986E-002    -1.3005698565393686E-004
  -1.4399999999999996E-002    -1.4097709208726883E-004
  -1.3299999999999992E-002    -1.5224020171444863E-004
  -1.2199999999999989E-002    -1.6373759717680514E-004
  -1.1099999999999985E-002    -1.7535065126139671E-004
  -9.9999999999999950E-003    -1.8699381325859576E-004
  -8.8999999999999913E-003    -1.9858991436194628E-004
  -7.7999999999999875E-003    -2.1000357810407877E-004
  -6.6999999999999837E-003    -2.2102870570961386E-004
  -5.5999999999999939E-003    -2.3145876184571534E-004
  -4.4999999999999901E-003    -2.4113983090501279E-004
  -3.3999999999999864E-003    -2.4993298575282097E-004
  -2.2999999999999826E-003    -2.5763569283299148E-004
  -1.1999999999999927E-003    -2.6398958289064467E-004
  -9.9999999999988987E-005    -2.6875612093135715E-004
   1.0000000000000148E-003    -2.7175102150067687E-004
   2.1000000000000185E-003    -2.7278318884782493E-004
   3.2000000000000084E-003    -2.7161321486346424E-004
   4.3000000000000121E-003    -2.6799261104315519E-004
   5.4000000000000159E-003    -2.6174631784670055E-004
   6.5000000000000058E-003    -2.5275393272750080E-004
   7.6000000000000234E-003    -2.4087043129839003E-004
   8.7000000000000133E-003    -2.2590323351323605E-004
   9.8000000000000032E-003    -2.0770197443198413E-004
   1.0900000000000021E-002    -1.8624267249833792E-004
   1.2000000000000011E-002    -1.6156923084054142E-004
   1.3100000000000001E-002    -1.3369614316616207E-004
   1.4200000000000018E-002    -1.0261211718898267E-004
   1.5300000000000008E-002    -6.8393164838198572E-005
   1.6400000000000026E-002    -3.1237832445185632E-005
   1.7500000000000016E-002     8.5996352936490439E-006
   1.8600000000000005E-002     5.0889404519693926E-005
   1.9700000000000023E-002     9.5387855253648013E-005
   2.0800000000000013E-002     1.4172976079862565E-004
   2.1900000000000003E-002     1.8944544717669487E-004
   2.3000000000000020E-002     2.3807384422980249E-004
   2.4100000000000010E-002     2.8721670969389379E-004
   2.5200000000000000E-002     3.3643192728050053E-004
   2.6300000000000018E-002     3.8513619801960886E-004
   2.7400000000000008E-002     4.3267593719065189E-004
   2.8500000000000025E-002     4.7848405665718019E-004
   2.9600000000000015E-002     5.2209972636774182E-004
   3.0700000000000005E-002     5.6302844313904643E-004
   3.1800000000000023E-002     6.0066633159294724E-004
   3.2900000000000013E-002     6.3440983649343252E-004
   3.4000000000000002E-002     6.6379946656525135E-004
   3.5100000000000020E-002     6.8848801311105490E-004
   3.6200000000000010E-002     7.0810067700222135E-004
   3.7300000000000028E-002     7.2222598828375340E-004
   3.8400000000000017E-002     7.3055777465924621E-004
   3.9500000000000007E-002     7.3297828203067183E-004
   4.0600000000000025E-002     7.2944682324305177E-004
   4.1700000000000015E-002     7.1986811235547066E-004
   4.2800000000000005E-002     7.0416770176962018E-004
   4.3900000000000022E-002     6.8246130831539631E-004
   4.5000000000000012E-002     6.5506302053108811E-004
   4.6100000000000002E-002     6.2231172341853380E-004
   4.7200000000000020E-002     5.8446294860914350E-004
   4.8300000000000010E-002     5.4181209998205304E-004
   4.9400000000000027E-002     4.9486738862469792E-004
   5.0500000000000017E-002     4.4427486136555672E-004
   5.1600000000000007E-002     3.9062570431269705E-004
   5.2700000000000025E-002     3.3441357663832605E-004
   5.3800000000000014E-002     2.7619765023700893E-004
   5.4900000000000004E-002     2.1671375725418329E-004
   5.6000000000000022E-002     1.5672584413550794E-004
   5.7100000000000012E-002     9.6840740297921002E-005
   5.8200000000000002E-002     3.7552781577687711E-005
   5.9300000000000019E-002    -2.0552432033582591E-005
   6.0400000000000009E-002    -7.6761331001762301E-005
   6.1500000000000027E-002    -1.3044397928752005E-004
   6.2600000000000017E-002    -1.8119960441254079E-004
   6.3700000000000007E-002    -2.2872346744406968E-004
   6.4800000000000024E-002    -2.7260850765742362E-004
   6.5900000000000014E-002    -3.1239644158631563E-004
   6.7000000000000004E-002    -3.4780340502038598E-004
   6.8100000000000022E-002    -3.7876373971812427E-004
   6.9200000000000012E-002    -4.0524083306081593E-004
   7.0300000000000029E-002    -4.2708087130449712E-004
   7.1400000000000019E-002    -4.4416106538847089E-004
   7.2500000000000009E-002    -4.5659445459023118E-004
   7.3600000000000027E-002    -4.6466299681924284E-004
   7.4700000000000016E-002    -4.6856762492097914E-004
   7.5800000000000006E-002    -4.6836381079629064E-004
   7.6900000000000024E-002    -4.6419003047049046E-004
   7.8000000000000014E-002    -4.5643316116183996E-004
   7.9100000000000004E-002    -4.4557545334100723E-004
   8.0200000000000021E-002    -4.3193946476094425E-004
   8.1300000000000011E-002    -4.1570808389224112E-004
   8.2400000000000029E-002    -3.9717226172797382E-004
   8.3500000000000019E-002    -3.7681503454223275E-004
   8.4600000000000009E-002    -3.5510037560015917E-004
   8.5700000000000026E-002    -3.3229458495043218E-004
   8.6800000000000016E-002    -3.0858986428938806E-004
   8.7900000000000006E-002    -2.8432783437892795E-004
   8.9000000000000024E-002    -2.5995881878770888E-004
   9.0100000000000013E-002    -2.3579002299811691E-004
   9.1200000000000003E-002    -2.1191409905441105E-004
   9.2300000000000021E-002    -1.8843649013433605E-004
   9.3400000000000011E-002    -1.6565258556511253E-004
   9.4500000000000028E-002    -1.4389985881280154E-004
   9.5600000000000018E-002    -1.2329740275163203E-004
   9.6700000000000008E-002    -1.0377336730016395E-004
   9.7800000000000026E-002    -8.5340834630187601E-005
   9.8900000000000016E-002    -6.8200934038031846E-005
  0.10000000000000001         -5.2522409532684833E-005
  0.10110000000000002         -3.8243364542722702E-005
  0.10220000000000001         -2.5201303287758492E-005
  0.10330000000000003         -1.3388666047831066E-005
  0.10440000000000002         -2.9377933969954029E-006
  0.10550000000000001          6.1360319705272559E-006
  0.10660000000000003          1.4033584193384741E-005
  0.10770000000000002          2.0949424651917070E-005
  0.10880000000000001          2.6866495318245143E-005
  0.10990000000000003          3.1682782719144598E-005
  0.11100000000000002          3.5475124605000019E-005
  0.11210000000000001          3.8497550121974200E-005
  0.11320000000000002          4.0914768760558218E-005
  0.11430000000000001          4.2676205339375883E-005
  0.11540000000000003          4.3717740481952205E-005
  0.11650000000000002          4.4172189518576488E-005
  0.11760000000000001          4.4265583710512146E-005
  0.11870000000000003          4.4066662667319179E-005
  0.11980000000000002          4.3481359170982614E-005
  0.12090000000000001          4.2499468690948561E-005
  0.12200000000000003          4.1302329918835312E-005
  0.12310000000000001          4.0062583138933405E-005
  0.12420000000000003          3.8742764445487410E-005
  0.12530000000000002          3.7208705180091783E-005
  0.12640000000000001          3.5489432775648311E-005
  0.12750000000000003          3.3784759580157697E-005
  0.12860000000000002          3.2207000913331285E-005
  0.12970000000000001          3.0650844564661384E-005
  0.13080000000000003          2.8985954486415721E-005
  0.13190000000000002          2.7276466425973922E-005
  0.13300000000000001          2.5697034288896248E-005
  0.13410000000000000          2.4281038349727169E-005
  0.13520000000000004          2.2889245883561671E-005
  0.13630000000000003          2.1441173885250464E-005
  0.13740000000000002          2.0045779820065945E-005
  0.13850000000000001          1.8833630747394636E-005
  0.13960000000000000          1.7755455701262690E-005
  0.14070000000000005          1.6659198081470095E-005
  0.14180000000000004          1.5523897673119791E-005
  0.14290000000000003          1.4489857676380780E-005
  0.14400000000000002          1.3640026736538857E-005
  0.14510000000000001          1.2872712431999389E-005
  0.14620000000000000          1.2057595995429438E-005
  0.14730000000000004          1.1230443305976223E-005
  0.14840000000000003          1.0528419807087630E-005
  0.14950000000000002          9.9700982900685631E-006
  0.15060000000000001          9.4243887360789813E-006
  0.15170000000000000          8.8119886640924960E-006
  0.15280000000000005          8.2251945059397258E-006
  0.15390000000000004          7.7804761531297117E-006
  0.15500000000000003          7.4323766057204921E-006
  0.15610000000000002          7.0372307163779624E-006
  0.15720000000000001          6.5673170865920838E-006
  0.15830000000000000          6.1496853049902711E-006
  0.15940000000000004          5.8717218962556217E-006
  0.16050000000000003          5.6505286920582876E-006
  0.16160000000000002          5.3591184041579254E-006
  0.16270000000000001          5.0117150749429129E-006
  0.16380000000000000          4.7296798584284261E-006
  0.16490000000000005          4.5517322178056929E-006
  0.16600000000000004          4.3816671677632257E-006
  0.16710000000000003          4.1432535908825230E-006
  0.16820000000000002          3.8942225728533231E-006
  0.16930000000000001          3.7269837775966153E-006
  0.17040000000000000          3.6190685932524502E-006
  0.17150000000000004          3.4683912417676765E-006
  0.17260000000000003          3.2548639410379110E-006
  0.17370000000000002          3.0731484912394080E-006
  0.17480000000000001          2.9856428227503784E-006
  0.17590000000000000          2.9239204195619095E-006
  0.17700000000000005          2.7905846309295157E-006
  0.17810000000000004          2.6048835479741683E-006
  0.17920000000000003          2.4709884201001842E-006
  0.18030000000000002          2.4205744466598844E-006
  0.18140000000000001          2.3693610273767263E-006
  0.18250000000000000          2.2471176635008305E-006
  0.18360000000000004          2.0996499188186135E-006
  0.18470000000000003          2.0123507056268863E-006
  0.18580000000000002          1.9800838799710618E-006
  0.18690000000000001          1.9208187040931080E-006
  0.18800000000000000          1.8035021867035539E-006
  0.18910000000000005          1.6903136383916717E-006
  0.19020000000000004          1.6350174973922549E-006
  0.19130000000000003          1.6000234381863265E-006
  0.19240000000000002          1.5172972780419514E-006
  0.19350000000000001          1.3927333384344820E-006
  0.19460000000000005          1.2927490615766146E-006
  0.19570000000000004          1.2387099559418857E-006
  0.19680000000000003          1.1743716186174424E-006
  0.19790000000000002          1.0525139941819361E-006
  0.19900000000000001          9.0347231207488221E-007
  0.20010000000000000          7.8230817734947777E-007
  0.20120000000000005          6.8107141260043136E-007
  0.20230000000000004          5.4053708709034254E-007
  0.20340000000000003          3.3846700375761429E-007
  0.20450000000000002          1.1642947583823116E-007
  0.20560000000000000         -9.2498069648172532E-008
  0.20670000000000005         -3.2041702979768161E-007
  0.20780000000000004         -6.2046973425822216E-007
  0.20890000000000003         -9.9358248917269520E-007
