 -0.12000000000000000          0.0000000000000000
 -0.11889999999999999          0.0000000000000000
 -0.11780000000000000         -2.8803398555155013E-010
 -0.11670000000000000         -3.7413230846716772E-010
 -0.11559999999999999          3.5014202648397941E-010
 -0.11449999999999999          9.4072993839233732E-010
 -0.11340000000000000          9.4344317080885531E-011
 -0.11230000000000000         -1.0913582260130283E-009
 -0.11119999999999999         -5.3995030668829713E-010
 -0.11009999999999999          4.0800393619200293E-010
 -0.10900000000000000         -1.7057468770786954E-009
 -0.10790000000000000         -5.1608433082606098E-009
 -0.10679999999999999         -2.5409652160135465E-009
 -0.10569999999999999          7.8289525973218588E-009
 -0.10460000000000000          1.4875270792913398E-008
 -0.10349999999999999          7.4609038946960027E-009
 -0.10239999999999999         -7.8668902503409299E-009
 -0.10130000000000000         -1.2319263831273020E-008
 -0.10020000000000000         -5.1224907648972362E-010
  -9.9099999999999994E-002     1.0257084070985911E-008
  -9.7999999999999990E-002     3.9317433753183195E-009
  -9.6899999999999986E-002    -1.0295726049491805E-008
  -9.5799999999999996E-002    -1.0654890303385400E-008
  -9.4699999999999993E-002     4.9943005286934294E-009
  -9.3599999999999989E-002     1.5762294580667913E-008
  -9.2499999999999999E-002     8.8268423681370223E-009
  -9.1399999999999995E-002    -2.6692235088887628E-009
  -9.0299999999999991E-002    -2.5359760957854860E-009
  -8.9200000000000002E-002     1.5046480728031497E-009
  -8.8099999999999984E-002    -9.5545784617456775E-009
  -8.6999999999999994E-002    -3.3973449831137259E-008
  -8.5899999999999990E-002    -5.0857085653888134E-008
  -8.4799999999999986E-002    -5.4565543194939892E-008
  -8.3699999999999997E-002    -6.5483490629958396E-008
  -8.2599999999999993E-002    -9.6673893779097853E-008
  -8.1499999999999989E-002    -1.2998594911550754E-007
  -8.0399999999999999E-002    -1.4490582600501511E-007
  -7.9299999999999995E-002    -1.5748186399378028E-007
  -7.8199999999999992E-002    -2.0287204449687124E-007
  -7.7100000000000002E-002    -2.8166053311906580E-007
  -7.5999999999999984E-002    -3.5502895912031818E-007
  -7.4899999999999994E-002    -4.0535400103181018E-007
  -7.3799999999999991E-002    -4.7338775743810402E-007
  -7.2699999999999987E-002    -6.0896417153344373E-007
  -7.1599999999999997E-002    -8.0216278774969396E-007
  -7.0499999999999993E-002    -9.9893566130049294E-007
  -6.9399999999999989E-002    -1.1834143833766575E-006
  -6.8300000000000000E-002    -1.4076401839702157E-006
  -6.7199999999999996E-002    -1.7256338651350234E-006
  -6.6099999999999992E-002    -2.1305775135260774E-006
  -6.5000000000000002E-002    -2.5860813366307411E-006
  -6.3899999999999985E-002    -3.0978635550127365E-006
  -6.2799999999999995E-002    -3.7148972751310794E-006
  -6.1699999999999991E-002    -4.4658095248450991E-006
  -6.0599999999999994E-002    -5.3392100198834669E-006
  -5.9499999999999990E-002    -6.3407392190129030E-006
  -5.8399999999999994E-002    -7.5280399869370740E-006
  -5.7299999999999990E-002    -8.9556533566792496E-006
  -5.6199999999999986E-002    -1.0613594895403367E-005
  -5.5099999999999996E-002    -1.2469046851038001E-005
  -5.3999999999999992E-002    -1.4561944226443302E-005
  -5.2899999999999989E-002    -1.7006896086968482E-005
  -5.1799999999999985E-002    -1.9883900677086785E-005
  -5.0699999999999995E-002    -2.3173810404841788E-005
  -4.9599999999999991E-002    -2.6839159545488656E-005
  -4.8499999999999988E-002    -3.0936917028157040E-005
  -4.7399999999999998E-002    -3.5597378882812336E-005
  -4.6299999999999994E-002    -4.0901712054619566E-005
  -4.5199999999999990E-002    -4.6839275455567986E-005
  -4.4099999999999986E-002    -5.3402545745484531E-005
  -4.2999999999999997E-002    -6.0669681261060759E-005
  -4.1899999999999993E-002    -6.8749322963412851E-005
  -4.0799999999999989E-002    -7.7679054811596870E-005
  -3.9699999999999985E-002    -8.7439257185906172E-005
  -3.8599999999999995E-002    -9.8054617410525680E-005
  -3.7499999999999992E-002    -1.0961783118546009E-004
  -3.6399999999999988E-002    -1.2218908523209393E-004
  -3.5299999999999984E-002    -1.3572990428656340E-004
  -3.4199999999999994E-002    -1.5017831174191087E-004
  -3.3099999999999991E-002    -1.6554999456275254E-004
  -3.1999999999999987E-002    -1.8190125410910696E-004
  -3.0899999999999997E-002    -1.9920016347896308E-004
  -2.9799999999999993E-002    -2.1730453590862453E-004
  -2.8699999999999989E-002    -2.3608305491507053E-004
  -2.7599999999999986E-002    -2.5549548445269465E-004
  -2.6499999999999996E-002    -2.7549921651370823E-004
  -2.5399999999999992E-002    -2.9592038481496274E-004
  -2.4299999999999988E-002    -3.1648491858504713E-004
  -2.3199999999999985E-002    -3.3696324680931866E-004
  -2.2099999999999995E-002    -3.5721401218324900E-004
  -2.0999999999999991E-002    -3.7705572322010994E-004
  -1.9899999999999987E-002    -3.9616326102986932E-004
  -1.8799999999999983E-002    -4.1414334555156529E-004
  -1.7699999999999994E-002    -4.3067429214715958E-004
  -1.6599999999999990E-002    -4.4549605809152126E-004
  -1.5499999999999986E-002    -4.5828311704099178E-004
  -1.4399999999999996E-002    -4.6860190923325717E-004
  -1.3299999999999992E-002    -4.7602385166101158E-004
  -1.2199999999999989E-002    -4.8021739348769188E-004
  -1.1099999999999985E-002    -4.8088034964166582E-004
  -9.9999999999999950E-003    -4.7762511530891061E-004
  -8.8999999999999913E-003    -4.7001792700029910E-004
  -7.7999999999999875E-003    -4.5772208250127733E-004
  -6.6999999999999837E-003    -4.4053519377484918E-004
  -5.5999999999999939E-003    -4.1826863889582455E-004
  -4.4999999999999901E-003    -3.9066327735781670E-004
  -3.3999999999999864E-003    -3.5747839137911797E-004
  -2.2999999999999826E-003    -3.1863397452980280E-004
  -1.1999999999999927E-003    -2.7419888647273183E-004
  -9.9999999999988987E-005    -2.2426813666243106E-004
   1.0000000000000148E-003    -1.6890656843315810E-004
   2.1000000000000185E-003    -1.0826056677615270E-004
   3.2000000000000084E-003    -4.2665313230827451E-005
   4.3000000000000121E-003     2.7418180252425373E-005
   5.4000000000000159E-003     1.0152950562769547E-004
   6.5000000000000058E-003     1.7919777019415051E-004
   7.6000000000000234E-003     2.5982188526540995E-004
   8.7000000000000133E-003     3.4263043198734522E-004
   9.8000000000000032E-003     4.2678348836489022E-004
   1.0900000000000021E-002     5.1148695638403296E-004
   1.2000000000000011E-002     5.9593870537355542E-004
   1.3100000000000001E-002     6.7922798916697502E-004
   1.4200000000000018E-002     7.6034077210351825E-004
   1.5300000000000008E-002     8.3828420611098409E-004
   1.6400000000000026E-002     9.1215188149362803E-004
   1.7500000000000016E-002     9.8105904180556536E-004
   1.8600000000000005E-002     1.0440769838169217E-003
   1.9700000000000023E-002     1.1002935934811831E-003
   2.0800000000000013E-002     1.1489258613437414E-003
   2.1900000000000003E-002     1.1893260525539517E-003
   2.3000000000000020E-002     1.2208926491439342E-003
   2.4100000000000010E-002     1.2430408969521523E-003
   2.5200000000000000E-002     1.2553024571388960E-003
   2.6300000000000018E-002     1.2574202846735716E-003
   2.7400000000000008E-002     1.2493050890043378E-003
   2.8500000000000025E-002     1.2309409212321043E-003
   2.9600000000000015E-002     1.2023738818243146E-003
   3.0700000000000005E-002     1.1637978022918105E-003
   3.1800000000000023E-002     1.1156063992530107E-003
   3.2900000000000013E-002     1.0583378607407212E-003
   3.4000000000000002E-002     9.9260010756552219E-004
   3.5100000000000020E-002     9.1908115427941084E-004
   3.6200000000000010E-002     8.3860522136092186E-004
   3.7300000000000028E-002     7.5210712384432554E-004
   3.8400000000000017E-002     6.6056824289262295E-004
   3.9500000000000007E-002     5.6498718913644552E-004
   4.0600000000000025E-002     4.6639417996630073E-004
   4.1700000000000015E-002     3.6591102252714336E-004
   4.2800000000000005E-002     2.6468356372788548E-004
   4.3900000000000022E-002     1.6379826411139220E-004
   4.5000000000000012E-002     6.4272957388311625E-005
   4.6100000000000002E-002    -3.2909450965235010E-005
   4.7200000000000020E-002    -1.2678817438427359E-004
   4.8300000000000010E-002    -2.1645812375936657E-004
   4.9400000000000027E-002    -3.0110395164228976E-004
   5.0500000000000017E-002    -3.8002125802449882E-004
   5.1600000000000007E-002    -4.5260635670274496E-004
   5.2700000000000025E-002    -5.1836384227499366E-004
   5.3800000000000014E-002    -5.7690514950081706E-004
   5.4900000000000004E-002    -6.2794564291834831E-004
   5.6000000000000022E-002    -6.7130511160939932E-004
   5.7100000000000012E-002    -7.0689845597371459E-004
   5.8200000000000002E-002    -7.3475355748087168E-004
   5.9300000000000019E-002    -7.5500539969652891E-004
   6.0400000000000009E-002    -7.6787889702245593E-004
   6.1500000000000027E-002    -7.7368045458570123E-004
   6.2600000000000017E-002    -7.7278987737372518E-004
   6.3700000000000007E-002    -7.6564628398045897E-004
   6.4800000000000024E-002    -7.5272325193509459E-004
   6.5900000000000014E-002    -7.3453324148431420E-004
   6.7000000000000004E-002    -7.1163882967084646E-004
   6.8100000000000022E-002    -6.8464584182947874E-004
   6.9200000000000012E-002    -6.5416033612564206E-004
   7.0300000000000029E-002    -6.2075501773506403E-004
   7.1400000000000019E-002    -5.8498425642028451E-004
   7.2500000000000009E-002    -5.4741738131269813E-004
   7.3600000000000027E-002    -5.0862575881183147E-004
   7.4700000000000016E-002    -4.6912714606150985E-004
   7.5800000000000006E-002    -4.2936613317579031E-004
   7.6900000000000024E-002    -3.8976245559751987E-004
   7.8000000000000014E-002    -3.5074324114248157E-004
   7.9100000000000004E-002    -3.1270078034140170E-004
   8.0200000000000021E-002    -2.7592334663495421E-004
   8.1300000000000011E-002    -2.4061463773250580E-004
   8.2400000000000029E-002    -2.0697558647952974E-004
   8.3500000000000019E-002    -1.7523345013614744E-004
   8.4600000000000009E-002    -1.4556614041794091E-004
   8.5700000000000026E-002    -1.1803465895354748E-004
   8.6800000000000016E-002    -9.2631409643217921E-005
   8.7900000000000006E-002    -6.9375069870147854E-005
   8.9000000000000024E-002    -4.8317622713511810E-005
   9.0100000000000013E-002    -2.9447352062561549E-005
   9.1200000000000003E-002    -1.2656563740165439E-005
   9.2300000000000021E-002     2.1752307475253474E-006
   9.3400000000000011E-002     1.5101831195352133E-005
   9.4500000000000028E-002     2.6163859729422256E-005
   9.5600000000000018E-002     3.5493136238073930E-005
   9.6700000000000008E-002     4.3294388888170943E-005
   9.7800000000000026E-002     4.9720703827915713E-005
   9.8900000000000016E-002     5.4822616220917553E-005
  0.10000000000000001          5.8657704357756302E-005
  0.10110000000000002          6.1392558563966304E-005
  0.10220000000000001          6.3238832808565348E-005
  0.10330000000000003          6.4315550844185054E-005
  0.10440000000000002          6.4644722442608327E-005
  0.10550000000000001          6.4288928115274757E-005
  0.10660000000000003          6.3416089687962085E-005
  0.10770000000000002          6.2183215050026774E-005
  0.10880000000000001          6.0624046454904601E-005
  0.10990000000000003          5.8715831983136013E-005
  0.11100000000000002          5.6529956054873765E-005
  0.11210000000000001          5.4229716624831781E-005
  0.11320000000000002          5.1912746130255982E-005
  0.11430000000000001          4.9534002755535766E-005
  0.11540000000000003          4.7035449824761599E-005
  0.11650000000000002          4.4488566345535219E-005
  0.11760000000000001          4.2033905629068613E-005
  0.11870000000000003          3.9709466364001855E-005
  0.11980000000000002          3.7430239899549633E-005
  0.12090000000000001          3.5148557799402624E-005
  0.12200000000000003          3.2946518331300467E-005
  0.12310000000000001          3.0918516131350771E-005
  0.12420000000000003          2.9030134101049043E-005
  0.12530000000000002          2.7178282834938727E-005
  0.12640000000000001          2.5361969164805487E-005
  0.12750000000000003          2.3694212359259836E-005
  0.12860000000000002          2.2227410227060318E-005
  0.12970000000000001          2.0862340534222312E-005
  0.13080000000000003          1.9487986719468608E-005
  0.13190000000000002          1.8145143258152530E-005
  0.13300000000000001          1.6962625522864982E-005
  0.13410000000000000          1.5959280062816106E-005
  0.13520000000000004          1.5010614333732519E-005
  0.13630000000000003          1.4031345926923677E-005
  0.13740000000000002          1.3094103451294359E-005
  0.13850000000000001          1.2306062671996187E-005
  0.13960000000000000          1.1636874660325702E-005
  0.14070000000000005          1.0962540727632586E-005
  0.14180000000000004          1.0254850167257246E-005
  0.14290000000000003          9.6193025456159376E-006
  0.14400000000000002          9.1232659542583860E-006
  0.14510000000000001          8.6825793914613314E-006
  0.14620000000000000          8.1846610555658117E-006
  0.14730000000000004          7.6594933489104733E-006
  0.14840000000000003          7.2317316153203137E-006
  0.14950000000000002          6.9259795054676943E-006
  0.15060000000000001          6.6248676375835203E-006
  0.15170000000000000          6.2447475102089811E-006
  0.15280000000000005          5.8596206145011820E-006
  0.15390000000000004          5.5831133067840710E-006
  0.15500000000000003          5.3910889619146474E-006
  0.15610000000000002          5.1579368118837010E-006
  0.15720000000000001          4.8487022468179930E-006
  0.15830000000000000          4.5706315177085344E-006
  0.15940000000000004          4.4055163925804663E-006
  0.16050000000000003          4.2823016883630771E-006
  0.16160000000000002          4.0852000893210061E-006
  0.16270000000000001          3.8295129343168810E-006
  0.16380000000000000          3.6353103496367112E-006
  0.16490000000000005          3.5417394883552333E-006
  0.16600000000000004          3.4483728086343035E-006
  0.16710000000000003          3.2706614092603559E-006
  0.16820000000000002          3.0673113542434294E-006
  0.16930000000000001          2.9455798085109564E-006
  0.17040000000000000          2.8943757115484914E-006
  0.17150000000000004          2.8033814487571362E-006
  0.17260000000000003          2.6354578039899934E-006
  0.17370000000000002          2.4832929739204701E-006
  0.17480000000000001          2.4242672225227579E-006
  0.17590000000000000          2.3996324216568610E-006
  0.17700000000000005          2.3042223347147228E-006
  0.17810000000000004          2.1474988898262382E-006
  0.17920000000000003          2.0384668459882960E-006
  0.18030000000000002          2.0190605027892161E-006
  0.18140000000000001          2.0018003397126449E-006
  0.18250000000000000          1.9041776795347687E-006
  0.18360000000000004          1.7715422018227400E-006
  0.18470000000000003          1.7035748669513850E-006
  0.18580000000000002          1.7022389329213183E-006
  0.18690000000000001          1.6739134025556268E-006
  0.18800000000000000          1.5757080973344273E-006
  0.18910000000000005          1.4777909882468521E-006
  0.19020000000000004          1.4503081047223532E-006
  0.19130000000000003          1.4546669717674376E-006
  0.19240000000000002          1.4062646869206219E-006
  0.19350000000000001          1.3071191915514646E-006
  0.19460000000000005          1.2416878689691657E-006
  0.19570000000000004          1.2449243058654247E-006
  0.19680000000000003          1.2480818440963048E-006
  0.19790000000000002          1.1845642120533739E-006
  0.19900000000000001          1.0914432095887605E-006
  0.20010000000000000          1.0520012665438117E-006
  0.20120000000000005          1.0698341839088243E-006
  0.20230000000000004          1.0663292187018669E-006
  0.20340000000000003          1.0006283446273301E-006
  0.20450000000000002          9.2746870450355345E-007
  0.20560000000000000          9.0965181698265951E-007
  0.20670000000000005          9.2423317710199626E-007
  0.20780000000000004          9.0324635948491050E-007
  0.20890000000000003          8.3969047182108625E-007
