 -0.12000000000000000          0.0000000000000000
 -0.11889999999999999          0.0000000000000000
 -0.11780000000000000          0.0000000000000000
 -0.11670000000000000          0.0000000000000000
 -0.11559999999999999          0.0000000000000000
 -0.11449999999999999          0.0000000000000000
 -0.11340000000000000          0.0000000000000000
 -0.11230000000000000          0.0000000000000000
 -0.11119999999999999          0.0000000000000000
 -0.11009999999999999          0.0000000000000000
 -0.10900000000000000          0.0000000000000000
 -0.10790000000000000          0.0000000000000000
 -0.10679999999999999          0.0000000000000000
 -0.10569999999999999          0.0000000000000000
 -0.10460000000000000          0.0000000000000000
 -0.10349999999999999          0.0000000000000000
 -0.10239999999999999         -7.7628852066973351E-040
 -0.10130000000000000          1.2037626046132656E-038
 -0.10020000000000000         -5.2273247580839097E-038
  -9.9099999999999994E-002    -1.2016758750181010E-037
  -9.7999999999999990E-002     1.4416774737248855E-036
  -9.6899999999999986E-002    -5.6585983507095814E-037
  -9.5799999999999996E-002    -2.0509658665134491E-035
  -9.4699999999999993E-002     2.4620674650646968E-035
  -9.3599999999999989E-002     2.2016178079661215E-034
  -9.2499999999999999E-002    -3.1638997536570644E-034
  -9.1399999999999995E-002    -2.0285757641399688E-033
  -9.0299999999999991E-002     2.5908960783878649E-033
  -8.9200000000000002E-002     1.6717760169223614E-032
  -8.8099999999999984E-002    -1.4096986697857692E-032
  -8.6999999999999994E-002    -1.2283497490104012E-031
  -8.5899999999999990E-002     3.2413034209799723E-032
  -8.4799999999999986E-002     7.8670660023414682E-031
  -8.3699999999999997E-002     3.0523782040146844E-031
  -8.2599999999999993E-002    -4.2466281314416299E-030
  -8.1499999999999989E-002    -4.8053231050315229E-030
  -8.0399999999999999E-002     1.8242322669168062E-029
  -7.9299999999999995E-002     3.9089005170492530E-029
  -7.8199999999999992E-002    -5.3446530034938792E-029
  -7.7100000000000002E-002    -2.2873511614571598E-028
  -7.5999999999999984E-002     2.4204979207499408E-029
  -7.4899999999999994E-002     1.0079724142499921E-027
  -7.3799999999999991E-002     8.9808491830258126E-028
  -7.2699999999999987E-002    -3.1538520323780056E-027
  -7.1599999999999997E-002    -6.7883198823778459E-027
  -7.0499999999999993E-002     4.7750043334379391E-027
  -6.9399999999999989E-002     3.0179950852081834E-026
  -6.8300000000000000E-002     1.6038780961283400E-026
  -6.7199999999999996E-002    -8.7276710932871320E-026
  -6.6099999999999992E-002    -1.5318645864644275E-025
  -6.5000000000000002E-002     1.1245198645378715E-025
  -6.3899999999999985E-002     6.2342222877322562E-025
  -6.2799999999999995E-002     3.8031008892608267E-025
  -6.1699999999999991E-002    -1.4533809629154088E-024
  -6.0599999999999994E-002    -2.8792363994801672E-024
  -5.9499999999999990E-002     7.3283906056822328E-025
  -5.8399999999999994E-002     9.0653015885694620E-024
  -5.7299999999999990E-002     9.1766406278714504E-024
  -5.6199999999999986E-002    -1.3046602902268481E-023
  -5.5099999999999996E-002    -4.0613680134518742E-023
  -5.3999999999999992E-002    -1.7967853283782777E-023
  -5.2899999999999989E-002     7.9035690104167293E-023
  -5.1799999999999985E-002     1.4618983493293434E-022
  -5.0699999999999995E-002     1.4284698202122739E-024
  -4.9599999999999991E-002    -3.3984791702259023E-022
  -4.8499999999999988E-002    -4.5569881787299760E-022
  -4.7399999999999998E-002     1.4392961591084407E-022
  -4.6299999999999994E-002     1.1893592001838308E-021
  -4.5199999999999990E-002     1.3399097067395331E-021
  -4.4099999999999986E-002    -5.9760815469468342E-022
  -4.2999999999999997E-002    -3.6053054739035845E-021
  -4.1899999999999993E-002    -4.0787557068715212E-021
  -4.0799999999999989E-002     1.0823486659123391E-021
  -3.9699999999999985E-002     9.7922214447459948E-021
  -3.8599999999999995E-002     1.3379927520206520E-020
  -3.7499999999999992E-002     2.0967740097479972E-021
  -3.6399999999999988E-002    -2.3854759570622727E-020
  -3.5299999999999984E-002    -4.5041977988035580E-020
  -3.4199999999999994E-002    -2.7373270856932198E-020
  -3.3099999999999991E-002     4.8706562585055953E-020
  -3.1999999999999987E-002     1.4315320805222530E-019
  -3.0899999999999997E-002     1.4252333586516031E-019
  -2.9799999999999993E-002    -5.9845237773201509E-020
  -2.8699999999999989E-002    -3.9918219002372964E-019
  -2.7599999999999986E-002    -5.4727701382943793E-019
  -2.6499999999999996E-002    -1.0872977666810134E-019
  -2.5399999999999992E-002     8.9826148336062817E-019
  -2.4299999999999988E-002     1.6947367379853812E-018
  -2.3199999999999985E-002     1.1032712705442660E-018
  -2.2099999999999995E-002    -1.3130597835241991E-018
  -2.0999999999999991E-002    -4.1931493378277895E-018
  -1.9899999999999987E-002    -4.6717626576958717E-018
  -1.8799999999999983E-002    -4.6957146029105338E-019
  -1.7699999999999994E-002     7.4136393272310127E-018
  -1.6599999999999990E-002     1.3667338170729941E-017
  -1.5499999999999986E-002     1.1010013835458439E-017
  -1.4399999999999996E-002    -4.4062968244801474E-018
  -1.3299999999999992E-002    -2.7288645394732530E-017
  -1.2199999999999989E-002    -4.1693810473886295E-017
  -1.1099999999999985E-002    -2.7849291870308721E-017
  -9.9999999999999950E-003     2.2653952422597916E-017
  -8.8999999999999913E-003     9.0908155171202606E-017
  -7.7999999999999875E-003     1.2812942985151673E-016
  -6.6999999999999837E-003     7.8215167933249903E-017
  -5.5999999999999939E-003    -7.8100924364488979E-017
  -4.4999999999999901E-003    -2.8202316673878593E-016
  -3.3999999999999864E-003    -3.9418104921599398E-016
  -2.2999999999999826E-003    -2.5544697862309022E-016
  -1.1999999999999927E-003     1.9819680257667031E-016
  -9.9999999999988987E-005     8.2038968471709393E-016
   1.0000000000000148E-003     1.2260346631296848E-015
   2.1000000000000185E-003     9.3140896962473499E-016
   3.2000000000000084E-003    -3.2856633017120925E-016
   4.3000000000000121E-003    -2.2346507917757677E-015
   5.4000000000000159E-003    -3.7320894225240705E-015
   6.5000000000000058E-003    -3.3638236374968974E-015
   7.6000000000000234E-003    -1.4157464852108026E-016
   8.7000000000000133E-003     5.3883763770357085E-015
   9.8000000000000032E-003     1.0584992965142516E-014
   1.0900000000000021E-002     1.1377676043336244E-014
   1.2000000000000011E-002     4.3759585527641115E-015
   1.3100000000000001E-002    -1.0276212186418644E-014
   1.4200000000000018E-002    -2.6907163698736483E-014
   1.5300000000000008E-002    -3.5058131256978514E-014
   1.6400000000000026E-002    -2.3954405150542098E-014
   1.7500000000000016E-002     1.0305123114974328E-014
   1.8600000000000005E-002     5.8214480599342450E-014
   1.9700000000000023E-002     9.5679527126711628E-014
   2.0800000000000013E-002     9.1814319276746492E-014
   2.1900000000000003E-002     2.5410898632136601E-014
   2.3000000000000020E-002    -9.5925905294145380E-014
   2.4100000000000010E-002    -2.2482249352126504E-013
   2.5200000000000000E-002    -2.8272132898687907E-013
   2.6300000000000018E-002    -1.9297104604347470E-013
   2.7400000000000008E-002     6.9551616798790156E-014
   2.8500000000000025E-002     4.3491198056105906E-013
   2.9600000000000015E-002     7.3104819723820991E-013
   3.0700000000000005E-002     7.3607623902322006E-013
   3.1800000000000023E-002     2.8770405112107933E-013
   3.2900000000000013E-002    -5.8783072810417170E-013
   3.4000000000000002E-002    -1.5938618697433626E-012
   3.5100000000000020E-002    -2.1983727772206807E-012
   3.6200000000000010E-002    -1.8216079686328435E-012
   3.7300000000000028E-002    -1.4305418828686189E-013
   3.8400000000000017E-002     2.5855574192074071E-012
   3.9500000000000007E-002     5.3884132399095730E-012
   4.0600000000000025E-002     6.7306958617674439E-012
   4.1700000000000015E-002     5.0587884575792330E-012
   4.2800000000000005E-002    -3.9369213184620167E-013
   4.3900000000000022E-002    -8.8233474346277596E-012
   4.5000000000000012E-002    -1.7495392287680822E-011
   4.6100000000000002E-002    -2.2156967233177838E-011
   4.7200000000000020E-002    -1.8351998740118169E-011
   4.8300000000000010E-002    -3.3971753361783374E-012
   4.9400000000000027E-002     2.1605718950046260E-011
   5.0500000000000017E-002     5.0578811972012971E-011
   5.1600000000000007E-002     7.2895876834788709E-011
   5.2700000000000025E-002     7.5821862677294405E-011
   5.3800000000000014E-002     4.8689850762340114E-011
   5.4900000000000004E-002    -1.2193059929777039E-011
   5.6000000000000022E-002    -9.9452550361700531E-011
   5.7100000000000012E-002    -1.9302406895072011E-010
   5.8200000000000002E-002    -2.6222635174377729E-010
   5.9300000000000019E-002    -2.7184560158488580E-010
   6.0400000000000009E-002    -1.9138339524271686E-010
   6.1500000000000027E-002    -5.5572759935507143E-012
   6.2600000000000017E-002     2.7648874856289751E-010
   6.3700000000000007E-002     6.1579363830333023E-010
   6.4800000000000024E-002     9.4383800774977544E-010
   6.5900000000000014E-002     1.1691376755607052E-009
   6.7000000000000004E-002     1.1894129015033172E-009
   6.8100000000000022E-002     9.0723434320594265E-010
   6.9200000000000012E-002     2.4600796399987246E-010
   7.0300000000000029E-002    -8.3733353584136694E-010
   7.1400000000000019E-002    -2.3464357123970103E-009
   7.2500000000000009E-002    -4.2489847196236497E-009
   7.3600000000000027E-002    -6.4904108754149092E-009
   7.4700000000000016E-002    -9.0165404031949947E-009
   7.5800000000000006E-002    -1.1801524202326164E-008
   7.6900000000000024E-002    -1.4875478626663607E-008
   7.8000000000000014E-002    -1.8345865271385264E-008
   7.9100000000000004E-002    -2.2407306232707924E-008
   8.0200000000000021E-002    -2.7337485164480313E-008
   8.1300000000000011E-002    -3.3480713312883381E-008
   8.2400000000000029E-002    -4.1224868851941210E-008
   8.3500000000000019E-002    -5.0981018517859411E-008
   8.4600000000000009E-002    -6.3173914099934336E-008
   8.5700000000000026E-002    -7.8250202761864784E-008
   8.6800000000000016E-002    -9.6705910834771203E-008
   8.7900000000000006E-002    -1.1912590736073980E-007
   8.9000000000000024E-002    -1.4622877131387213E-007
   9.0100000000000013E-002    -1.7890501169404160E-007
   9.1200000000000003E-002    -2.1824057228059246E-007
   9.2300000000000021E-002    -2.6552461918072368E-007
   9.3400000000000011E-002    -3.2224718893303361E-007
   9.4500000000000028E-002    -3.9009375996101880E-007
   9.5600000000000018E-002    -4.7095676336539327E-007
   9.6700000000000008E-002    -5.6695876082812902E-007
   9.7800000000000026E-002    -6.8049916990275960E-007
   9.8900000000000016E-002    -8.1431016951682977E-007
  0.10000000000000001         -9.7151939826289890E-007
  0.10110000000000002         -1.1556911658772151E-006
  0.10220000000000001         -1.3708528285860666E-006
  0.10330000000000003         -1.6215002460739925E-006
  0.10440000000000002         -1.9125832295685541E-006
  0.10550000000000001         -2.2495080429507652E-006
  0.10660000000000003         -2.6381264888186706E-006
  0.10770000000000002         -3.0847556899971096E-006
  0.10880000000000001         -3.5961745652457466E-006
  0.10990000000000003         -4.1796765799517743E-006
  0.11100000000000002         -4.8430565584567375E-006
  0.11210000000000001         -5.5945724852790590E-006
  0.11320000000000002         -6.4429295889567584E-006
  0.11430000000000001         -7.3971168603748083E-006
  0.11540000000000003         -8.4663988673128188E-006
  0.11650000000000002         -9.6601170298526995E-006
  0.11760000000000001         -1.0987499081238639E-005
  0.11870000000000003         -1.2457658158382401E-005
  0.11980000000000002         -1.4079281754675321E-005
  0.12090000000000001         -1.5860403436818160E-005
  0.12200000000000003         -1.7808328266255558E-005
  0.12310000000000001         -1.9929071640945040E-005
  0.12420000000000003         -2.2227399313123897E-005
  0.12530000000000002         -2.4706325348233804E-005
  0.12640000000000001         -2.7366868380340748E-005
  0.12750000000000003         -3.0207682357286103E-005
  0.12860000000000002         -3.3224678190890700E-005
  0.12970000000000001         -3.6410765460459515E-005
  0.13080000000000003         -3.9755239413352683E-005
  0.13190000000000002         -4.3243726395303383E-005
  0.13300000000000001         -4.6857643610564992E-005
  0.13410000000000000         -5.0574159104144201E-005
  0.13520000000000004         -5.4365355026675388E-005
  0.13630000000000003         -5.8198569604428485E-005
  0.13740000000000002         -6.2035986047703773E-005
  0.13850000000000001         -6.5835498389787972E-005
  0.13960000000000000         -6.9549343606922776E-005
  0.14070000000000005         -7.3125498602166772E-005
  0.14180000000000004         -7.6506636105477810E-005
  0.14290000000000003         -7.9631543485447764E-005
  0.14400000000000002         -8.2434657088015229E-005
  0.14510000000000001         -8.4848586993757635E-005
  0.14620000000000000         -8.6801883298903704E-005
  0.14730000000000004         -8.8221917394548655E-005
  0.14840000000000003         -8.9036191639024764E-005
  0.14950000000000002         -8.9173008746001869E-005
  0.15060000000000001         -8.8561508164275438E-005
  0.15170000000000000         -8.7135274952743202E-005
  0.15280000000000005         -8.4830971900373697E-005
  0.15390000000000004         -8.1592370406724513E-005
  0.15500000000000003         -7.7371259976644069E-005
  0.15610000000000002         -7.2126909799408168E-005
  0.15720000000000001         -6.5828506194520742E-005
  0.15830000000000000         -5.8458572311792523E-005
  0.15940000000000004         -5.0012098654406145E-005
  0.16050000000000003         -4.0499817259842530E-005
  0.16160000000000002         -2.9945338610559702E-005
  0.16270000000000001         -1.8389237084193155E-005
  0.16380000000000000         -5.8873333728115540E-006
  0.16490000000000005          7.4859894994006027E-006
  0.16600000000000004          2.1641437342623249E-005
  0.16710000000000003          3.6472109059104696E-005
  0.16820000000000002          5.1856230129487813E-005
  0.16930000000000001          6.7656859755516052E-005
  0.17040000000000000          8.3724764408543706E-005
  0.17150000000000004          9.9898752523586154E-005
  0.17260000000000003          1.1600775906117633E-004
  0.17370000000000002          1.3187312288209796E-004
  0.17480000000000001          1.4731132250744849E-004
  0.17590000000000000          1.6213594062719494E-004
  0.17700000000000005          1.7616205150261521E-004
  0.17810000000000004          1.8920846923720092E-004
  0.17920000000000003          2.0110020705033094E-004
  0.18030000000000002          2.1167114027775824E-004
  0.18140000000000001          2.2076709137763828E-004
  0.18250000000000000          2.2824935149401426E-004
  0.18360000000000004          2.3399718338623643E-004
  0.18470000000000003          2.3791042622178793E-004
  0.18580000000000002          2.3991130001377314E-004
  0.18690000000000001          2.3994495859369636E-004
  0.18800000000000000          2.3798090114723891E-004
  0.18910000000000005          2.3401521320920438E-004
  0.19020000000000004          2.2807031928095967E-004
  0.19130000000000003          2.2019581228960305E-004
  0.19240000000000002          2.1046597976237535E-004
  0.19350000000000001          1.9897855236195028E-004
  0.19460000000000005          1.8585646466817707E-004
  0.19570000000000004          1.7124188889283687E-004
  0.19680000000000003          1.5529745724052191E-004
  0.19790000000000002          1.3820348249282688E-004
  0.19900000000000001          1.2015418906230479E-004
  0.20010000000000000          1.0135200136573985E-004
  0.20120000000000005          8.2005775766447186E-005
  0.20230000000000004          6.2330233049578965E-005
  0.20340000000000003          4.2541032598819584E-005
  0.20450000000000002          2.2851027097203769E-005
  0.20560000000000000          3.4662132293306058E-006
  0.20670000000000005         -1.5414778317790478E-005
  0.20780000000000004         -3.3607906516408548E-005
  0.20890000000000003         -5.0941289373440668E-005
