 -0.12000000000000000          0.0000000000000000
 -0.11889999999999999          0.0000000000000000
 -0.11780000000000000          0.0000000000000000
 -0.11670000000000000          1.2546758770826116E-011
 -0.11559999999999999          1.3697683612368117E-011
 -0.11449999999999999         -3.8519888667654101E-011
 -0.11340000000000000         -6.0436967930233010E-011
 -0.11230000000000000          8.1728193657149006E-011
 -0.11119999999999999          2.1664804672472115E-010
 -0.11009999999999999         -3.4040468360752030E-011
 -0.10900000000000000         -4.8208020908546700E-010
 -0.10790000000000000         -2.7206756292308398E-010
 -0.10679999999999999          7.1667299872402168E-010
 -0.10569999999999999          1.0246076209696753E-009
 -0.10460000000000000         -4.2161257818307263E-010
 -0.10349999999999999         -1.8818473446202688E-009
 -0.10239999999999999         -6.0493465792177403E-010
 -0.10130000000000000          2.4258632880247433E-009
 -0.10020000000000000          2.5024660121886200E-009
  -9.9099999999999994E-002    -1.8537338331015007E-009
  -9.7999999999999990E-002    -4.8300967669945294E-009
  -9.6899999999999986E-002    -6.5602123733299322E-010
  -9.5799999999999996E-002     6.4043992331619393E-009
  -9.4699999999999993E-002     5.8165987582015077E-009
  -9.3599999999999989E-002    -3.7803564723049021E-009
  -9.2499999999999999E-002    -9.8755341682021935E-009
  -9.1399999999999995E-002    -2.5646835766224285E-009
  -9.0299999999999991E-002     9.5435002123167578E-009
  -8.9200000000000002E-002     9.3253893496125784E-009
  -8.8099999999999984E-002    -4.2170884562153788E-009
  -8.6999999999999994E-002    -1.2694494344600571E-008
  -8.5899999999999990E-002    -3.9122154404935827E-009
  -8.4799999999999986E-002     9.9854329249637885E-009
  -8.3699999999999997E-002     9.7388248576635306E-009
  -8.2599999999999993E-002    -2.9503981480161201E-009
  -8.1499999999999989E-002    -8.7990930097703313E-009
  -8.0399999999999999E-002    -8.1156464881715351E-010
  -7.9299999999999995E-002     5.8460836172002928E-009
  -7.8199999999999992E-002    -3.1192631810839089E-010
  -7.7100000000000002E-002    -7.3377286469167302E-009
  -7.5999999999999984E-002     2.8819819794523305E-012
  -7.4899999999999994E-002     1.1607648175981922E-008
  -7.3799999999999991E-002     4.7747925613350617E-009
  -7.2699999999999987E-002    -1.6708566974443784E-008
  -7.1599999999999997E-002    -2.0921117283023705E-008
  -7.0499999999999993E-002     5.0190358535928681E-009
  -6.9399999999999989E-002     2.8316859967958408E-008
  -6.8300000000000000E-002     1.2549622674384864E-008
  -6.7199999999999996E-002    -2.6890917936839287E-008
  -6.6099999999999992E-002    -3.8676546409988077E-008
  -6.5000000000000002E-002    -6.8480061621301047E-009
  -6.3899999999999985E-002     2.4601666481771645E-008
  -6.2799999999999995E-002     1.2645495317542554E-008
  -6.1699999999999991E-002    -2.5256641222881626E-008
  -6.0599999999999994E-002    -3.9288000408532753E-008
  -5.9499999999999990E-002    -1.9394718719922821E-008
  -5.8399999999999994E-002    -3.7865115487534240E-009
  -5.7299999999999990E-002    -1.5923976803833284E-008
  -5.6199999999999986E-002    -3.1368251995900209E-008
  -5.5099999999999996E-002    -2.4932559128387766E-008
  -5.3999999999999992E-002    -1.7672904917276355E-008
  -5.2899999999999989E-002    -4.2276884215652899E-008
  -5.1799999999999985E-002    -8.0362958954083297E-008
  -5.0699999999999995E-002    -7.9874226344145427E-008
  -4.9599999999999991E-002    -3.7851030754154635E-008
  -4.8499999999999988E-002    -1.9377818460952767E-008
  -4.7399999999999998E-002    -6.9003860403427097E-008
  -4.6299999999999994E-002    -1.3938144149960863E-007
  -4.5199999999999990E-002    -1.5010063236786664E-007
  -4.4099999999999986E-002    -1.0031543951072308E-007
  -4.2999999999999997E-002    -7.1705144932820986E-008
  -4.1899999999999993E-002    -1.1475511740854927E-007
  -4.0799999999999989E-002    -1.8239838084355142E-007
  -3.9699999999999985E-002    -2.0376199927341077E-007
  -3.8599999999999995E-002    -1.8455824601915083E-007
  -3.7499999999999992E-002    -1.8541379631642485E-007
  -3.6399999999999988E-002    -2.2225670193165570E-007
  -3.5299999999999984E-002    -2.4800050368867232E-007
  -3.4199999999999994E-002    -2.3915498559290427E-007
  -3.3099999999999991E-002    -2.4120586772369279E-007
  -3.1999999999999987E-002    -2.9340222340579203E-007
  -3.0899999999999997E-002    -3.5239096973782580E-007
  -2.9799999999999993E-002    -3.4679112559388159E-007
  -2.8699999999999989E-002    -2.9029558845650172E-007
  -2.7599999999999986E-002    -2.7537549840417341E-007
  -2.6499999999999996E-002    -3.4239039337080612E-007
  -2.5399999999999992E-002    -4.1524151583871571E-007
  -2.4299999999999988E-002    -4.0565367953604436E-007
  -2.3199999999999985E-002    -3.3585976666472561E-007
  -2.2099999999999995E-002    -3.0261406891440856E-007
  -2.0999999999999991E-002    -3.3715610925355577E-007
  -1.9899999999999987E-002    -3.6669294445346168E-007
  -1.8799999999999983E-002    -3.3292383250227431E-007
  -1.7699999999999994E-002    -2.7559869408833038E-007
  -1.6599999999999990E-002    -2.5792400037971674E-007
  -1.5499999999999986E-002    -2.6118158302779193E-007
  -1.4399999999999996E-002    -2.1586382104032964E-007
  -1.3299999999999992E-002    -1.2046828601341986E-007
  -1.2199999999999989E-002    -5.4288918249767448E-008
  -1.1099999999999985E-002    -5.3896581420076473E-008
  -9.9999999999999950E-003    -4.8235897054382804E-008
  -8.8999999999999913E-003     4.3582897291116751E-008
  -7.7999999999999875E-003     1.8502736054415436E-007
  -6.6999999999999837E-003     2.7484804832056398E-007
  -5.5999999999999939E-003     2.8873466817458393E-007
  -4.4999999999999901E-003     3.1412108114636794E-007
  -3.3999999999999864E-003     4.1917573412320053E-007
  -2.2999999999999826E-003     5.5098257689678576E-007
  -1.1999999999999927E-003     6.2694419966646819E-007
  -9.9999999999988987E-005     6.5370142010579002E-007
   1.0000000000000148E-003     7.0970651222523884E-007
   2.1000000000000185E-003     8.1699147358449409E-007
   3.2000000000000084E-003     9.0269270458520623E-007
   4.3000000000000121E-003     9.2006354179829941E-007
   5.4000000000000159E-003     9.2109110028104624E-007
   6.5000000000000058E-003     9.7972565527015831E-007
   7.6000000000000234E-003     1.0658596920620766E-006
   8.7000000000000133E-003     1.0906790066655958E-006
   9.8000000000000032E-003     1.0403974783912417E-006
   1.0900000000000021E-002     9.9683006737905089E-007
   1.2000000000000011E-002     1.0134061767530511E-006
   1.3100000000000001E-002     1.0399003258498851E-006
   1.4200000000000018E-002     9.9551266430353280E-007
   1.5300000000000008E-002     8.9141906300937990E-007
   1.6400000000000026E-002     8.0734145058158902E-007
   1.7500000000000016E-002     7.7103362627894967E-007
   1.8600000000000005E-002     7.2082173119270010E-007
   1.9700000000000023E-002     6.0800743995059747E-007
   2.0800000000000013E-002     4.7350459908557241E-007
   2.1900000000000003E-002     3.7933003227408335E-007
   2.3000000000000020E-002     3.1255456178769236E-007
   2.4100000000000010E-002     2.0769363118233741E-007
   2.5200000000000000E-002     5.4706877250509933E-008
   2.6300000000000018E-002    -8.1065877566288691E-008
   2.7400000000000008E-002    -1.5959668075993250E-007
   2.8500000000000025E-002    -2.2647455466540123E-007
   2.9600000000000015E-002    -3.4199905485365889E-007
   3.0700000000000005E-002    -4.8396992724519805E-007
   3.1800000000000023E-002    -5.8097253941014060E-007
   3.2900000000000013E-002    -6.2049292637311737E-007
   3.4000000000000002E-002    -6.6043241986335488E-007
   3.5100000000000020E-002    -7.3633214014989790E-007
   3.6200000000000010E-002    -8.1756246572695090E-007
   3.7300000000000028E-002    -8.4940359101892682E-007
   3.8400000000000017E-002    -8.4603522054749192E-007
   3.9500000000000007E-002    -8.5546264472213807E-007
   4.0600000000000025E-002    -8.8078900262189563E-007
   4.1700000000000015E-002    -8.7826293793114019E-007
   4.2800000000000005E-002    -8.3390580130071612E-007
   4.3900000000000022E-002    -7.8658786151208915E-007
   4.5000000000000012E-002    -7.6713484986612457E-007
   4.6100000000000002E-002    -7.4787146786547964E-007
   4.7200000000000020E-002    -6.8623279503299273E-007
   4.8300000000000010E-002    -5.9405306274129543E-007
   4.9400000000000027E-002    -5.2111136028543115E-007
   5.0500000000000017E-002    -4.8075054337459733E-007
   5.1600000000000007E-002    -4.3794210569103598E-007
   5.2700000000000025E-002    -3.6323561403150961E-007
   5.3800000000000014E-002    -2.7331913088346482E-007
   5.4900000000000004E-002    -2.0313082416123507E-007
   5.6000000000000022E-002    -1.5019882937394868E-007
   5.7100000000000012E-002    -8.7522856517807668E-008
   5.8200000000000002E-002    -1.8206730345582400E-008
   5.9300000000000019E-002     2.9330591289067343E-008
   6.0400000000000009E-002     5.0637538606679300E-008
   6.1500000000000027E-002     8.5494669121999323E-008
   6.2600000000000017E-002     1.4915889323674492E-007
   6.3700000000000007E-002     2.0515864207482082E-007
   6.4800000000000024E-002     2.1678384598544653E-007
   6.5900000000000014E-002     2.0574631776071328E-007
   6.7000000000000004E-002     2.1572679997916566E-007
   6.8100000000000022E-002     2.4720856117710355E-007
   6.9200000000000012E-002     2.5986011564782530E-007
   7.0300000000000029E-002     2.4189455416490091E-007
   7.1400000000000019E-002     2.2806078447956679E-007
   7.2500000000000009E-002     2.3991509578991099E-007
   7.3600000000000027E-002     2.4559668077017704E-007
   7.4700000000000016E-002     2.1083700119106652E-007
   7.5800000000000006E-002     1.6166120531124761E-007
   7.6900000000000024E-002     1.5194929403605784E-007
   7.8000000000000014E-002     1.7846858213488304E-007
   7.9100000000000004E-002     1.8053611938739778E-007
   8.0200000000000021E-002     1.3042267710261513E-007
   8.1300000000000011E-002     7.6480375810206169E-008
   8.2400000000000029E-002     6.9630665677777870E-008
   8.3500000000000019E-002     8.6379522201696091E-008
   8.4600000000000009E-002     6.9275472469598753E-008
   8.5700000000000026E-002     2.4229626305327656E-008
   8.6800000000000016E-002     8.5518045978005830E-009
   8.7900000000000006E-002     3.3350517014696379E-008
   8.9000000000000024E-002     3.9025351838972711E-008
   9.0100000000000013E-002    -1.1262386578891892E-008
   9.1200000000000003E-002    -6.3350064749556623E-008
   9.2300000000000021E-002    -4.5579948704244089E-008
   9.3400000000000011E-002     1.5547614751199035E-008
   9.4500000000000028E-002     2.5761643485111563E-008
   9.5600000000000018E-002    -3.8361413601251115E-008
   9.6700000000000008E-002    -9.0815987618952931E-008
   9.7800000000000026E-002    -6.3668665006844094E-008
   9.8900000000000016E-002    -5.8364104660313387E-009
  0.10000000000000001         -5.0460502443172572E-009
  0.10110000000000002         -5.2936844241457948E-008
  0.10220000000000001         -6.4453033132849669E-008
  0.10330000000000003         -1.8354191055891533E-008
  0.10440000000000002          7.7610611270984009E-009
  0.10550000000000001         -3.5493449956902623E-008
  0.10660000000000003         -8.2050547689505038E-008
  0.10770000000000002         -4.9156916759329761E-008
  0.10880000000000001          2.7382412781662424E-008
  0.10990000000000003          3.7382807960284481E-008
  0.11100000000000002         -3.5956368549250328E-008
  0.11210000000000001         -8.4534860889107222E-008
  0.11320000000000002         -3.5416146459965603E-008
  0.11430000000000001          3.8785149314435330E-008
  0.11540000000000003          3.0790630489718751E-008
  0.11650000000000002         -3.8912990163453287E-008
  0.11760000000000001         -5.6973867401666212E-008
  0.11870000000000003          5.3240234443308054E-009
  0.11980000000000002          4.8013642839350723E-008
  0.12090000000000001          1.5270091857644275E-009
  0.12200000000000003         -6.0620656938681350E-008
  0.12310000000000001         -3.4837675855214911E-008
  0.12420000000000003          4.7478270204237560E-008
  0.12530000000000002          6.2608037865174992E-008
  0.12640000000000001         -1.5909671802205594E-008
  0.12750000000000003         -7.2472808199108840E-008
  0.12860000000000002         -2.3663988102384792E-008
  0.12970000000000001          5.5180507274599222E-008
  0.13080000000000003          4.6417419241606694E-008
  0.13190000000000002         -3.0335886691545966E-008
  0.13300000000000001         -5.2075780132554428E-008
  0.13410000000000000          1.4656916569322220E-008
  0.13520000000000004          6.1986163757410395E-008
  0.13630000000000003          1.1379133191269375E-008
  0.13740000000000002         -6.0168702020746423E-008
  0.13850000000000001         -3.8262768953245541E-008
  0.13960000000000000          4.8684110964813954E-008
  0.14070000000000005          6.8425414667672158E-008
  0.14180000000000004         -1.2691774742279449E-008
  0.14290000000000003         -7.5338512317557615E-008
  0.14400000000000002         -2.7162025517668553E-008
  0.14510000000000001          5.7937704411870072E-008
  0.14620000000000000          5.3784230402698086E-008
  0.14730000000000004         -2.7027443394445072E-008
  0.14840000000000003         -5.7894894212040526E-008
  0.14950000000000002          4.6260146824295134E-009
  0.15060000000000001          5.6535643722099849E-008
  0.15170000000000000          1.2970860829852882E-008
  0.15280000000000005         -5.7163056510489696E-008
  0.15390000000000004         -3.9197860957074226E-008
  0.15500000000000003          4.5282583016614808E-008
  0.15610000000000002          6.7434854145176359E-008
  0.15720000000000001         -1.0699117147794368E-008
  0.15830000000000000         -7.4875181610423169E-008
  0.15940000000000004         -3.0189870159347265E-008
  0.16050000000000003          5.6176464369173118E-008
  0.16160000000000002          5.7652556506582187E-008
  0.16270000000000001         -2.1882321732391574E-008
  0.16380000000000000         -5.9858869860818231E-008
  0.16490000000000005         -4.3455514742163359E-009
  0.16600000000000004          5.1943302992185636E-008
  0.16710000000000003          2.1237033465126842E-008
  0.16820000000000002         -4.3692761408919978E-008
  0.16930000000000001         -3.6119377710974732E-008
  0.17040000000000000          3.4482791733125850E-008
  0.17150000000000004          5.6476885390566167E-008
  0.17260000000000003         -8.8833775890861943E-009
  0.17370000000000002         -6.4358687268395443E-008
  0.17480000000000001         -2.4806904974639110E-008
  0.17590000000000000          5.1627129238340785E-008
  0.17700000000000005          5.1231669573326144E-008
  0.17810000000000004         -2.3759424649938410E-008
  0.17920000000000003         -6.0823246883501270E-008
  0.18030000000000002         -8.3047879684272630E-009
  0.18140000000000001          5.0662308126447897E-008
  0.18250000000000000          2.8812237928832474E-008
  0.18360000000000004         -3.4455087671858564E-008
  0.18470000000000003         -3.9752443115048663E-008
  0.18580000000000002          1.7974850052837610E-008
  0.18690000000000001          4.5836330286874727E-008
  0.18800000000000000         -1.4881052987081311E-011
  0.18910000000000005         -4.7456129692591276E-008
  0.19020000000000004         -2.2309251335173030E-008
  0.19130000000000003          3.6892920718401001E-008
  0.19240000000000002          3.9670517537615524E-008
  0.19350000000000001         -1.7047788958279853E-008
  0.19460000000000005         -4.6131443554031648E-008
  0.19570000000000004         -4.8203476765706910E-009
  0.19680000000000003          4.1908180037353304E-008
  0.19790000000000002          2.3422996875410718E-008
  0.19900000000000001         -2.9429120473878356E-008
  0.20010000000000000         -3.4907472468148626E-008
  0.20120000000000005          1.3788572061912419E-008
  0.20230000000000004          4.1071505307854750E-008
  0.20340000000000003          6.8290315624608411E-009
  0.20450000000000002         -3.4034467688570658E-008
  0.20560000000000000         -1.8505145860103767E-008
  0.20670000000000005          2.8525324324846224E-008
  0.20780000000000004          3.4857659869658164E-008
  0.20890000000000003         -8.4850713122364141E-009
