 -0.12000000000000000          0.0000000000000000
 -0.11889999999999999          0.0000000000000000
 -0.11780000000000000          0.0000000000000000
 -0.11670000000000000          0.0000000000000000
 -0.11559999999999999          0.0000000000000000
 -0.11449999999999999          0.0000000000000000
 -0.11340000000000000          0.0000000000000000
 -0.11230000000000000          0.0000000000000000
 -0.11119999999999999          0.0000000000000000
 -0.11009999999999999          0.0000000000000000
 -0.10900000000000000          0.0000000000000000
 -0.10790000000000000          0.0000000000000000
 -0.10679999999999999          0.0000000000000000
 -0.10569999999999999          0.0000000000000000
 -0.10460000000000000          0.0000000000000000
 -0.10349999999999999          0.0000000000000000
 -0.10239999999999999         -1.2766613737139105E-039
 -0.10130000000000000          1.9098899328622592E-038
 -0.10020000000000000         -7.6438942278588861E-038
  -9.9099999999999994E-002    -2.3702598065414785E-037
  -9.7999999999999990E-002     2.3041687415623085E-036
  -9.6899999999999986E-002     5.7694137058916508E-038
  -9.5799999999999996E-002    -3.4945197080290737E-035
  -9.4699999999999993E-002     2.8432946897298244E-035
  -9.3599999999999989E-002     3.9417066872631616E-034
  -9.2499999999999999E-002    -4.1312634165279097E-034
  -9.1399999999999995E-002    -3.7573898159027000E-033
  -9.0299999999999991E-002     3.4174489719303874E-033
  -8.9200000000000002E-002     3.1596315428527783E-032
  -8.8099999999999984E-002    -1.6454010093625801E-032
  -8.6999999999999994E-002    -2.3471843317275738E-031
  -8.5899999999999990E-002    -3.1433850354300634E-033
  -8.4799999999999986E-002     1.5118065759767263E-030
  -8.3699999999999997E-002     9.6947627050169274E-031
  -8.2599999999999993E-002    -8.1690628202485104E-030
  -8.1499999999999989E-002    -1.1438201759376858E-029
  -8.0399999999999999E-002     3.4766294530767375E-029
  -7.9299999999999995E-002     8.7477790393165240E-029
  -7.8199999999999992E-002    -9.6454874864632262E-029
  -7.7100000000000002E-002    -5.0348652460092479E-028
  -7.5999999999999984E-002    -2.3846029500215930E-029
  -7.4899999999999994E-002     2.2161862685268529E-027
  -7.3799999999999991E-002     2.2836540981876654E-027
  -7.2699999999999987E-002    -6.9387904778168874E-027
  -7.1599999999999997E-002    -1.6393022648558388E-026
  -7.0499999999999993E-002     9.9998565980781603E-027
  -6.9399999999999989E-002     7.3272956913976893E-026
  -6.8300000000000000E-002     4.2752310595476913E-026
  -6.7199999999999996E-002    -2.1728793995002133E-025
  -6.6099999999999992E-002    -3.9428328074787561E-025
  -6.5000000000000002E-002     2.9600883806818857E-025
  -6.3899999999999985E-002     1.6577874452326565E-024
  -6.2799999999999995E-002     9.6609941239290046E-025
  -6.1699999999999991E-002    -4.1325018889722780E-024
  -6.0599999999999994E-002    -7.9081018051781293E-024
  -5.9499999999999990E-002     3.0338720695652108E-024
  -5.8399999999999994E-002     2.7065584155304970E-023
  -5.7299999999999990E-002     2.4240651165603180E-023
  -5.6199999999999986E-002    -4.6631401420357741E-023
  -5.5099999999999996E-002    -1.2461345418963202E-022
  -5.3999999999999992E-002    -2.9612431054141869E-023
  -5.2899999999999989E-002     2.9122245509412016E-022
  -5.1799999999999985E-002     4.4413202178789330E-022
  -5.0699999999999995E-002    -1.6841929153156380E-022
  -4.9599999999999991E-002    -1.3077782030013054E-021
  -4.8499999999999988E-002    -1.2784100600814051E-021
  -4.7399999999999998E-002     1.4145171166859114E-021
  -4.6299999999999994E-002     4.7750337757976819E-021
  -4.5199999999999990E-002     3.0985798005324282E-021
  -4.4099999999999986E-002    -6.3425256885078973E-021
  -4.2999999999999997E-002    -1.5058564557586446E-020
  -4.1899999999999993E-002    -7.0256795353518812E-021
  -4.0799999999999989E-002     2.1064170454534189E-020
  -3.9699999999999985E-002     4.2842262401186996E-020
  -3.8599999999999995E-002     1.8789853516190978E-020
  -3.7499999999999992E-002    -5.4608441325659254E-020
  -3.6399999999999988E-002    -1.1360088819906127E-019
  -3.5299999999999984E-002    -6.7716591547028087E-020
  -3.4199999999999994E-002     1.0299799017212853E-019
  -3.3099999999999991E-002     2.8347332250645647E-019
  -3.1999999999999987E-002     2.7091400662151657E-019
  -3.0899999999999997E-002    -7.3058943995550352E-020
  -2.9799999999999993E-002    -6.4252412132913999E-019
  -2.8699999999999989E-002    -9.8929239957935916E-019
  -2.7599999999999986E-002    -4.7437060710872119E-019
  -2.6499999999999996E-002     1.1668171463569678E-018
  -2.5399999999999992E-002     3.0402353398090364E-018
  -2.4299999999999988E-002     2.9736247598268256E-018
  -2.3199999999999985E-002    -9.1920528288016456E-019
  -2.2099999999999995E-002    -7.4135276578483180E-018
  -2.0999999999999991E-002    -1.0854287158977981E-017
  -1.9899999999999987E-002    -4.4719981261740093E-018
  -1.8799999999999983E-002     1.2324344271801096E-017
  -1.7699999999999994E-002     2.8849945492203920E-017
  -1.6599999999999990E-002     2.7392003266632256E-017
  -1.5499999999999986E-002    -2.9333381688633492E-018
  -1.4399999999999996E-002    -5.2092106048388294E-017
  -1.3299999999999992E-002    -8.7133326371984215E-017
  -1.2199999999999989E-002    -6.7578961979687852E-017
  -1.1099999999999985E-002     2.7003390506132394E-017
  -9.9999999999999950E-003     1.6931181440499619E-016
  -8.8999999999999913E-003     2.7278256667983354E-016
  -7.7999999999999875E-003     2.1641738124461677E-016
  -6.6999999999999837E-003    -8.0198978652723578E-017
  -5.5999999999999939E-003    -5.5099514394715918E-016
  -4.4999999999999901E-003    -9.1909342820901269E-016
  -3.3999999999999864E-003    -7.7278600956492863E-016
  -2.2999999999999826E-003     1.7499097179298926E-016
  -1.1999999999999927E-003     1.7388286211556751E-015
  -9.9999999999988987E-005     3.0624027280517184E-015
   1.0000000000000148E-003     2.8381554139473523E-015
   2.1000000000000185E-003     5.3849381776585747E-017
   3.2000000000000084E-003    -4.9650127928555377E-015
   4.3000000000000121E-003    -9.8359058257110193E-015
   5.4000000000000159E-003    -1.0521855129254180E-014
   6.5000000000000058E-003    -3.3293028097315484E-015
   7.6000000000000234E-003     1.1960195847756077E-014
   8.7000000000000133E-003     2.9482076095753776E-014
   9.8000000000000032E-003     3.7523596832815184E-014
   1.0900000000000021E-002     2.3235023456570809E-014
   1.2000000000000011E-002    -1.8785469599151561E-014
   1.3100000000000001E-002    -7.7669695761756197E-014
   1.4200000000000018E-002    -1.2313800424202520E-013
   1.5300000000000008E-002    -1.1368807100158723E-013
   1.6400000000000026E-002    -1.7687199903478057E-014
   1.7500000000000016E-002     1.5864635722739190E-013
   1.8600000000000005E-002     3.5069600760710695E-013
   1.9700000000000023E-002     4.4054365190560052E-013
   2.0800000000000013E-002     3.0007780657016758E-013
   2.1900000000000003E-002    -1.3280302964095714E-013
   2.3000000000000020E-002    -7.7358643579480968E-013
   2.4100000000000010E-002    -1.3536789961535178E-012
   2.5200000000000000E-002    -1.4736817452107309E-012
   2.6300000000000018E-002    -7.6680719066080094E-013
   2.7400000000000008E-002     8.6273647731047176E-013
   2.8500000000000025E-002     3.0244736836521069E-012
   2.9600000000000015E-002     4.7866172830923759E-012
   3.0700000000000005E-002     4.8986153675101285E-012
   3.1800000000000023E-002     2.3125498911646947E-012
   3.2900000000000013E-002    -3.1295853495511006E-012
   3.4000000000000002E-002    -1.0129804113578889E-011
   3.5100000000000020E-002    -1.5848228979153944E-011
   3.6200000000000010E-002    -1.6574941072433624E-011
   3.7300000000000028E-002    -9.1790776368672056E-012
   3.8400000000000017E-002     7.0256608690477673E-012
   3.9500000000000007E-002     2.8727511688919627E-011
   4.0600000000000025E-002     4.8272951608252512E-011
   4.1700000000000015E-002     5.5237425744536495E-011
   4.2800000000000005E-002     4.0006113005697230E-011
   4.3900000000000022E-002    -1.4369645881182058E-012
   4.5000000000000012E-002    -6.3189280197217812E-011
   4.6100000000000002E-002    -1.2770240420678647E-010
   4.7200000000000020E-002    -1.6843336447802670E-010
   4.8300000000000010E-002    -1.5741841163929848E-010
   4.9400000000000027E-002    -7.6404507720617687E-011
   5.0500000000000017E-002     7.1805103529776204E-011
   5.1600000000000007E-002     2.5637339473583154E-010
   5.2700000000000025E-002     4.2017672674532491E-010
   5.3800000000000014E-002     4.9261722478988190E-010
   5.4900000000000004E-002     4.1232040004501869E-010
   5.6000000000000022E-002     1.5443664402869928E-010
   5.7100000000000012E-002    -2.4606169879426432E-010
   5.8200000000000002E-002    -6.8483163584431850E-010
   5.9300000000000019E-002    -1.0000560379808121E-009
   6.0400000000000009E-002    -1.0081994128441352E-009
   6.1500000000000027E-002    -5.5865184700465420E-010
   6.2600000000000017E-002     4.0508693621710279E-010
   6.3700000000000007E-002     1.7948548203250425E-009
   6.4800000000000024E-002     3.3552443046147573E-009
   6.5900000000000014E-002     4.6811483578323987E-009
   6.7000000000000004E-002     5.2776010228683390E-009
   6.8100000000000022E-002     4.6519410545897699E-009
   6.9200000000000012E-002     2.4171278312223876E-009
   7.0300000000000029E-002    -1.6214690701232826E-009
   7.1400000000000019E-002    -7.4228965196709851E-009
   7.2500000000000009E-002    -1.4729611308439416E-008
   7.3600000000000027E-002    -2.3152047390340158E-008
   7.4700000000000016E-002    -3.2304097175028801E-008
   7.5800000000000006E-002    -4.1959804519819954E-008
   7.6900000000000024E-002    -5.2192699939723752E-008
   7.8000000000000014E-002    -6.3462685773174599E-008
   7.9100000000000004E-002    -7.6628303702364065E-008
   8.0200000000000021E-002    -9.2882849855868699E-008
   8.1300000000000011E-002    -1.1363643181994121E-007
   8.2400000000000029E-002    -1.4038062090548920E-007
   8.3500000000000019E-002    -1.7458229706335260E-007
   8.4600000000000009E-002    -2.1764788016298553E-007
   8.5700000000000026E-002    -2.7097735255665611E-007
   8.6800000000000016E-002    -3.3610541549933259E-007
   8.7900000000000006E-002    -4.1489641944281175E-007
   8.9000000000000024E-002    -5.0975108933926094E-007
   9.0100000000000013E-002    -6.2377046106121270E-007
   9.1200000000000003E-002    -7.6084774036644376E-007
   9.2300000000000021E-002    -9.2567989895542269E-007
   9.3400000000000011E-002    -1.1237191301916027E-006
   9.4500000000000028E-002    -1.3611091844722978E-006
   9.5600000000000018E-002    -1.6446572317363461E-006
   9.6700000000000008E-002    -1.9818808141280897E-006
   9.7800000000000026E-002    -2.3811353457858786E-006
   9.8900000000000016E-002    -2.8518318231363082E-006
  0.10000000000000001         -3.4046763630612986E-006
  0.10110000000000002         -4.0518875721318182E-006
  0.10220000000000001         -4.8073779908008873E-006
  0.10330000000000003         -5.6868329920689575E-006
  0.10440000000000002         -6.7076784944219980E-006
  0.10550000000000001         -7.8890170698286965E-006
  0.10660000000000003         -9.2515374490176328E-006
  0.10770000000000002         -1.0817460861289874E-005
  0.10880000000000001         -1.2610519661393482E-005
  0.10990000000000003         -1.4655934137408622E-005
  0.11100000000000002         -1.6980422515189275E-005
  0.11210000000000001         -1.9612167307059281E-005
  0.11320000000000002         -2.2580694349016994E-005
  0.11430000000000001         -2.5916662707459182E-005
  0.11540000000000003         -2.9651559088961221E-005
  0.11650000000000002         -3.3817101211752743E-005
  0.11760000000000001         -3.8444752135546878E-005
  0.11870000000000003         -4.3565160012803972E-005
  0.11980000000000002         -4.9207312258658931E-005
  0.12090000000000001         -5.5397882533725351E-005
  0.12200000000000003         -6.2160310335457325E-005
  0.12310000000000001         -6.9513720518443733E-005
  0.12420000000000003         -7.7472010161727667E-005
  0.12530000000000002         -8.6042746261227876E-005
  0.12640000000000001         -9.5226139819715172E-005
  0.12750000000000003         -1.0501388169359416E-004
  0.12860000000000002         -1.1538764374563470E-004
  0.12970000000000001         -1.2631819117814302E-004
  0.13080000000000003         -1.3776443665847182E-004
  0.13190000000000002         -1.4967190509196371E-004
  0.13300000000000001         -1.6197130025830120E-004
  0.13410000000000000         -1.7457781359553337E-004
  0.13520000000000004         -1.8739046936389059E-004
  0.13630000000000003         -2.0029109145980328E-004
  0.13740000000000002         -2.1314373589120805E-004
  0.13850000000000001         -2.2579486540053040E-004
  0.13960000000000000         -2.3807346588000655E-004
  0.14070000000000005         -2.4979212321341038E-004
  0.14180000000000004         -2.6074831839650869E-004
  0.14290000000000003         -2.7072543161921203E-004
  0.14400000000000002         -2.7949435752816498E-004
  0.14510000000000001         -2.8681627009063959E-004
  0.14620000000000000         -2.9244448523968458E-004
  0.14730000000000004         -2.9612876824103296E-004
  0.14840000000000003         -2.9761789483018219E-004
  0.14950000000000002         -2.9666451155208051E-004
  0.15060000000000001         -2.9302865732461214E-004
  0.15170000000000000         -2.8648253646679223E-004
  0.15280000000000005         -2.7681587380357087E-004
  0.15390000000000004         -2.6384135708212852E-004
  0.15500000000000003         -2.4740037042647600E-004
  0.15610000000000002         -2.2736802930012345E-004
  0.15720000000000001         -2.0365754608064890E-004
  0.15830000000000000         -1.7622440645936877E-004
  0.15940000000000004         -1.4507024025078863E-004
  0.16050000000000003         -1.1024761624867097E-004
  0.16160000000000002         -7.1863774792291224E-005
  0.16270000000000001         -3.0082637749728747E-005
  0.16380000000000000          1.4874522094032727E-005
  0.16490000000000005          6.2728831835556775E-005
  0.16600000000000004          1.1314324365230277E-004
  0.16710000000000003          1.6572298773098737E-004
  0.16820000000000002          2.2001835168339312E-004
  0.16930000000000001          2.7552963001653552E-004
  0.17040000000000000          3.3171343966387212E-004
  0.17150000000000004          3.8798901368863881E-004
  0.17260000000000003          4.4374447315931320E-004
  0.17370000000000002          4.9834407400339842E-004
  0.17480000000000001          5.5113621056079865E-004
  0.17590000000000000          6.0146447503939271E-004
  0.17700000000000005          6.4867897890508175E-004
  0.17810000000000004          6.9214584073051810E-004
  0.17920000000000003          7.3125719791278243E-004
  0.18030000000000002          7.6544121839106083E-004
  0.18140000000000001          7.9417269444093108E-004
  0.18250000000000000          8.1698369467630982E-004
  0.18360000000000004          8.3347264444455504E-004
  0.18470000000000003          8.4331404650583863E-004
  0.18580000000000002          8.4626249736174941E-004
  0.18690000000000001          8.4215804236009717E-004
  0.18800000000000000          8.3092972636222839E-004
  0.18910000000000005          8.1259908620268106E-004
  0.19020000000000004          7.8728230437263846E-004
  0.19130000000000003          7.5518962694332004E-004
  0.19240000000000002          7.1662222035229206E-004
  0.19350000000000001          6.7196763120591640E-004
  0.19460000000000005          6.2169338343665004E-004
  0.19570000000000004          5.6633912026882172E-004
  0.19680000000000003          5.0651113269850612E-004
  0.19790000000000002          4.4287313357926905E-004
  0.19900000000000001          3.7613580934703350E-004
  0.20010000000000000          3.0704279197379947E-004
  0.20120000000000005          2.3635769321117550E-004
  0.20230000000000004          1.6485266678500921E-004
  0.20340000000000003          9.3299262516666204E-005
  0.20450000000000002          2.2458401872427203E-005
  0.20560000000000000         -4.6931898395996541E-005
  0.20670000000000005         -1.1417028872529045E-004
  0.20780000000000004         -1.7860377556644380E-004
  0.20890000000000003         -2.3963558487594128E-004
