 -0.12000000000000000          0.0000000000000000
 -0.11889999999999999          0.0000000000000000
 -0.11780000000000000          0.0000000000000000
 -0.11670000000000000          0.0000000000000000
 -0.11559999999999999          0.0000000000000000
 -0.11449999999999999          0.0000000000000000
 -0.11340000000000000          0.0000000000000000
 -0.11230000000000000          0.0000000000000000
 -0.11119999999999999          0.0000000000000000
 -0.11009999999999999          0.0000000000000000
 -0.10900000000000000         -3.7337495265959402E-029
 -0.10790000000000000          1.3452980268776646E-029
 -0.10679999999999999          4.7176852879155723E-028
 -0.10569999999999999         -9.6303967721060138E-030
 -0.10460000000000000         -2.2791828592287760E-027
 -0.10349999999999999          2.2450989066309774E-027
 -0.10239999999999999          5.9567453176642251E-027
 -0.10130000000000000         -4.9226205466250032E-026
 -0.10020000000000000         -7.7164789863933111E-026
  -9.9099999999999994E-002     3.5427767905378928E-025
  -9.7999999999999990E-002     9.8178196718869418E-025
  -9.6899999999999986E-002    -6.6351021712810096E-025
  -9.5799999999999996E-002    -5.6465484248666720E-024
  -9.4699999999999993E-002    -5.2667477921739423E-024
  -9.3599999999999989E-002     1.2807478651512457E-023
  -9.2499999999999999E-002     3.4929082187180092E-023
  -9.1399999999999995E-002     1.6565168664156623E-023
  -9.0299999999999991E-002    -5.5165396511790895E-023
  -8.9200000000000002E-002    -1.2455049677850814E-022
  -8.8099999999999984E-002    -1.5215414086915902E-022
  -8.6999999999999994E-002    -1.0031514360274443E-022
  -8.5899999999999990E-002     3.5796271300491033E-022
  -8.4799999999999986E-002     1.5967294959948580E-021
  -8.3699999999999997E-002     2.3731379604588048E-021
  -8.2599999999999993E-002    -9.7030052900897841E-022
  -8.1499999999999989E-002    -9.7754831542453002E-021
  -8.0399999999999999E-002    -1.5159532291106200E-020
  -7.9299999999999995E-002    -9.7620428829300556E-022
  -7.8199999999999992E-002     3.4926205331365609E-020
  -7.7100000000000002E-002     6.3323403002016279E-020
  -7.5999999999999984E-002     4.1270735559609884E-020
  -7.4899999999999994E-002    -4.8335365285172782E-020
  -7.3799999999999991E-002    -1.8226357403404542E-019
  -7.2699999999999987E-002    -2.9687581977892347E-019
  -7.1599999999999997E-002    -2.4095342143726934E-019
  -7.0499999999999993E-002     2.3416997172766339E-019
  -6.9399999999999989E-002     1.1815491296689606E-018
  -6.8300000000000000E-002     1.9091233411953435E-018
  -6.7199999999999996E-002     9.8054941069740337E-019
  -6.6099999999999992E-002    -2.4318686078995080E-018
  -6.5000000000000002E-002    -6.6677163885618254E-018
  -6.3899999999999985E-002    -7.5772531708521639E-018
  -6.2799999999999995E-002    -1.5040699524306832E-018
  -6.1699999999999991E-002     1.1101688608386466E-017
  -6.0599999999999994E-002     2.4575488022474924E-017
  -5.9499999999999990E-002     2.9130343176247145E-017
  -5.8399999999999994E-002     1.2619710616209081E-017
  -5.7299999999999990E-002    -3.3211179171273403E-017
  -5.6199999999999986E-002    -9.6724485574536571E-017
  -5.5099999999999996E-002    -1.3118864815920325E-016
  -5.3999999999999992E-002    -7.0001959282312882E-017
  -5.2899999999999989E-002     1.1374939121064988E-016
  -5.1799999999999985E-002     3.4495157373091285E-016
  -5.0699999999999995E-002     4.5484308720884401E-016
  -4.9599999999999991E-002     2.8070640108271991E-016
  -4.8499999999999988E-002    -2.1407225141613503E-016
  -4.7399999999999998E-002    -8.8235093890213405E-016
  -4.6299999999999994E-002    -1.4008286997624375E-015
  -4.5199999999999990E-002    -1.3201914808211833E-015
  -4.4099999999999986E-002    -2.3408695174548450E-016
  -4.2999999999999997E-002     1.8395952604510725E-015
  -4.1899999999999993E-002     4.0546179694983531E-015
  -4.0799999999999989E-002     4.8309295948875501E-015
  -3.9699999999999985E-002     2.7573759993500778E-015
  -3.8599999999999995E-002    -2.2062756115592223E-015
  -3.7499999999999992E-002    -8.2677750957342935E-015
  -3.6399999999999988E-002    -1.2530708113115633E-014
  -3.5299999999999984E-002    -1.2231592827352880E-014
  -3.4199999999999994E-002    -5.6350827697365224E-015
  -3.3099999999999991E-002     7.2450853029113436E-015
  -3.1999999999999987E-002     2.3495126945881871E-014
  -3.0899999999999997E-002     3.6482837286128458E-014
  -2.9799999999999993E-002     3.7469955930331464E-014
  -2.8699999999999989E-002     2.0199868931399315E-014
  -2.7599999999999986E-002    -1.4547142041855012E-014
  -2.6499999999999996E-002    -5.8218810631768814E-014
  -2.5399999999999992E-002    -9.7321246385079913E-014
  -2.4299999999999988E-002    -1.1583331407764852E-013
  -2.3199999999999985E-002    -9.5981951770199303E-014
  -2.2099999999999995E-002    -2.2458375559101552E-014
  -2.0999999999999991E-002     1.0538202526323009E-013
  -1.9899999999999987E-002     2.5925298691685528E-013
  -1.8799999999999983E-002     3.7992075848161666E-013
  -1.7699999999999994E-002     3.9509248737218394E-013
  -1.6599999999999990E-002     2.4860170345919474E-013
  -1.5499999999999986E-002    -7.4176525111015884E-014
  -1.4399999999999996E-002    -5.2987963409384387E-013
  -1.3299999999999992E-002    -1.0064086066255418E-012
  -1.2199999999999989E-002    -1.3242385703618464E-012
  -1.1099999999999985E-002    -1.2707109670051508E-012
  -9.9999999999999950E-003    -6.7844802041985841E-013
  -8.8999999999999913E-003     4.7666753356934155E-013
  -7.7999999999999875E-003     2.0073484974930667E-012
  -6.6999999999999837E-003     3.5112154069677493E-012
  -5.5999999999999939E-003     4.4323269013379907E-012
  -4.4999999999999901E-003     4.1779205962877430E-012
  -3.3999999999999864E-003     2.2929195434701066E-012
  -2.2999999999999826E-003    -1.3153478957070308E-012
  -1.1999999999999927E-003    -6.1643971177582912E-012
  -9.9999999999988987E-005    -1.1109014749766111E-011
   1.0000000000000148E-003    -1.4475202286812205E-011
   2.1000000000000185E-003    -1.4431194086950150E-011
   3.2000000000000084E-003    -9.5313991074763571E-012
   4.3000000000000121E-003     6.7372171209945098E-013
   5.4000000000000159E-003     1.5105300690820833E-011
   6.5000000000000058E-003     3.0896327163354442E-011
   7.6000000000000234E-003     4.3611465133652771E-011
   8.7000000000000133E-003     4.8054008688902528E-011
   9.8000000000000032E-003     3.9579600014105765E-011
   1.0900000000000021E-002     1.5664710847906882E-011
   1.2000000000000011E-002    -2.2618799194740191E-011
   1.3100000000000001E-002    -6.9631099497424742E-011
   1.4200000000000018E-002    -1.1514249276256550E-010
   1.5300000000000008E-002    -1.4563512895637842E-010
   1.6400000000000026E-002    -1.4700293760050442E-010
   1.7500000000000016E-002    -1.0827111429634328E-010
   1.8600000000000005E-002    -2.5563197392219905E-011
   1.9700000000000023E-002     9.4651869675388411E-011
   2.0800000000000013E-002     2.3404869708976150E-010
   2.1900000000000003E-002     3.6363539956951740E-010
   2.3000000000000020E-002     4.4830258949524193E-010
   2.4100000000000010E-002     4.5464196296585158E-010
   2.5200000000000000E-002     3.6086272858781854E-010
   2.6300000000000018E-002     1.6667946189929950E-010
   2.7400000000000008E-002    -9.9402749920152189E-011
   2.8500000000000025E-002    -3.7786063167288830E-010
   2.9600000000000015E-002    -5.8291860227654979E-010
   3.0700000000000005E-002    -6.1527155592600025E-010
   3.1800000000000023E-002    -3.8215902664617829E-010
   3.2900000000000013E-002     1.7778467586992974E-010
   3.4000000000000002E-002     1.0693083085655530E-009
   3.5100000000000020E-002     2.2203150429334073E-009
   3.6200000000000010E-002     3.4717433372577489E-009
   3.7300000000000028E-002     4.5813406401862267E-009
   3.8400000000000017E-002     5.2426858410115074E-009
   3.9500000000000007E-002     5.1177169169136505E-009
   4.0600000000000025E-002     3.8776679645025069E-009
   4.1700000000000015E-002     1.2444542063505537E-009
   4.2800000000000005E-002    -2.9761877406997428E-009
   4.3900000000000022E-002    -8.8783957963300963E-009
   4.5000000000000012E-002    -1.6462456287058558E-008
   4.6100000000000002E-002    -2.5666617275987846E-008
   4.7200000000000020E-002    -3.6422225235810402E-008
   4.8300000000000010E-002    -4.8726665369258626E-008
   4.9400000000000027E-002    -6.2723749749693525E-008
   5.0500000000000017E-002    -7.8780544754408766E-008
   5.1600000000000007E-002    -9.7548820576776052E-008
   5.2700000000000025E-002    -1.2000276683465927E-007
   5.3800000000000014E-002    -1.4745167220553412E-007
   5.4900000000000004E-002    -1.8152697123241524E-007
   5.6000000000000022E-002    -2.2415403577724646E-007
   5.7100000000000012E-002    -2.7752136588787835E-007
   5.8200000000000002E-002    -3.4406139093334787E-007
   5.9300000000000019E-002    -4.2645666553653427E-007
   6.0400000000000009E-002    -5.2768433533856296E-007
   6.1500000000000027E-002    -6.5110458535855287E-007
   6.2600000000000017E-002    -8.0058867979460047E-007
   6.3700000000000007E-002    -9.8067914677812951E-007
   6.4800000000000024E-002    -1.1967565569648286E-006
   6.5900000000000014E-002    -1.4552122138411505E-006
   6.7000000000000004E-002    -1.7635912854530034E-006
   6.8100000000000022E-002    -2.1306977942003869E-006
   6.9200000000000012E-002    -2.5666854526207317E-006
   7.0300000000000029E-002    -3.0831145068077603E-006
   7.1400000000000019E-002    -3.6929957332176855E-006
   7.2500000000000009E-002    -4.4108423935540486E-006
   7.3600000000000027E-002    -5.2527389016177040E-006
   7.4700000000000016E-002    -6.2364697441807948E-006
   7.5800000000000006E-002    -7.3816504482238088E-006
   7.6900000000000024E-002    -8.7099342636065558E-006
   7.8000000000000014E-002    -1.0245107660011854E-005
   7.9100000000000004E-002    -1.2013259038212709E-005
   8.0200000000000021E-002    -1.4042802831681911E-005
   8.1300000000000011E-002    -1.6364445400540717E-005
   8.2400000000000029E-002    -1.9011100448551588E-005
   8.3500000000000019E-002    -2.2017684386810288E-005
   8.4600000000000009E-002    -2.5420893507543951E-005
   8.5700000000000026E-002    -2.9258750146254897E-005
   8.6800000000000016E-002    -3.3570191590115428E-005
   8.7900000000000006E-002    -3.8394748116843402E-005
   8.9000000000000024E-002    -4.3771902710432187E-005
   9.0100000000000013E-002    -4.9740672693587840E-005
   9.1200000000000003E-002    -5.6338729336857796E-005
   9.2300000000000021E-002    -6.3601626607123762E-005
   9.3400000000000011E-002    -7.1561924414709210E-005
   9.4500000000000028E-002    -8.0248006270267069E-005
   9.5600000000000018E-002    -8.9683206169866025E-005
   9.6700000000000008E-002    -9.9884084193035960E-005
   9.7800000000000026E-002    -1.1085904407082126E-004
   9.8900000000000016E-002    -1.2260689982213080E-004
  0.10000000000000001         -1.3511552242562175E-004
  0.10110000000000002         -1.4835983165539801E-004
  0.10220000000000001         -1.6230030450969934E-004
  0.10330000000000003         -1.7688142543192953E-004
  0.10440000000000002         -1.9203023111913353E-004
  0.10550000000000001         -2.0765508816111833E-004
  0.10660000000000003         -2.2364465985447168E-004
  0.10770000000000002         -2.3986688756849617E-004
  0.10880000000000001         -2.5616906350478530E-004
  0.10990000000000003         -2.7237599715590477E-004
  0.11100000000000002         -2.8829113580286503E-004
  0.11210000000000001         -3.0369620071724057E-004
  0.11320000000000002         -3.1835259869694710E-004
  0.11430000000000001         -3.3200325560756028E-004
  0.11540000000000003         -3.4437273279763758E-004
  0.11650000000000002         -3.5516990465112031E-004
  0.11760000000000001         -3.6409116000868380E-004
  0.11870000000000003         -3.7082418566569686E-004
  0.11980000000000002         -3.7505276850424707E-004
  0.12090000000000001         -3.7646072451025248E-004
  0.12200000000000003         -3.7473719567060471E-004
  0.12310000000000001         -3.6958331475034356E-004
  0.12420000000000003         -3.6071732756681740E-004
  0.12530000000000002         -3.4787991899065673E-004
  0.12640000000000001         -3.3084172173403203E-004
  0.12750000000000003         -3.0941009754315019E-004
  0.12860000000000002         -2.8343536541797221E-004
  0.12970000000000001         -2.5281618582084775E-004
  0.13080000000000003         -2.1750491578131914E-004
  0.13190000000000002         -1.7751360428519547E-004
  0.13300000000000001         -1.3291934737935662E-004
  0.13410000000000000         -8.3867846115026623E-005
  0.13520000000000004         -3.0576244171243161E-005
  0.13630000000000003          2.6665007681003772E-005
  0.13740000000000002          8.7491658632643521E-005
  0.13850000000000001          1.5146688383538276E-004
  0.13960000000000000          2.1808383462484926E-004
  0.14070000000000005          2.8676923830062151E-004
  0.14180000000000004          3.5688793286681175E-004
  0.14290000000000003          4.2774848407134414E-004
  0.14400000000000002          4.9861194565892220E-004
  0.14510000000000001          5.6870275875553489E-004
  0.14620000000000000          6.3721759943291545E-004
  0.14730000000000004          7.0333783514797688E-004
  0.14840000000000003          7.6623819768428802E-004
  0.14950000000000002          8.2510185893625021E-004
  0.15060000000000001          8.7913509923964739E-004
  0.15170000000000000          9.2757988022640347E-004
  0.15280000000000005          9.6972699975594878E-004
  0.15390000000000004          1.0049269767478108E-003
  0.15500000000000003          1.0326036717742682E-003
  0.15610000000000002          1.0522651718929410E-003
  0.15720000000000001          1.0635142680257559E-003
  0.15830000000000000          1.0660554980859160E-003
  0.15940000000000004          1.0597034124657512E-003
  0.16050000000000003          1.0443872306495905E-003
  0.16160000000000002          1.0201536351814866E-003
  0.16270000000000001          9.8716560751199722E-004
  0.16380000000000000          9.4570120563730597E-004
  0.16490000000000005          8.9615274919196963E-004
  0.16600000000000004          8.3902262849733233E-004
  0.16710000000000003          7.7491387492045760E-004
  0.16820000000000002          7.0451776264235377E-004
  0.16930000000000001          6.2860490288585424E-004
  0.17040000000000000          5.4801494115963578E-004
  0.17150000000000004          4.6364683657884598E-004
  0.17260000000000003          3.7644273834303021E-004
  0.17370000000000002          2.8736813692376018E-004
  0.17480000000000001          1.9739582785405219E-004
  0.17590000000000000          1.0749312059488147E-004
  0.17700000000000005          1.8610686311149038E-005
  0.17810000000000004         -6.8331835791468620E-005
  0.17920000000000003         -1.5246136172208935E-004
  0.18030000000000002         -2.3296542349271476E-004
  0.18140000000000001         -3.0910258647054434E-004
  0.18250000000000000         -3.8021046202629805E-004
  0.18360000000000004         -4.4571029138751328E-004
  0.18470000000000003         -5.0511339213699102E-004
  0.18580000000000002         -5.5802630959078670E-004
  0.18690000000000001         -6.0415489133447409E-004
  0.18800000000000000         -6.4330763416364789E-004
  0.18910000000000005         -6.7539350129663944E-004
  0.19020000000000004         -7.0041546132415533E-004
  0.19130000000000003         -7.1846169885247946E-004
  0.19240000000000002         -7.2970363544300199E-004
  0.19350000000000001         -7.3439080733805895E-004
  0.19460000000000005         -7.3284481186419725E-004
  0.19570000000000004         -7.2545208968222141E-004
  0.19680000000000003         -7.1264657890424132E-004
  0.19790000000000002         -6.9489877205342054E-004
  0.19900000000000001         -6.7271030275151134E-004
  0.20010000000000000         -6.4660911448299885E-004
  0.20120000000000005         -6.1714008916169405E-004
  0.20230000000000004         -5.8485456975176930E-004
  0.20340000000000003         -5.5029580835253000E-004
  0.20450000000000002         -5.1399221410974860E-004
  0.20560000000000000         -4.7645106678828597E-004
  0.20670000000000005         -4.3815677054226398E-004
  0.20780000000000004         -3.9956660475581884E-004
  0.20890000000000003         -3.6110388464294374E-004
