 -0.12000000000000000          0.0000000000000000
 -0.11889999999999999          0.0000000000000000
 -0.11780000000000000          0.0000000000000000
 -0.11670000000000000          0.0000000000000000
 -0.11559999999999999          0.0000000000000000
 -0.11449999999999999          0.0000000000000000
 -0.11340000000000000          0.0000000000000000
 -0.11230000000000000          0.0000000000000000
 -0.11119999999999999          0.0000000000000000
 -0.11009999999999999          0.0000000000000000
 -0.10900000000000000          3.7337492256693864E-029
 -0.10790000000000000         -1.5412609473292351E-029
 -0.10679999999999999         -4.7066188944551233E-028
 -0.10569999999999999          3.4946311804522357E-029
 -0.10460000000000000          2.2726645493319974E-027
 -0.10349999999999999         -2.3659278994819438E-027
 -0.10239999999999999         -5.7739537658984771E-027
 -0.10130000000000000          4.9473433241351133E-026
 -0.10020000000000000          7.3761317281091098E-026
  -9.9099999999999994E-002    -3.5826206757464089E-025
  -9.7999999999999990E-002    -9.5600840230092643E-025
  -9.6899999999999986E-002     7.2430442373844373E-025
  -9.5799999999999996E-002     5.5817577009990598E-024
  -9.4699999999999993E-002     4.8780898292373912E-024
  -9.3599999999999989E-002    -1.3090442269354329E-023
  -9.2499999999999999E-002    -3.3913111382789572E-023
  -9.1399999999999995E-002    -1.4170018139671914E-023
  -9.0299999999999991E-002     5.5987023543571166E-023
  -8.9200000000000002E-002     1.2020272460926237E-022
  -8.8099999999999984E-002     1.4260000032142492E-022
  -8.6999999999999994E-002     8.8055147041229836E-023
  -8.5899999999999990E-002    -3.6374000210861245E-022
  -8.4799999999999986E-002    -1.5562638850522493E-021
  -8.3699999999999997E-002    -2.2292374124945963E-021
  -8.2599999999999993E-002     1.1398426662203721E-021
  -8.1499999999999989E-002     9.5910461114529834E-021
  -8.0399999999999999E-002     1.4230820105123690E-020
  -7.9299999999999995E-002    -2.0210422016435276E-022
  -7.8199999999999992E-002    -3.4533265459834511E-020
  -7.7100000000000002E-002    -5.9679659479023121E-020
  -7.5999999999999984E-002    -3.5590618771353222E-020
  -7.4899999999999994E-002     5.0935820798234899E-020
  -7.3799999999999991E-002     1.7517769933767183E-019
  -7.2699999999999987E-002     2.7621129711370031E-019
  -7.1599999999999997E-002     2.1148655968113970E-019
  -7.0499999999999993E-002    -2.4874879737936322E-019
  -6.9399999999999989E-002    -1.1344296132554900E-018
  -6.8300000000000000E-002    -1.7642939421046590E-018
  -6.7199999999999996E-002    -7.9612220359955772E-019
  -6.6099999999999992E-002     2.4487974795208651E-018
  -6.5000000000000002E-002     6.2714509666249284E-018
  -6.3899999999999985E-002     6.7751080067186661E-018
  -6.2799999999999995E-002     7.9459827841729362E-019
  -6.1699999999999991E-002    -1.0857180636760691E-017
  -6.0599999999999994E-002    -2.2700540889058128E-017
  -5.9499999999999990E-002    -2.5839912998101032E-017
  -5.8399999999999994E-002    -9.5859223220942827E-018
  -5.7299999999999990E-002     3.2789356763540762E-017
  -5.6199999999999986E-002     8.9371114626736172E-017
  -5.5099999999999996E-002     1.1655937007360682E-016
  -5.3999999999999992E-002     5.5178482349946151E-017
  -5.2899999999999989E-002    -1.1382576975969057E-016
  -5.1799999999999985E-002    -3.1578534415097070E-016
  -5.0699999999999995E-002    -3.9751624144580778E-016
  -4.9599999999999991E-002    -2.2280148180296223E-016
  -4.8499999999999988E-002     2.2402870019463570E-016
  -4.7399999999999998E-002     7.9938395583945693E-016
  -4.6299999999999994E-002     1.2179058996931221E-015
  -4.5199999999999990E-002     1.0986558368183334E-015
  -4.4099999999999986E-002     1.1228317717895268E-016
  -4.2999999999999997E-002    -1.6862926731516480E-015
  -4.1899999999999993E-002    -3.5227653466426674E-015
  -4.0799999999999989E-002    -4.0350845427017216E-015
  -3.9699999999999985E-002    -2.1037185563715661E-015
  -3.8599999999999995E-002     2.1420535734984012E-015
  -3.7499999999999992E-002     7.0666590831216462E-015
  -3.6399999999999988E-002     1.0296897578023542E-014
  -3.5299999999999984E-002     9.7682168817970864E-015
  -3.4199999999999994E-002     4.2955281157411058E-015
  -3.3099999999999991E-002    -6.0232047011132307E-015
  -3.1999999999999987E-002    -1.8899669969232175E-014
  -3.0899999999999997E-002    -2.9128470333461207E-014
  -2.9799999999999993E-002    -2.9913741026333512E-014
  -2.8699999999999989E-002    -1.6592425065744924E-014
  -2.7599999999999986E-002     1.0003619196300318E-014
  -2.6499999999999996E-002     4.3556978634789675E-014
  -2.5399999999999992E-002     7.4719222508453503E-014
  -2.4299999999999988E-002     9.2170018904484674E-014
  -2.3199999999999985E-002     8.1799902951467524E-014
  -2.2099999999999995E-002     2.9473924250669400E-014
  -2.0999999999999991E-002    -6.8364984626059083E-014
  -1.9899999999999987E-002    -1.9201594524467791E-013
  -1.8799999999999983E-002    -2.9645459264510121E-013
  -1.7699999999999994E-002    -3.2548066347150295E-013
  -1.6599999999999990E-002    -2.3350933816765340E-013
  -1.5499999999999986E-002    -3.0124174080101108E-015
  -1.4399999999999996E-002     3.4366373679109441E-013
  -1.3299999999999992E-002     7.3275543618911421E-013
  -1.2199999999999989E-002     1.0337140214991547E-012
  -1.1099999999999985E-002     1.0800312467279527E-012
  -9.9999999999999950E-003     7.2678370483317267E-013
  -8.8999999999999913E-003    -7.5429408812749399E-014
  -7.7999999999999875E-003    -1.2280003403031259E-012
  -6.6999999999999837E-003    -2.4742850997239163E-012
  -5.5999999999999939E-003    -3.4267848975089166E-012
  -4.4999999999999901E-003    -3.6274611786568656E-012
  -3.3999999999999864E-003    -2.6573697669424190E-012
  -2.2999999999999826E-003    -3.0402007408954212E-013
  -1.1999999999999927E-003     3.2564883949148804E-012
  -9.9999999999988987E-005     7.3510494566497719E-012
   1.0000000000000148E-003     1.0849141897362191E-011
   2.1000000000000185E-003     1.2364873014369948E-011
   3.2000000000000084E-003     1.0590557077139184E-011
   4.3000000000000121E-003     4.7172010221585570E-012
   5.4000000000000159E-003    -5.1288669492000061E-012
   6.5000000000000058E-003    -1.7563410795173873E-011
   7.6000000000000234E-003    -2.9900554254780332E-011
   8.7000000000000133E-003    -3.8495116816417152E-011
   9.8000000000000032E-003    -3.9456368727819324E-011
   1.0900000000000021E-002    -2.9622870129086820E-011
   1.2000000000000011E-002    -7.6444033395017819E-012
   1.3100000000000001E-002     2.5038825179901636E-011
   1.4200000000000018E-002     6.3623835366843906E-011
   1.5300000000000008E-002     1.0011141221566433E-010
   1.6400000000000026E-002     1.2439618779502837E-010
   1.7500000000000016E-002     1.2618842082368076E-010
   1.8600000000000005E-002     9.7445461422207558E-011
   1.9700000000000023E-002     3.4873989113171078E-011
   2.0800000000000013E-002    -5.8033661209933030E-011
   2.1900000000000003E-002    -1.7009549324598083E-010
   2.3000000000000020E-002    -2.8332461377011953E-010
   2.4100000000000010E-002    -3.7591546542259380E-010
   2.5200000000000000E-002    -4.2700679103724326E-010
   2.6300000000000018E-002    -4.2232520258700390E-010
   2.7400000000000008E-002    -3.5951955301705141E-010
   2.8500000000000025E-002    -2.5193344632690184E-010
   2.9600000000000015E-002    -1.2955861383723288E-010
   3.0700000000000005E-002    -3.6094262995112203E-011
   3.1800000000000023E-002    -2.1661276938811369E-011
   3.2900000000000013E-002    -1.3178254321122296E-010
   3.4000000000000002E-002    -3.9439185250955688E-010
   3.5100000000000020E-002    -8.0729217755148852E-010
   3.6200000000000010E-002    -1.3287162481390169E-009
   3.7300000000000028E-002    -1.8733337103782333E-009
   3.8400000000000017E-002    -2.3153801098629856E-009
   3.9500000000000007E-002    -2.4991815283925689E-009
   4.0600000000000025E-002    -2.2556108092430804E-009
   4.1700000000000015E-002    -1.4214928123479353E-009
   4.2800000000000005E-002     1.4193755892843996E-010
   4.3900000000000022E-002     2.5351969412668041E-009
   4.5000000000000012E-002     5.8151594650723837E-009
   4.6100000000000002E-002     1.0000585248803873E-008
   4.7200000000000020E-002     1.5089934635170721E-008
   4.8300000000000010E-002     2.1089652690875482E-008
   4.9400000000000027E-002     2.8050173739302409E-008
   5.0500000000000017E-002     3.6104655265489782E-008
   5.1600000000000007E-002     4.5506581614063180E-008
   5.2700000000000025E-002     5.6659342106968325E-008
   5.3800000000000014E-002     7.0135534713244851E-008
   5.4900000000000004E-002     8.6684856626106921E-008
   5.6000000000000022E-002     1.0723427124048612E-007
   5.7100000000000012E-002     1.3287896649671893E-007
   5.8200000000000002E-002     1.6487334164594358E-007
   5.9300000000000019E-002     2.0462861982650793E-007
   6.0400000000000009E-002     2.5372386858180107E-007
   6.1500000000000027E-002     3.1393048516292765E-007
   6.2600000000000017E-002     3.8726039974790183E-007
   6.3700000000000007E-002     4.7603094799342216E-007
   6.4800000000000024E-002     5.8293574056733632E-007
   6.5900000000000014E-002     7.1113362309915829E-007
   6.7000000000000004E-002     8.6432487478305120E-007
   6.8100000000000022E-002     1.0468221489645657E-006
   6.9200000000000012E-002     1.2636035080504371E-006
   7.0300000000000029E-002     1.5203684142761631E-006
   7.1400000000000019E-002     1.8235637071484234E-006
   7.2500000000000009E-002     2.1804191874252865E-006
   7.3600000000000027E-002     2.5989806999859866E-006
   7.4700000000000016E-002     3.0881728889653459E-006
   7.5800000000000006E-002     3.6578219351213193E-006
   7.6900000000000024E-002     4.3187387746002059E-006
   7.8000000000000014E-002     5.0827834456868004E-006
   7.9100000000000004E-002     5.9628755479934625E-006
   8.0200000000000021E-002     6.9730308496218640E-006
   8.1300000000000011E-002     8.1283833424095064E-006
   8.2400000000000029E-002     9.4450588221661747E-006
   8.3500000000000019E-002     1.0940166248474270E-005
   8.4600000000000009E-002     1.2631583558686543E-005
   8.5700000000000026E-002     1.4537859897245653E-005
   8.6800000000000016E-002     1.6678055544616655E-005
   8.7900000000000006E-002     1.9071412680204958E-005
   8.9000000000000024E-002     2.1737096176366322E-005
   9.0100000000000013E-002     2.4694014427950606E-005
   9.1200000000000003E-002     2.7960353691014461E-005
   9.2300000000000021E-002     3.1553099688608199E-005
   9.3400000000000011E-002     3.5487762943375856E-005
   9.4500000000000028E-002     3.9777562051312998E-005
   9.5600000000000018E-002     4.4433065340854228E-005
   9.6700000000000008E-002     4.9461545131634921E-005
   9.7800000000000026E-002     5.4866137361386791E-005
   9.8900000000000016E-002     6.0645172197837383E-005
  0.10000000000000001          6.6791202698368579E-005
  0.10110000000000002          7.3290852014906704E-005
  0.10220000000000001          8.0123398220166564E-005
  0.10330000000000003          8.7260174041148275E-005
  0.10440000000000002          9.4663984782528132E-005
  0.10550000000000001          1.0228862083749846E-004
  0.10660000000000003          1.1007827561115846E-004
  0.10770000000000002          1.1796618491644040E-004
  0.10880000000000001          1.2587569653987885E-004
  0.10990000000000003          1.3371946988627315E-004
  0.11100000000000002          1.4140013081487268E-004
  0.11210000000000001          1.4880928210914135E-004
  0.11320000000000002          1.5582946070935577E-004
  0.11430000000000001          1.6233233327511698E-004
  0.11540000000000003          1.6818170843180269E-004
  0.11650000000000002          1.7323531210422516E-004
  0.11760000000000001          1.7734474386088550E-004
  0.11870000000000003          1.8035604443866760E-004
  0.11980000000000002          1.8211414862889796E-004
  0.12090000000000001          1.8246525723952800E-004
  0.12200000000000003          1.8125773931387812E-004
  0.12310000000000001          1.7834616301115602E-004
  0.12420000000000003          1.7359376943204552E-004
  0.12530000000000002          1.6687407332938164E-004
  0.12640000000000001          1.5807962336111814E-004
  0.12750000000000003          1.4711722906213254E-004
  0.12860000000000002          1.3391651737038046E-004
  0.12970000000000001          1.1843018728541210E-004
  0.13080000000000003          1.0063907393487170E-004
  0.13190000000000002          8.0553385487291962E-005
  0.13300000000000001          5.8215489843860269E-005
  0.13410000000000000          3.3699903724482283E-005
  0.13520000000000004          7.1169924922287464E-006
  0.13630000000000003         -2.1385018044384196E-005
  0.13740000000000002         -5.1622697355924174E-005
  0.13850000000000001         -8.3377723058219999E-005
  0.13960000000000000         -1.1639716831268743E-004
  0.14070000000000005         -1.5039385471027344E-004
  0.14180000000000004         -1.8505263142287731E-004
  0.14290000000000003         -2.2002853802405298E-004
  0.14400000000000002         -2.5495621957816184E-004
  0.14510000000000001         -2.8945031226612628E-004
  0.14620000000000000         -3.2311322866007686E-004
  0.14730000000000004         -3.5553894122131169E-004
  0.14840000000000003         -3.8631912320852280E-004
  0.14950000000000002         -4.1505033732391894E-004
  0.15060000000000001         -4.4134087511338294E-004
  0.15170000000000000         -4.6481675235554576E-004
  0.15280000000000005         -4.8512901412323117E-004
  0.15390000000000004         -5.0195836229249835E-004
  0.15500000000000003         -5.1502179121598601E-004
  0.15610000000000002         -5.2407837938517332E-004
  0.15720000000000001         -5.2893516840413213E-004
  0.15830000000000000         -5.2944920025765896E-004
  0.15940000000000004         -5.2553322166204453E-004
  0.16050000000000003         -5.1715533481910825E-004
  0.16160000000000002         -5.0434184959158301E-004
  0.16270000000000001         -4.8717818572185934E-004
  0.16380000000000000         -4.6580791240558028E-004
  0.16490000000000005         -4.4043172965757549E-004
  0.16600000000000004         -4.1130409226752818E-004
  0.16710000000000003         -3.7872797111049294E-004
  0.16820000000000002         -3.4305013832636178E-004
  0.16930000000000001         -3.0466052703559399E-004
  0.17040000000000000         -2.6398041518405080E-004
  0.17150000000000004         -2.2146043193060905E-004
  0.17260000000000003         -1.7757454770617187E-004
  0.17370000000000002         -1.3280384882818907E-004
  0.17480000000000001         -8.7635773525107652E-005
  0.17590000000000000         -4.2554893298074603E-005
  0.17700000000000005          1.9634869659057586E-006
  0.17810000000000004          4.5457221858669072E-005
  0.17920000000000003          8.7492349848616868E-005
  0.18030000000000002          1.2766054715029895E-004
  0.18140000000000001          1.6559383948333561E-004
  0.18250000000000000          2.0096279331482947E-004
  0.18360000000000004          2.3348047398030758E-004
  0.18470000000000003          2.6290235109627247E-004
  0.18580000000000002          2.8903575730510056E-004
  0.18690000000000001          3.1173636671155691E-004
  0.18800000000000000          3.3091180375777185E-004
  0.18910000000000005          3.4652178874239326E-004
  0.19020000000000004          3.5856768954545259E-004
  0.19130000000000003          3.6709787673316896E-004
  0.19240000000000002          3.7220213562250137E-004
  0.19350000000000001          3.7401026929728687E-004
  0.19460000000000005          3.7268875166773796E-004
  0.19570000000000004          3.6843313137069345E-004
  0.19680000000000003          3.6146468482911587E-004
  0.19790000000000002          3.5202401340939105E-004
  0.19900000000000001          3.4036833676509559E-004
  0.20010000000000000          3.2676605042070150E-004
  0.20120000000000005          3.1149224378168583E-004
  0.20230000000000004          2.9482477111741900E-004
  0.20340000000000003          2.7703872183337808E-004
  0.20450000000000002          2.5840190937742591E-004
  0.20560000000000000          2.3917148064356297E-004
  0.20670000000000005          2.1959186415188015E-004
  0.20780000000000004          1.9989296561107039E-004
  0.20890000000000003          1.8028788326773793E-004
