 -0.12000000000000000          0.0000000000000000
 -0.11889999999999999          0.0000000000000000
 -0.11780000000000000          0.0000000000000000
 -0.11670000000000000          0.0000000000000000
 -0.11559999999999999         -5.5351289340830274E-043
 -0.11449999999999999          1.4284269390081139E-015
 -0.11340000000000000         -2.4924154113612233E-015
 -0.11230000000000000         -1.3384943381520437E-014
 -0.11119999999999999          2.1669277971373552E-014
 -0.11009999999999999          9.6478529917724820E-014
 -0.10900000000000000         -6.4763014287309850E-014
 -0.10790000000000000         -5.1346746949773592E-013
 -0.10679999999999999         -1.4715527787197841E-013
 -0.10569999999999999          1.8767461543167663E-012
 -0.10460000000000000          2.3827207568105635E-012
 -0.10349999999999999         -3.7394449516059414E-012
 -0.10239999999999999         -1.1419129530843009E-011
 -0.10130000000000000         -2.0969799247733123E-012
 -0.10020000000000000          2.8348458996907411E-011
  -9.9099999999999994E-002     3.8769619459255722E-011
  -9.7999999999999990E-002    -2.0811779383178575E-011
  -9.6899999999999986E-002    -1.1168243413406387E-010
  -9.5799999999999996E-002    -9.2685956132321223E-011
  -9.4699999999999993E-002     1.0614282369703076E-010
  -9.3599999999999989E-002     3.0103766701650159E-010
  -9.2499999999999999E-002     1.8590784467420463E-010
  -9.1399999999999995E-002    -2.5472449149965826E-010
  -9.0299999999999991E-002    -5.8175575468055740E-010
  -8.9200000000000002E-002    -3.5416425347989389E-010
  -8.8099999999999984E-002     2.7511001809976676E-010
  -8.6999999999999994E-002     6.7017635885235904E-010
  -8.5899999999999990E-002     5.1441401138774268E-010
  -8.4799999999999986E-002     2.1862098242841910E-010
  -8.3699999999999997E-002     2.5128912839456063E-010
  -8.2599999999999993E-002     2.7846711048162831E-010
  -8.1499999999999989E-002    -5.3182697135056856E-010
  -8.0399999999999999E-002    -2.2713606551150178E-009
  -7.9299999999999995E-002    -3.7994665191831700E-009
  -7.8199999999999992E-002    -3.6941438796844750E-009
  -7.7100000000000002E-002    -1.2695929862971411E-009
  -7.5999999999999984E-002     3.6348517529205537E-009
  -7.4899999999999994E-002     1.1205812278092253E-008
  -7.3799999999999991E-002     2.1071247857662456E-008
  -7.2699999999999987E-002     3.1462864313880345E-008
  -7.1599999999999997E-002     4.0369357634517655E-008
  -7.0499999999999993E-002     4.8107995809232307E-008
  -6.9399999999999989E-002     5.7568250610984251E-008
  -6.8300000000000000E-002     7.0786605022021831E-008
  -6.7199999999999996E-002     8.6315424141503172E-008
  -6.6099999999999992E-002     1.0202889200172649E-007
  -6.5000000000000002E-002     1.2042849562021729E-007
  -6.3899999999999985E-002     1.4856050256639719E-007
  -6.2799999999999995E-002     1.9108965432224068E-007
  -6.1699999999999991E-002     2.4523879460502940E-007
  -6.0599999999999994E-002     3.0510233273162157E-007
  -5.9499999999999990E-002     3.7036292610537203E-007
  -5.8399999999999994E-002     4.4808169263887976E-007
  -5.7299999999999990E-002     5.4581454378421768E-007
  -5.6199999999999986E-002     6.6625699446376530E-007
  -5.5099999999999996E-002     8.1032436582972878E-007
  -5.3999999999999992E-002     9.8234545475861523E-007
  -5.2899999999999989E-002     1.1887325399584370E-006
  -5.1799999999999985E-002     1.4335665809994680E-006
  -5.0699999999999995E-002     1.7206455140694743E-006
  -4.9599999999999991E-002     2.0601587493729312E-006
  -4.8499999999999988E-002     2.4675298391230172E-006
  -4.7399999999999998E-002     2.9524933324864833E-006
  -4.6299999999999994E-002     3.5144985304214060E-006
  -4.5199999999999990E-002     4.1555595089448616E-006
  -4.4099999999999986E-002     4.8957108447211795E-006
  -4.2999999999999997E-002     5.7676675169204827E-006
  -4.1899999999999993E-002     6.7942874011350796E-006
  -4.0799999999999989E-002     7.9788815128267743E-006
  -3.9699999999999985E-002     9.3232592917047441E-006
  -3.8599999999999995E-002     1.0849551472347230E-005
  -3.7499999999999992E-002     1.2595936823345255E-005
  -3.6399999999999988E-002     1.4593524610972963E-005
  -3.5299999999999984E-002     1.6858361050253734E-005
  -3.4199999999999994E-002     1.9407838408369571E-005
  -3.3099999999999991E-002     2.2273723516263999E-005
  -3.1999999999999987E-002     2.5490700863883831E-005
  -3.0899999999999997E-002     2.9080789317958988E-005
  -2.9799999999999993E-002     3.3061704016290605E-005
  -2.8699999999999989E-002     3.7467627407750115E-005
  -2.7599999999999986E-002     4.2344585381215438E-005
  -2.6499999999999996E-002     4.7720794100314379E-005
  -2.5399999999999992E-002     5.3594576456816867E-005
  -2.4299999999999988E-002     5.9963589592371136E-005
  -2.3199999999999985E-002     6.6855471231974661E-005
  -2.2099999999999995E-002     7.4312316428404301E-005
  -2.0999999999999991E-002     8.2345781265757978E-005
  -1.9899999999999987E-002     9.0926929260604084E-005
  -1.8799999999999983E-002     1.0002404451370239E-004
  -1.7699999999999994E-002     1.0963052773149684E-004
  -1.6599999999999990E-002     1.1974068911513314E-004
  -1.5499999999999986E-002     1.3030836998950690E-004
  -1.4399999999999996E-002     1.4125484449323267E-004
  -1.3299999999999992E-002     1.5251134755089879E-004
  -1.2199999999999989E-002     1.6402598703280091E-004
  -1.1099999999999985E-002     1.7571855278220028E-004
  -9.9999999999999950E-003     1.8744869157671928E-004
  -8.8999999999999913E-003     1.9905631779693067E-004
  -7.7999999999999875E-003     2.1041455329395831E-004
  -6.6999999999999837E-003     2.2141664521768689E-004
  -5.5999999999999939E-003     2.3190736828837544E-004
  -4.4999999999999901E-003     2.4166399089153856E-004
  -3.3999999999999864E-003     2.5045272195711732E-004
  -2.2999999999999826E-003     2.5808656937442720E-004
  -1.1999999999999927E-003     2.6439677458256483E-004
  -9.9999999999988987E-005     2.6916738715954125E-004
   1.0000000000000148E-003     2.7214211877435446E-004
   2.1000000000000185E-003     2.7309116558171809E-004
   3.2000000000000084E-003     2.7183411293663085E-004
   4.3000000000000121E-003     2.6818810147233307E-004
   5.4000000000000159E-003     2.6192259974777699E-004
   6.5000000000000058E-003     2.5281379930675030E-004
   7.6000000000000234E-003     2.4073089298326522E-004
   8.7000000000000133E-003     2.2561584773939103E-004
   9.8000000000000032E-003     2.0738631428685039E-004
   1.0900000000000021E-002     1.8590959371067584E-004
   1.2000000000000011E-002     1.6109901480376720E-004
   1.3100000000000001E-002     1.3300195860210806E-004
   1.4200000000000018E-002     1.0175863280892372E-004
   1.5300000000000008E-002     6.7491440859157592E-005
   1.6400000000000026E-002     3.0293547752080485E-005
   1.7500000000000016E-002    -9.6673829830251634E-006
   1.8600000000000005E-002    -5.2095987484790385E-005
   1.9700000000000023E-002    -9.6632793429307640E-005
   2.0800000000000013E-002    -1.4295095752459019E-004
   2.1900000000000003E-002    -1.9070591952186078E-004
   2.3000000000000020E-002    -2.3944865097291768E-004
   2.4100000000000010E-002    -2.8862399631179869E-004
   2.5200000000000000E-002    -3.3770131994970143E-004
   2.6300000000000018E-002    -3.8622549618594348E-004
   2.7400000000000008E-002    -4.3371584615670145E-004
   2.8500000000000025E-002    -4.7956578782759607E-004
   2.9600000000000015E-002    -5.2311108447611332E-004
   3.0700000000000005E-002    -5.6378688896074891E-004
   3.1800000000000023E-002    -6.0115230735391378E-004
   3.2900000000000013E-002    -6.3475861679762602E-004
   3.4000000000000002E-002    -6.6406611585989594E-004
   3.5100000000000020E-002    -6.8855303106829524E-004
   3.6200000000000010E-002    -7.0786027936264873E-004
   3.7300000000000028E-002    -7.2175776585936546E-004
   3.8400000000000017E-002    -7.2999810799956322E-004
   3.9500000000000007E-002    -7.3229649569839239E-004
   4.0600000000000025E-002    -7.2848360287025571E-004
   4.1700000000000015E-002    -7.1860145544633269E-004
   4.2800000000000005E-002    -7.0278753992170095E-004
   4.3900000000000022E-002    -6.8112567532807589E-004
   4.5000000000000012E-002    -6.5369094954803586E-004
   4.6100000000000002E-002    -6.2072806758806109E-004
   4.7200000000000020E-002    -5.8269419241696596E-004
   4.8300000000000010E-002    -5.4008502047508955E-004
   4.9400000000000027E-002    -4.9330049660056829E-004
   5.0500000000000017E-002    -4.4275459367781878E-004
   5.1600000000000007E-002    -3.8903555832803249E-004
   5.2700000000000025E-002    -3.3286117832176387E-004
   5.3800000000000014E-002    -2.7488515479490161E-004
   5.4900000000000004E-002    -2.1564730559475720E-004
   5.6000000000000022E-002    -1.5572129632346332E-004
   5.7100000000000012E-002    -9.5837356639094651E-005
   5.8200000000000002E-002    -3.6745452234754339E-005
   5.9300000000000019E-002     2.0977759049856104E-005
   6.0400000000000009E-002     7.6906915637664497E-005
   6.1500000000000027E-002     1.3054825831204653E-004
   6.2600000000000017E-002     1.8128572264686227E-004
   6.3700000000000007E-002     2.2857473231852055E-004
   6.4800000000000024E-002     2.7211045380681753E-004
   6.5900000000000014E-002     3.1171788577921689E-004
   6.7000000000000004E-002     3.4714699722826481E-004
   6.8100000000000022E-002     3.7807360058650374E-004
   6.9200000000000012E-002     4.0432432433590293E-004
   7.0300000000000029E-002     4.2595565901137888E-004
   7.1400000000000019E-002     4.4307575444690883E-004
   7.2500000000000009E-002     4.5567195047624409E-004
   7.3600000000000027E-002     4.6372215729206800E-004
   7.4700000000000016E-002     4.6741307596676052E-004
   7.5800000000000006E-002     4.6711653703823686E-004
   7.6900000000000024E-002     4.6314866631291807E-004
   7.8000000000000014E-002     4.5566214248538017E-004
   7.9100000000000004E-002     4.4483534293249249E-004
   8.0200000000000021E-002     4.3106425437144935E-004
   8.1300000000000011E-002     4.1485580732114613E-004
   8.2400000000000029E-002     3.9657874731346965E-004
   8.3500000000000019E-002     3.7644215626642108E-004
   8.4600000000000009E-002     3.5471993032842875E-004
   8.5700000000000026E-002     3.3186472137458622E-004
   8.6800000000000016E-002     3.0832484480924904E-004
   8.7900000000000006E-002     2.8434573323465884E-004
   8.9000000000000024E-002     2.6006496045738459E-004
   9.0100000000000013E-002     2.3575650993734598E-004
   9.1200000000000003E-002     2.1183394710533321E-004
   9.2300000000000021E-002     1.8859440751839429E-004
   9.3400000000000011E-002     1.6609014710411429E-004
   9.4500000000000028E-002     1.4432900934480131E-004
   9.5600000000000018E-002     1.2350578617770225E-004
   9.6700000000000008E-002     1.0391912655904889E-004
   9.7800000000000026E-002     8.5693864093627781E-005
   9.8900000000000016E-002     6.8732464569620788E-005
  0.10000000000000001          5.2958512242184952E-005
  0.10110000000000002          3.8484609831357375E-005
  0.10220000000000001          2.5453346097492613E-005
  0.10330000000000003          1.3815707461617421E-005
  0.10440000000000002          3.3884168715303531E-006
  0.10550000000000001         -5.8980808717024047E-006
  0.10660000000000003         -1.3953028428659309E-005
  0.10770000000000002         -2.0752815544256009E-005
  0.10880000000000001         -2.6483996407478116E-005
  0.10990000000000003         -3.1367642804980278E-005
  0.11100000000000002         -3.5428714909357950E-005
  0.11210000000000001         -3.8565653085242957E-005
  0.11320000000000002         -4.0818409615894780E-005
  0.11430000000000001         -4.2427582229720429E-005
  0.11540000000000003         -4.3588072003331035E-005
  0.11650000000000002         -4.4270709622651339E-005
  0.11760000000000001         -4.4377909944159910E-005
  0.11870000000000003         -4.3993695726385340E-005
  0.11980000000000002         -4.3347168684704229E-005
  0.12090000000000001         -4.2549578211037442E-005
  0.12200000000000003         -4.1511495510349050E-005
  0.12310000000000001         -4.0163227822631598E-005
  0.12420000000000003         -3.8633359508821741E-005
  0.12530000000000002         -3.7114383303560317E-005
  0.12640000000000001         -3.5621651477413252E-005
  0.12750000000000003         -3.4020769817288965E-005
  0.12860000000000002         -3.2276333513436839E-005
  0.12970000000000001         -3.0540621082764119E-005
  0.13080000000000003         -2.8947766622877680E-005
  0.13190000000000002         -2.7436048185336404E-005
  0.13300000000000001         -2.5869425371638499E-005
  0.13410000000000000         -2.4266095351777039E-005
  0.13520000000000004         -2.2782354790251702E-005
  0.13630000000000003         -2.1477888367371634E-005
  0.13740000000000002         -2.0229093934176490E-005
  0.13850000000000001         -1.8924876712844707E-005
  0.13960000000000000         -1.7644684703554958E-005
  0.14070000000000005         -1.6540358046768233E-005
  0.14180000000000004         -1.5604024156345986E-005
  0.14290000000000003         -1.4676774299005046E-005
  0.14400000000000002         -1.3684687473869417E-005
  0.14510000000000001         -1.2743342267640401E-005
  0.14620000000000000         -1.1976845598837826E-005
  0.14730000000000004         -1.1330112101859413E-005
  0.14840000000000003         -1.0656066478986759E-005
  0.14950000000000002         -9.9360468084341846E-006
  0.15060000000000001         -9.2955651780357584E-006
  0.15170000000000000         -8.8010347099043429E-006
  0.15280000000000005         -8.3550767158158123E-006
  0.15390000000000004         -7.8484745245077647E-006
  0.15500000000000003         -7.3268665801151656E-006
  0.15610000000000002         -6.9142197389737703E-006
  0.15720000000000001         -6.6146349126938730E-006
  0.15830000000000000         -6.3011916608957108E-006
  0.15940000000000004         -5.9070325733046047E-006
  0.16050000000000003         -5.5244627219508402E-006
  0.16160000000000002         -5.2610207603720482E-006
  0.16270000000000001         -5.0752259994624183E-006
  0.16380000000000000         -4.8409942792204674E-006
  0.16490000000000005         -4.5370020416157786E-006
  0.16600000000000004         -4.2718006625364069E-006
  0.16710000000000003         -4.1123284972854890E-006
  0.16820000000000002         -3.9830683817854151E-006
  0.16930000000000001         -3.7853008052479709E-006
  0.17040000000000000         -3.5472721719997935E-006
  0.17150000000000004         -3.3753869956854032E-006
  0.17260000000000003         -3.2870236736926017E-006
  0.17370000000000002         -3.1840918381931260E-006
  0.17480000000000001         -3.0044441245991038E-006
  0.17590000000000000         -2.8158126497146441E-006
  0.17700000000000005         -2.7103174033982214E-006
  0.17810000000000004         -2.6647219328879146E-006
  0.17920000000000003         -2.5784820536500774E-006
  0.18030000000000002         -2.4256567030533915E-006
  0.18140000000000001         -2.2885781163495267E-006
  0.18250000000000000         -2.2282074496615678E-006
  0.18360000000000004         -2.1939633825240890E-006
  0.18470000000000003         -2.1060095605207607E-006
  0.18580000000000002         -1.9768065158132231E-006
  0.18690000000000001         -1.8868162214857875E-006
  0.18800000000000000         -1.8579606830826378E-006
  0.18910000000000005         -1.8228523686047993E-006
  0.19020000000000004         -1.7321476661891211E-006
  0.19130000000000003         -1.6299192111546290E-006
  0.19240000000000002         -1.5830732991162222E-006
  0.19350000000000001         -1.5773418908793246E-006
  0.19460000000000005         -1.5404874602609198E-006
  0.19570000000000004         -1.4530718317473656E-006
  0.19680000000000003         -1.3761698482994689E-006
  0.19790000000000002         -1.3571543604484759E-006
  0.19900000000000001         -1.3600437114291708E-006
  0.20010000000000000         -1.3234666766948067E-006
  0.20120000000000005         -1.2532104847196024E-006
  0.20230000000000004         -1.2093202030882821E-006
  0.20340000000000003         -1.2138663123550941E-006
  0.20450000000000002         -1.2219192058182671E-006
  0.20560000000000000         -1.1944201787628117E-006
  0.20670000000000005         -1.1569346725082141E-006
  0.20780000000000004         -1.1568009767870535E-006
  0.20890000000000003         -1.1900339131898363E-006
