 -0.12000000000000000          0.0000000000000000
 -0.11889999999999999          0.0000000000000000
 -0.11780000000000000          0.0000000000000000
 -0.11670000000000000          1.2546758770826116E-011
 -0.11559999999999999          1.3697683612368117E-011
 -0.11449999999999999         -3.8519892137101053E-011
 -0.11340000000000000         -6.0436974869126914E-011
 -0.11230000000000000          8.1728186718255103E-011
 -0.11119999999999999          2.1664806060250896E-010
 -0.11009999999999999         -3.4040447544070318E-011
 -0.10900000000000000         -4.8208020908546700E-010
 -0.10790000000000000         -2.7206761843423521E-010
 -0.10679999999999999          7.1667305423517291E-010
 -0.10569999999999999          1.0246075099473728E-009
 -0.10460000000000000         -4.2161263369422386E-010
 -0.10349999999999999         -1.8818464564418491E-009
 -0.10239999999999999         -6.0493438036601788E-010
 -0.10130000000000000          2.4258615116679039E-009
 -0.10020000000000000          2.5024651240102003E-009
  -9.9099999999999994E-002    -1.8537313906108466E-009
  -9.7999999999999990E-002    -4.8300949906376900E-009
  -9.6899999999999986E-002    -6.5602245857832031E-010
  -9.5799999999999996E-002     6.4043979008943097E-009
  -9.4699999999999993E-002     5.8166000904691373E-009
  -9.3599999999999989E-002    -3.7803502550559642E-009
  -9.2499999999999999E-002    -9.8755306154885147E-009
  -9.1399999999999995E-002    -2.5646906820497861E-009
  -9.0299999999999991E-002     9.5434860014620426E-009
  -8.9200000000000002E-002     9.3253751387578632E-009
  -8.8099999999999984E-002    -4.2170826830556507E-009
  -8.6999999999999994E-002    -1.2694450823858006E-008
  -8.5899999999999990E-002    -3.9121754724646962E-009
  -8.4799999999999986E-002     9.9854240431795915E-009
  -8.3699999999999997E-002     9.7388257458419503E-009
  -8.2599999999999993E-002    -2.9503433029987036E-009
  -8.1499999999999989E-002    -8.7991276487286996E-009
  -8.0399999999999999E-002    -8.1183032518694631E-010
  -7.9299999999999995E-002     5.8461866458969780E-009
  -7.8199999999999992E-002    -3.1155236723812152E-010
  -7.7100000000000002E-002    -7.3376753562115482E-009
  -7.5999999999999984E-002     2.5400567066347080E-012
  -7.4899999999999994E-002     1.1606942074138260E-008
  -7.3799999999999991E-002     4.7746895326383765E-009
  -7.2699999999999987E-002    -1.6707970118545745E-008
  -7.1599999999999997E-002    -2.0920978727190231E-008
  -7.0499999999999993E-002     5.0180757327211722E-009
  -6.9399999999999989E-002     2.8317353795159761E-008
  -6.8300000000000000E-002     1.2552135331134195E-008
  -6.7199999999999996E-002    -2.6888134385671947E-008
  -6.6099999999999992E-002    -3.8677747227211512E-008
  -6.5000000000000002E-002    -6.8531029739915539E-009
  -6.3899999999999985E-002     2.4600895542903345E-008
  -6.2799999999999995E-002     1.2649810088305458E-008
  -6.1699999999999991E-002    -2.5257030245029455E-008
  -6.0599999999999994E-002    -3.9296164544566636E-008
  -5.9499999999999990E-002    -1.9397875306026435E-008
  -5.8399999999999994E-002    -3.7780547579302493E-009
  -5.7299999999999990E-002    -1.5911789219558159E-008
  -5.6199999999999986E-002    -3.1372163533660569E-008
  -5.5099999999999996E-002    -2.4948590748863353E-008
  -5.3999999999999992E-002    -1.7679397501524363E-008
  -5.2899999999999989E-002    -4.2272176870028488E-008
  -5.1799999999999985E-002    -8.0342410058165115E-008
  -5.0699999999999995E-002    -7.9864058477596700E-008
  -4.9599999999999991E-002    -3.7873036262681126E-008
  -4.8499999999999988E-002    -1.9404614803875120E-008
  -4.7399999999999998E-002    -6.9025489324303635E-008
  -4.6299999999999994E-002    -1.3939497023329750E-007
  -4.5199999999999990E-002    -1.5009177900537907E-007
  -4.4099999999999986E-002    -1.0027452645999801E-007
  -4.2999999999999997E-002    -7.1705194670812489E-008
  -4.1899999999999993E-002    -1.1483522399657886E-007
  -4.0799999999999989E-002    -1.8242074872887315E-007
  -3.9699999999999985E-002    -2.0374342568629800E-007
  -3.8599999999999995E-002    -1.8448344007993001E-007
  -3.7499999999999992E-002    -1.8536252355261240E-007
  -3.6399999999999988E-002    -2.2226032569960807E-007
  -3.5299999999999984E-002    -2.4818075416987995E-007
  -3.4199999999999994E-002    -2.3915850988487364E-007
  -3.3099999999999991E-002    -2.4097064965644677E-007
  -3.1999999999999987E-002    -2.9307230420272390E-007
  -3.0899999999999997E-002    -3.5235908057984489E-007
  -2.9799999999999993E-002    -3.4714580010586360E-007
  -2.8699999999999989E-002    -2.9074573149046046E-007
  -2.7599999999999986E-002    -2.7554648340810672E-007
  -2.6499999999999996E-002    -3.4215111099911155E-007
  -2.5399999999999992E-002    -4.1459341559857421E-007
  -2.4299999999999988E-002    -4.0523414668314217E-007
  -2.3199999999999985E-002    -3.3613727623560408E-007
  -2.2099999999999995E-002    -3.0330127742672630E-007
  -2.0999999999999991E-002    -3.3734667681528663E-007
  -1.9899999999999987E-002    -3.6659224633694976E-007
  -1.8799999999999983E-002    -3.3345929750794312E-007
  -1.7699999999999994E-002    -2.7600009389061597E-007
  -1.6599999999999990E-002    -2.5710093609632167E-007
  -1.5499999999999986E-002    -2.5951007387448044E-007
  -1.4399999999999996E-002    -2.1626956936415809E-007
  -1.3299999999999992E-002    -1.2272450078398833E-007
  -1.2199999999999989E-002    -5.5682196631323677E-008
  -1.1099999999999985E-002    -5.1959140989765729E-008
  -9.9999999999999950E-003    -4.4466091253525519E-008
  -8.8999999999999913E-003     4.3561186657825601E-008
  -7.7999999999999875E-003     1.8238716847918113E-007
  -6.6999999999999837E-003     2.7274836611468345E-007
  -5.5999999999999939E-003     2.9091043529660965E-007
  -4.4999999999999901E-003     3.1801039312995272E-007
  -3.3999999999999864E-003     4.1815553686319618E-007
  -2.2999999999999826E-003     5.4724102938052965E-007
  -1.1999999999999927E-003     6.2392001609623549E-007
  -9.9999999999988987E-005     6.5437961893621832E-007
   1.0000000000000148E-003     7.1271341539613786E-007
   2.1000000000000185E-003     8.1659879924700363E-007
   3.2000000000000084E-003     9.0035973698832095E-007
   4.3000000000000121E-003     9.2067796231276589E-007
   5.4000000000000159E-003     9.2540648211070220E-007
   6.5000000000000058E-003     9.7979955171467736E-007
   7.6000000000000234E-003     1.0638221965564298E-006
   8.7000000000000133E-003     1.0899530025199056E-006
   9.8000000000000032E-003     1.0419797717986512E-006
   1.0900000000000021E-002     9.9710246104223188E-007
   1.2000000000000011E-002     1.0118839099959587E-006
   1.3100000000000001E-002     1.0369774372520624E-006
   1.4200000000000018E-002     9.9456349289539503E-007
   1.5300000000000008E-002     8.9425998339720536E-007
   1.6400000000000026E-002     8.1128479223480099E-007
   1.7500000000000016E-002     7.7223097605383373E-007
   1.8600000000000005E-002     7.1970561066336813E-007
   1.9700000000000023E-002     6.0830916481791064E-007
   2.0800000000000013E-002     4.7428986249542504E-007
   2.1900000000000003E-002     3.7744405290141003E-007
   2.3000000000000020E-002     3.0777499659961904E-007
   2.4100000000000010E-002     2.0547048507069121E-007
   2.5200000000000000E-002     5.9621982018143171E-008
   2.6300000000000018E-002    -7.4672541927611746E-008
   2.7400000000000008E-002    -1.5969160926943005E-007
   2.8500000000000025E-002    -2.3419379147071595E-007
   2.9600000000000015E-002    -3.4636366308404831E-007
   3.0700000000000005E-002    -4.8012407205533236E-007
   3.1800000000000023E-002    -5.7495157079756609E-007
   3.2900000000000013E-002    -6.1837295106670354E-007
   3.4000000000000002E-002    -6.6142507648692117E-007
   3.5100000000000020E-002    -7.3970136327261571E-007
   3.6200000000000010E-002    -8.1953618291663588E-007
   3.7300000000000028E-002    -8.5244516867533093E-007
   3.8400000000000017E-002    -8.4889711615687702E-007
   3.9500000000000007E-002    -8.5030103491590125E-007
   4.0600000000000025E-002    -8.7321905084536411E-007
   4.1700000000000015E-002    -8.7291294903479866E-007
   4.2800000000000005E-002    -8.3561565134004923E-007
   4.3900000000000022E-002    -7.9302458289021160E-007
   4.5000000000000012E-002    -7.6858094644194352E-007
   4.6100000000000002E-002    -7.4423428486625198E-007
   4.7200000000000020E-002    -6.8576326839320245E-007
   4.8300000000000010E-002    -6.0084062170062680E-007
   4.9400000000000027E-002    -5.3029282298666658E-007
   5.0500000000000017E-002    -4.8397919272247236E-007
   5.1600000000000007E-002    -4.3154011564183747E-007
   5.2700000000000025E-002    -3.5542947784961143E-007
   5.3800000000000014E-002    -2.7112096745440795E-007
   5.4900000000000004E-002    -2.0459592064980825E-007
   5.6000000000000022E-002    -1.4977131002069655E-007
   5.7100000000000012E-002    -8.7386446523396444E-008
   5.8200000000000002E-002    -2.1091615565183019E-008
   5.9300000000000019E-002     2.5760190425216933E-008
   6.0400000000000009E-002     5.2956085738742331E-008
   6.1500000000000027E-002     9.0771450800275488E-008
   6.2600000000000017E-002     1.5047756107833266E-007
   6.3700000000000007E-002     2.0208230466778332E-007
   6.4800000000000024E-002     2.1636653002587991E-007
   6.5900000000000014E-002     2.0900341723972815E-007
   6.7000000000000004E-002     2.1559226581757684E-007
   6.8100000000000022E-002     2.4003961129892559E-007
   6.9200000000000012E-002     2.5408471060472948E-007
   7.0300000000000029E-002     2.4644162976983353E-007
   7.1400000000000019E-002     2.3852248887124006E-007
   7.2500000000000009E-002     2.4278975274683035E-007
   7.3600000000000027E-002     2.3685720407229383E-007
   7.4700000000000016E-002     2.0245575171884411E-007
   7.5800000000000006E-002     1.6538338343252690E-007
   7.6900000000000024E-002     1.6273364167318505E-007
   7.8000000000000014E-002     1.8250815969622636E-007
   7.9100000000000004E-002     1.7354926740154042E-007
   8.0200000000000021E-002     1.2268313298591238E-007
   8.1300000000000011E-002     7.6906331969439634E-008
   8.2400000000000029E-002     7.4099588687204232E-008
   8.3500000000000019E-002     8.7530480641362374E-008
   8.4600000000000009E-002     6.9708079308838933E-008
   8.5700000000000026E-002     2.7111509481869689E-008
   8.6800000000000016E-002     9.9577412981943780E-009
   8.7900000000000006E-002     2.8601835566632872E-008
   8.9000000000000024E-002     3.1031120784064115E-008
   9.0100000000000013E-002    -1.3017193545294958E-008
   9.1200000000000003E-002    -5.5367390672245165E-008
   9.2300000000000021E-002    -3.8397153900859848E-008
   9.3400000000000011E-002     1.1578641156972935E-008
   9.4500000000000028E-002     1.5740555525667332E-008
   9.5600000000000018E-002    -4.0165151204973881E-008
   9.6700000000000008E-002    -8.2122582512056397E-008
   9.7800000000000026E-002    -5.6425378147650918E-008
   9.8900000000000016E-002    -9.6329371146453013E-009
  0.10000000000000001         -1.3059820780370046E-008
  0.10110000000000002         -5.3667619681618817E-008
  0.10220000000000001         -5.8768026889310931E-008
  0.10330000000000003         -1.6955503667759331E-008
  0.10440000000000002          1.8977641680351098E-009
  0.10550000000000001         -3.9066460288950111E-008
  0.10660000000000003         -7.6807765481134993E-008
  0.10770000000000002         -4.1618839929924434E-008
  0.10880000000000001          2.7275863345721518E-008
  0.10990000000000003          3.1301002678674195E-008
  0.11100000000000002         -3.8112954570124202E-008
  0.11210000000000001         -8.0620161213573738E-008
  0.11320000000000002         -3.3566049495448169E-008
  0.11430000000000001          3.4015272376564099E-008
  0.11540000000000003          2.6445128753493918E-008
  0.11650000000000002         -3.5581251722760499E-008
  0.11760000000000001         -4.9816492264653789E-008
  0.11870000000000003          6.3813914152888174E-009
  0.11980000000000002          4.2335337013810204E-008
  0.12090000000000001         -1.4140584259081379E-009
  0.12200000000000003         -5.6240153867292975E-008
  0.12310000000000001         -3.1169943071063244E-008
  0.12420000000000003          4.2625124763162603E-008
  0.12530000000000002          5.4706646324120811E-008
  0.12640000000000001         -1.4836738948531547E-008
  0.12750000000000003         -6.2126382260885293E-008
  0.12860000000000002         -1.6826025017735446E-008
  0.12970000000000001          5.0775437188121941E-008
  0.13080000000000003          3.8352578002331938E-008
  0.13190000000000002         -3.0546917884066715E-008
  0.13300000000000001         -4.6087730964927687E-008
  0.13410000000000000          1.5565158051344952E-008
  0.13520000000000004          5.4677851579754133E-008
  0.13630000000000003          5.5164015577702230E-009
  0.13740000000000002         -5.6951289906237434E-008
  0.13850000000000001         -3.0938473116748355E-008
  0.13960000000000000          5.0920942129550895E-008
  0.14070000000000005          6.5544888627755427E-008
  0.14180000000000004         -1.3479841243224655E-008
  0.14290000000000003         -7.2724567701243359E-008
  0.14400000000000002         -2.7666903434919732E-008
  0.14510000000000001          5.2215348489426106E-008
  0.14620000000000000          5.0573202514669902E-008
  0.14730000000000004         -2.1797806226686589E-008
  0.14840000000000003         -5.0351914637758455E-008
  0.14950000000000002          3.9566123710699230E-009
  0.15060000000000001          4.8633992832947115E-008
  0.15170000000000000          9.6905923285817153E-009
  0.15280000000000005         -5.0673367724130003E-008
  0.15390000000000004         -3.2483153944440346E-008
  0.15500000000000003          4.1905284575705082E-008
  0.15610000000000002          5.8359777455052608E-008
  0.15720000000000001         -1.2765651646873266E-008
  0.15830000000000000         -6.7436410233767674E-008
  0.15940000000000004         -2.4299792400483966E-008
  0.16050000000000003          5.2331664335270034E-008
  0.16160000000000002          5.0314319821609388E-008
  0.16270000000000001         -2.2290125301083208E-008
  0.16380000000000000         -5.4017611716972169E-008
  0.16490000000000005         -1.7147648856408182E-009
  0.16600000000000004          4.8212637437927697E-008
  0.16710000000000003          1.8157830794507390E-008
  0.16820000000000002         -4.0979927007356309E-008
  0.16930000000000001         -3.2597611721030262E-008
  0.17040000000000000          3.2575179886862315E-008
  0.17150000000000004          5.2241883707893066E-008
  0.17260000000000003         -7.8715904905379830E-009
  0.17370000000000002         -5.8832625882132561E-008
  0.17480000000000001         -2.3450985153772308E-008
  0.17590000000000000          4.6057142100153214E-008
  0.17700000000000005          4.7171624828479253E-008
  0.17810000000000004         -1.9027059039444794E-008
  0.17920000000000003         -5.3228070839850261E-008
  0.18030000000000002         -9.0193594814991229E-009
  0.18140000000000001          4.1691198049420564E-008
  0.18250000000000000          2.3397142001613247E-008
  0.18360000000000004         -2.9762285080892070E-008
  0.18470000000000003         -3.2825315798845622E-008
  0.18580000000000002          1.6862369278669576E-008
  0.18690000000000001          3.9025046305596334E-008
  0.18800000000000000         -1.5813008680254370E-009
  0.18910000000000005         -4.0760465225275766E-008
  0.19020000000000004         -1.6437905259181207E-008
  0.19130000000000003          3.4295421613705912E-008
  0.19240000000000002          3.3037078850384205E-008
  0.19350000000000001         -1.8785883071359422E-008
  0.19460000000000005         -4.2448668580163940E-008
  0.19570000000000004         -2.5391839741928379E-009
  0.19680000000000003          4.0403893564189275E-008
  0.19790000000000002          2.3194978382434783E-008
  0.19900000000000001         -2.5701123007593196E-008
  0.20010000000000000         -3.2552460282886386E-008
  0.20120000000000005          9.9805115283402301E-009
  0.20230000000000004          3.5663234143612499E-008
  0.20340000000000003          7.4744290756711962E-009
  0.20450000000000002         -2.9280828428568384E-008
  0.20560000000000000         -2.0041289516825600E-008
  0.20670000000000005          1.7163948484721914E-008
  0.20780000000000004          2.4099474416061639E-008
  0.20890000000000003         -6.9484391573837456E-009
