 -0.12000000000000000          0.0000000000000000
 -0.11889999999999999          0.0000000000000000
 -0.11780000000000000          0.0000000000000000
 -0.11670000000000000          0.0000000000000000
 -0.11559999999999999          0.0000000000000000
 -0.11449999999999999          0.0000000000000000
 -0.11340000000000000          0.0000000000000000
 -0.11230000000000000          0.0000000000000000
 -0.11119999999999999          0.0000000000000000
 -0.11009999999999999          0.0000000000000000
 -0.10900000000000000          0.0000000000000000
 -0.10790000000000000          1.9595415596569080E-030
 -0.10679999999999999         -4.4594272154941521E-030
 -0.10569999999999999         -3.0723168733656484E-029
 -0.10460000000000000          6.4259031761937925E-029
 -0.10349999999999999          2.9027103342956726E-028
 -0.10239999999999999         -4.6664911810988430E-028
 -0.10130000000000000         -2.0752596189272223E-027
 -0.10020000000000000          2.0507652567085166E-027
  -9.9099999999999994E-002     1.1726662334399267E-026
  -9.7999999999999990E-002    -4.6992405605416786E-027
  -9.6899999999999986E-002    -5.2944257905464300E-026
  -9.5799999999999996E-002    -4.7410297736609817E-027
  -9.4699999999999993E-002     1.9614060053711563E-025
  -9.3599999999999989E-002     9.7820206709699465E-026
  -9.2499999999999999E-002    -6.3135876112542791E-025
  -9.1399999999999995E-002    -5.6938486233513370E-025
  -9.0299999999999991E-002     1.8606489434670289E-024
  -8.9200000000000002E-002     2.6774751649933518E-024
  -8.8099999999999984E-002    -4.7387825154016970E-024
  -8.6999999999999994E-002    -1.1244360234147885E-023
  -8.5899999999999990E-002     7.5621231893662979E-024
  -8.4799999999999986E-002     3.8791099054539737E-023
  -8.3699999999999997E-002     7.0800834223437569E-024
  -8.2599999999999993E-002    -9.9121287819670190E-023
  -8.1499999999999989E-002    -9.3908476025308018E-023
  -8.0399999999999999E-002     1.6725452893867411E-022
  -7.9299999999999995E-002     3.3376167212308011E-022
  -7.8199999999999992E-002    -1.3471295636925076E-022
  -7.7100000000000002E-002    -7.7046057945632514E-022
  -7.5999999999999984E-002    -1.3723583451834342E-022
  -7.4899999999999994E-002     1.5122232827049237E-021
  -7.3799999999999991E-002     9.2447238047219654E-022
  -7.2699999999999987E-002    -3.0605401956197510E-021
  -7.1599999999999997E-002    -3.8644698839869711E-021
  -7.0499999999999993E-002     5.0086876611401203E-021
  -6.9399999999999989E-002     1.3157949886977507E-020
  -6.8300000000000000E-002    -6.3030526539106739E-022
  -6.7199999999999996E-002    -2.9442883211888409E-020
  -6.6099999999999992E-002    -2.4788620632800953E-020
  -6.5000000000000002E-002     3.5229512428708344E-020
  -6.3899999999999985E-002     7.4170345159046307E-020
  -6.2799999999999995E-002    -1.9735160205419266E-021
  -6.1699999999999991E-002    -1.1983180710887595E-019
  -6.0599999999999994E-002    -6.7405054648825303E-020
  -5.9499999999999990E-002     1.5570208078193171E-019
  -5.8399999999999994E-002     1.7527584948723008E-019
  -5.7299999999999990E-002    -2.2764816958556561E-019
  -5.6199999999999986E-002    -4.9464521751270217E-019
  -5.5099999999999996E-002     1.4486702288385860E-019
  -5.3999999999999992E-002     1.1741696446292219E-018
  -5.2899999999999989E-002     7.8317905006099908E-019
  -5.1799999999999985E-002    -1.4747657350624968E-018
  -5.0699999999999995E-002    -2.7673951914324018E-018
  -4.9599999999999991E-002    -1.2248969351337368E-019
  -4.8499999999999988E-002     4.1183176165325673E-018
  -4.7399999999999998E-002     3.5006903908703546E-018
  -4.6299999999999994E-002    -3.0219505123685517E-018
  -4.5199999999999990E-002    -6.4421343093512641E-018
  -4.4099999999999986E-002     6.6816372178856334E-019
  -4.2999999999999997E-002     9.3955433953927531E-018
  -4.1899999999999993E-002     2.9376736292488928E-018
  -4.0799999999999989E-002    -1.5047489022774667E-017
  -3.9699999999999985E-002    -1.5277762870419629E-017
  -3.8599999999999995E-002     1.5953271645854934E-017
  -3.7499999999999992E-002     4.0582106200394628E-017
  -3.6399999999999988E-002     8.1808915315851860E-018
  -3.5299999999999984E-002    -5.9321145132677072E-017
  -3.4199999999999994E-002    -6.6169340336779086E-017
  -3.3099999999999991E-002     3.0272636588791024E-017
  -3.1999999999999987E-002     1.2269053865296826E-016
  -3.0899999999999997E-002     6.5907130700044677E-017
  -2.9799999999999993E-002    -1.0320110463003486E-016
  -2.8699999999999989E-002    -1.6215580213390605E-016
  -2.7599999999999986E-002    -6.8056212519496754E-019
  -2.6499999999999996E-002     1.6911546157991080E-016
  -2.5399999999999992E-002     7.0322918594873258E-017
  -2.4299999999999988E-002    -1.8748824148056702E-016
  -2.3199999999999985E-002    -1.6165234692588177E-016
  -2.2099999999999995E-002     2.7199122614886121E-016
  -2.0999999999999991E-002     5.5431720716629055E-016
  -1.9899999999999987E-002     9.0535844486214938E-017
  -1.8799999999999983E-002    -7.8514040861710622E-016
  -1.7699999999999994E-002    -9.7996788618316634E-016
  -1.6599999999999990E-002    -4.5243699086049466E-017
  -1.5499999999999986E-002     1.0111593450702139E-015
  -1.4399999999999996E-002     8.9492482536676892E-016
  -1.3299999999999992E-002    -1.5426236827289222E-016
  -1.2199999999999989E-002    -5.3305281560238576E-016
  -1.1099999999999985E-002     4.2853315860616177E-016
  -9.9999999999999950E-003     1.1796226574551879E-015
  -8.8999999999999913E-003    -8.5273169227919867E-017
  -7.7999999999999875E-003    -2.5302352206978910E-015
  -6.6999999999999837E-003    -3.1040223271897689E-015
  -5.5999999999999939E-003    -3.7250124093102016E-016
  -4.4999999999999901E-003     3.1981977796061069E-015
  -3.3999999999999864E-003     3.9524700312242207E-015
  -2.2999999999999826E-003     1.4798387684120161E-015
  -1.1999999999999927E-003    -1.1476153999608160E-015
  -9.9999999999988987E-005    -1.6271393861263151E-015
   1.0000000000000148E-003    -1.1446110799760234E-015
   2.1000000000000185E-003    -1.7978932873589015E-015
   3.2000000000000084E-003    -2.7298516637290493E-015
   4.3000000000000121E-003    -9.9950438347423155E-016
   5.4000000000000159E-003     3.7846050417373635E-015
   6.5000000000000058E-003     7.7336564479864658E-015
   7.6000000000000234E-003     6.4856042221840896E-015
   8.7000000000000133E-003    -5.4120492538455717E-016
   9.8000000000000032E-003    -1.0283928656568131E-014
   1.0900000000000021E-002    -1.8460773071348781E-014
   1.2000000000000011E-002    -2.0102112858956696E-014
   1.3100000000000001E-002    -9.9500909491985826E-015
   1.4200000000000018E-002     1.2970208098457472E-014
   1.5300000000000008E-002     3.9859259691682816E-014
   1.6400000000000026E-002     5.4843201377843820E-014
   1.7500000000000016E-002     4.6551531482667483E-014
   1.8600000000000005E-002     1.6300861078706944E-014
   1.9700000000000023E-002    -2.6377392024073965E-014
   2.0800000000000013E-002    -7.2574155615245245E-014
   2.1900000000000003E-002    -1.1172157898245091E-013
   2.3000000000000020E-002    -1.2292006605282846E-013
   2.4100000000000010E-002    -8.0398686840010836E-014
   2.5200000000000000E-002     1.9599004087407848E-014
   2.6300000000000018E-002     1.3890119252273764E-013
   2.7400000000000008E-002     2.1453212741429778E-013
   2.8500000000000025E-002     2.0285283056174080E-013
   2.9600000000000015E-002     1.0813081658365975E-013
   3.0700000000000005E-002    -2.6715259914206549E-014
   3.1800000000000023E-002    -1.4946465560442684E-013
   3.2900000000000013E-002    -2.1274705629993618E-013
   3.4000000000000002E-002    -1.7801178012113311E-013
   3.5100000000000020E-002    -3.3289885605081171E-014
   3.6200000000000010E-002     1.7610405863600909E-013
   3.7300000000000028E-002     3.3951332955965696E-013
   3.8400000000000017E-002     3.1564833212482934E-013
   3.9500000000000007E-002     2.2544486622585319E-014
   4.0600000000000025E-002    -5.0926000612697142E-013
   4.1700000000000015E-002    -1.1327780076800242E-012
   4.2800000000000005E-002    -1.6278013008699799E-012
   4.3900000000000022E-002    -1.7727412419954458E-012
   4.5000000000000012E-002    -1.4429846206809316E-012
   4.6100000000000002E-002    -6.9675114202499833E-013
   4.7200000000000020E-002     2.0748591104784164E-013
   4.8300000000000010E-002     8.7791758454983104E-013
   4.9400000000000027E-002     8.7752732597784489E-013
   5.0500000000000017E-002    -3.1317111989608015E-014
   5.1600000000000007E-002    -1.7850199400190614E-012
   5.2700000000000025E-002    -4.0304651977018935E-012
   5.3800000000000014E-002    -5.8937746176546124E-012
   5.4900000000000004E-002    -6.8922337455312732E-012
   5.6000000000000022E-002    -6.7564972713873850E-012
   5.7100000000000012E-002    -5.6897932546040586E-012
   5.8200000000000002E-002    -4.1048570792456829E-012
   5.9300000000000019E-002    -3.0510802218053357E-012
   6.0400000000000009E-002    -3.9633951502693332E-012
   6.1500000000000027E-002    -7.0962151085818270E-012
   6.2600000000000017E-002    -1.2704100792182427E-011
   6.3700000000000007E-002    -2.0034109787792076E-011
   6.4800000000000024E-002    -2.6960692359190297E-011
   6.5900000000000014E-002    -3.1628869662236880E-011
   6.7000000000000004E-002    -3.3381533648402240E-011
   6.8100000000000022E-002    -3.3164533619345349E-011
   6.9200000000000012E-002    -3.0445954785074392E-011
   7.0300000000000029E-002    -2.9858383127079335E-011
   7.1400000000000019E-002    -3.3572433028039583E-011
   7.2500000000000009E-002    -4.3681641637149937E-011
   7.3600000000000027E-002    -5.9784351080782727E-011
   7.4700000000000016E-002    -7.6625747413849865E-011
   7.5800000000000006E-002    -9.8039375229230785E-011
   7.6900000000000024E-002    -1.1664905152919403E-010
   7.8000000000000014E-002    -1.3234768836412059E-010
   7.9100000000000004E-002    -1.3731159265173432E-010
   8.0200000000000021E-002    -1.3890273653505147E-010
   8.1300000000000011E-002    -1.3269398080328898E-010
   8.2400000000000029E-002    -1.3746762062005757E-010
   8.3500000000000019E-002    -1.5477095993698953E-010
   8.4600000000000009E-002    -1.9730860001399009E-010
   8.5700000000000026E-002    -2.3829221929005939E-010
   8.6800000000000016E-002    -2.8038343868885818E-010
   8.7900000000000006E-002    -3.2985872366886326E-010
   8.9000000000000024E-002    -3.5841055123775334E-010
   9.0100000000000013E-002    -3.8506473010180287E-010
   9.1200000000000003E-002    -3.8911918132100709E-010
   9.2300000000000021E-002    -3.6379188550483832E-010
   9.3400000000000011E-002    -3.1710156722652982E-010
   9.4500000000000028E-002    -3.2810634764679492E-010
   9.5600000000000018E-002    -3.7686029297212542E-010
   9.6700000000000008E-002    -4.7960291293946966E-010
   9.7800000000000026E-002    -5.3354592965959569E-010
   9.8900000000000016E-002    -5.1874271544960493E-010
  0.10000000000000001         -4.6683784615808577E-010
  0.10110000000000002         -4.7107029388371302E-010
  0.10220000000000001         -5.2229248703739017E-010
  0.10330000000000003         -5.8178784012596907E-010
  0.10440000000000002         -4.4749220995399241E-010
  0.10550000000000001         -2.5510502044134853E-010
  0.10660000000000003         -3.1369884467835618E-010
  0.10770000000000002         -2.8254998341026294E-010
  0.10880000000000001         -2.8874336255313438E-010
  0.10990000000000003         -3.0605223910740165E-010
  0.11100000000000002         -1.2287346140560373E-010
  0.11210000000000001         -1.5934277508566907E-010
  0.11320000000000002         -4.0154751052012827E-011
  0.11430000000000001         -2.6268359015757525E-011
  0.11540000000000003          3.1335667394216671E-010
  0.11650000000000002          5.9126187279545661E-010
  0.11760000000000001          5.7871213376969877E-010
  0.11870000000000003          6.7373984169449841E-010
  0.11980000000000002          9.2407309582043240E-010
  0.12090000000000001          1.1202573313440212E-009
  0.12200000000000003          1.1763560125999106E-009
  0.12310000000000001          1.3234077167467717E-009
  0.12420000000000003          1.2750751565704377E-009
  0.12530000000000002          1.5336475422955687E-009
  0.12640000000000001          1.3833562073628514E-009
  0.12750000000000003          2.0131769584708081E-009
  0.12860000000000002          2.3180561914415421E-009
  0.12970000000000001          2.4027797529413419E-009
  0.13080000000000003          2.0234964814846990E-009
  0.13190000000000002          1.9722419253298540E-009
  0.13300000000000001          2.2228645590871565E-009
  0.13410000000000000          2.4751232174935467E-009
  0.13520000000000004          2.7633135779581153E-009
  0.13630000000000003          1.8941159751761916E-009
  0.13740000000000002          1.4431921213642340E-009
  0.13850000000000001          1.9556514185836704E-009
  0.13960000000000000          1.5506342876392409E-009
  0.14070000000000005          2.1755326429229171E-009
  0.14180000000000004          1.8063165407866677E-009
  0.14290000000000003          1.2234744328765146E-009
  0.14400000000000002          2.3859811348891924E-010
  0.14510000000000001          1.4412666893282022E-010
  0.14620000000000000          3.5363334482951814E-010
  0.14730000000000004          4.5486886479650934E-010
  0.14840000000000003          4.9672072011119894E-011
  0.14950000000000002         -7.8663586755567394E-010
  0.15060000000000001         -1.5233205807874128E-009
  0.15170000000000000         -1.8101667942360677E-009
  0.15280000000000005         -1.5493395455479231E-009
  0.15390000000000004         -1.6447945228037497E-009
  0.15500000000000003         -2.5656783364524927E-009
  0.15610000000000002         -3.4669647153151573E-009
  0.15720000000000001         -3.7469134461787235E-009
  0.15830000000000000         -3.3621287975904579E-009
  0.15940000000000004         -2.4109982899034321E-009
  0.16050000000000003         -2.3610595700773729E-009
  0.16160000000000002         -3.2570415253729834E-009
  0.16270000000000001         -4.1046703813663044E-009
  0.16380000000000000         -4.3266741300840295E-009
  0.16490000000000005         -3.8482190767297197E-009
  0.16600000000000004         -2.8640423366255163E-009
  0.16710000000000003         -2.0695811731030744E-009
  0.16820000000000002         -2.3889255018616495E-009
  0.16930000000000001         -2.9656963551616400E-009
  0.17040000000000000         -3.0620770363753991E-009
  0.17150000000000004         -2.4755222316485970E-009
  0.17260000000000003         -1.9445094423531373E-009
  0.17370000000000002         -1.1292637935866878E-009
  0.17480000000000001         -9.7239050145248029E-010
  0.17590000000000000         -8.4204265782261700E-010
  0.17700000000000005         -1.3576915147694990E-009
  0.17810000000000004         -7.3555223023547001E-010
  0.17920000000000003          1.4227028444224743E-009
  0.18030000000000002          2.1881587652927692E-009
  0.18140000000000001          1.3197946069354316E-009
  0.18250000000000000         -1.0548644180374822E-009
  0.18360000000000004         -1.3720247160620147E-009
  0.18470000000000003         -3.0744679024863331E-010
  0.18580000000000002          2.3800919013439170E-009
  0.18690000000000001          5.0651127736500712E-009
  0.18800000000000000          4.4850976266275211E-009
  0.18910000000000005          2.4396071829357879E-009
  0.19020000000000004          6.6921207464432086E-010
  0.19130000000000003          5.1066428863322244E-010
  0.19240000000000002          2.0889991958483733E-009
  0.19350000000000001          3.3220597384087114E-009
  0.19460000000000005          3.2689868589841353E-009
  0.19570000000000004          2.1374664260775944E-009
  0.19680000000000003          1.0863312471798281E-009
  0.19790000000000002          1.5314939316724008E-009
  0.19900000000000001          2.9611053609102100E-009
  0.20010000000000000          3.7054241897038764E-009
  0.20120000000000005          2.4750219651537009E-009
  0.20230000000000004         -1.1564287027976405E-010
  0.20340000000000003         -1.9378276761017332E-009
  0.20450000000000002         -1.3099459295062843E-009
  0.20560000000000000          1.1107454955805451E-009
  0.20670000000000005          3.1280895651519813E-009
  0.20780000000000004          2.9267468448779255E-009
  0.20890000000000003          7.1911793186885120E-010
