 -0.12000000000000000          0.0000000000000000
 -0.11889999999999999          0.0000000000000000
 -0.11780000000000000          0.0000000000000000
 -0.11670000000000000          0.0000000000000000
 -0.11559999999999999          0.0000000000000000
 -0.11449999999999999          0.0000000000000000
 -0.11340000000000000          0.0000000000000000
 -0.11230000000000000          0.0000000000000000
 -0.11119999999999999         -1.3774267133906068E-023
 -0.11009999999999999          7.4785907081124450E-023
 -0.10900000000000000          1.3171749373994553E-022
 -0.10790000000000000         -1.1165818465633694E-021
 -0.10679999999999999         -1.2200403105726065E-021
 -0.10569999999999999          9.2650828279381051E-021
 -0.10460000000000000          1.2694169750799485E-020
 -0.10349999999999999         -5.1418936281231348E-020
 -0.10239999999999999         -1.0754811685132666E-019
 -0.10130000000000000          1.7736471317847375E-019
 -0.10020000000000000          6.5581391524314664E-019
  -9.9099999999999994E-002    -1.4722048097354268E-019
  -9.7999999999999990E-002    -2.7449297931760742E-018
  -9.6899999999999986E-002    -2.2943566553026207E-018
  -9.5799999999999996E-002     6.9433085668364239E-018
  -9.4699999999999993E-002     1.4974199166141244E-017
  -9.3599999999999989E-002    -3.7990891794039589E-018
  -9.2499999999999999E-002    -4.5984700713664269E-017
  -9.1399999999999995E-002    -4.3875575440111261E-017
  -9.0299999999999991E-002     5.8752091193354892E-017
  -8.9200000000000002E-002     1.6859323929814893E-016
  -8.8099999999999984E-002     8.5543240389195980E-017
  -8.6999999999999994E-002    -2.1042147323901999E-016
  -8.5899999999999990E-002    -4.2257507591561582E-016
  -8.4799999999999986E-002    -2.6360962337754310E-016
  -8.3699999999999997E-002     2.2213756679099247E-016
  -8.2599999999999993E-002     8.9559313436215256E-016
  -8.1499999999999989E-002     1.6091095486901784E-015
  -8.0399999999999999E-002     1.2609123035240647E-015
  -7.9299999999999995E-002    -2.2427293685102056E-015
  -7.8199999999999992E-002    -8.0433715040511590E-015
  -7.7100000000000002E-002    -8.0303915711674341E-015
  -7.5999999999999984E-002     6.8649995966217105E-015
  -7.4899999999999994E-002     2.8861366963874036E-014
  -7.3799999999999991E-002     2.7703887971121562E-014
  -7.2699999999999987E-002    -1.8341395635894549E-014
  -7.1599999999999997E-002    -7.7845255198535912E-014
  -7.0499999999999993E-002    -7.4424299188746712E-014
  -6.9399999999999989E-002     2.9496041974988105E-014
  -6.8300000000000000E-002     1.5958505946832985E-013
  -6.7199999999999996E-002     1.7743582482205450E-013
  -6.6099999999999992E-002     2.2100964924809917E-014
  -6.5000000000000002E-002    -2.1710489851202441E-013
  -6.3899999999999985E-002    -3.7860930753377819E-013
  -6.2799999999999995E-002    -3.3554024359352952E-013
  -6.1699999999999991E-002    -1.0468694494451553E-014
  -6.0599999999999994E-002     5.8984208576445818E-013
  -5.9499999999999990E-002     1.1826569454656544E-012
  -5.8399999999999994E-002     1.1202770482110491E-012
  -5.7299999999999990E-002    -1.2979732306322989E-013
  -5.6199999999999986E-002    -2.1265255181757148E-012
  -5.5099999999999996E-002    -3.3092771144910271E-012
  -5.3999999999999992E-002    -2.2620909052167848E-012
  -5.2899999999999989E-002     7.0432066212253175E-013
  -5.1799999999999985E-002     3.6538814508768613E-012
  -5.0699999999999995E-002     4.9972391676089689E-012
  -4.9599999999999991E-002     4.8859219621555372E-012
  -4.8499999999999988E-002     4.0149450604431980E-012
  -4.7399999999999998E-002     1.5008007857308936E-012
  -4.6299999999999994E-002    -4.5594678206584138E-012
  -4.5199999999999990E-002    -1.3610460848634265E-011
  -4.4099999999999986E-002    -2.0701588013261052E-011
  -4.2999999999999997E-002    -1.9555796218484467E-011
  -4.1899999999999993E-002    -7.7931697553546009E-012
  -4.0799999999999989E-002     1.1559467792687794E-011
  -3.9699999999999985E-002     3.3111246383610293E-011
  -3.8599999999999995E-002     5.1546853591100117E-011
  -3.7499999999999992E-002     6.0495164433405080E-011
  -3.6399999999999988E-002     5.1946159179694362E-011
  -3.5299999999999984E-002     2.0565497221847195E-011
  -3.4199999999999994E-002    -3.0862166988665507E-011
  -3.3099999999999991E-002    -9.2067832524467264E-011
  -3.1999999999999987E-002    -1.5063560121486574E-010
  -3.0899999999999997E-002    -1.9280743668304012E-010
  -2.9799999999999993E-002    -1.9814309915044959E-010
  -2.8699999999999989E-002    -1.4018509963964476E-010
  -2.7599999999999986E-002    -1.7808228849891528E-012
  -2.6499999999999996E-002     2.0688981083871738E-010
  -2.5399999999999992E-002     4.4721509828704598E-010
  -2.4299999999999988E-002     6.6659527897527937E-010
  -2.3199999999999985E-002     8.0620016218446722E-010
  -2.2099999999999995E-002     7.9368006611346686E-010
  -2.0999999999999991E-002     5.4365462132111020E-010
  -1.9899999999999987E-002    -1.4499649744759147E-011
  -1.8799999999999983E-002    -9.0459434387568649E-010
  -1.7699999999999994E-002    -2.1100199365520211E-009
  -1.6599999999999990E-002    -3.6174883089046261E-009
  -1.5499999999999986E-002    -5.4444559971500439E-009
  -1.4399999999999996E-002    -7.6170465490577044E-009
  -1.3299999999999992E-002    -1.0139798334307670E-008
  -1.2199999999999989E-002    -1.3019159972316174E-008
  -1.1099999999999985E-002    -1.6328062457660053E-008
  -9.9999999999999950E-003    -2.0232153730148639E-008
  -8.8999999999999913E-003    -2.4944137422266977E-008
  -7.7999999999999875E-003    -3.0673337647613153E-008
  -6.6999999999999837E-003    -3.7646614714503812E-008
  -5.5999999999999939E-003    -4.6176630519312312E-008
  -4.4999999999999901E-003    -5.6688477911848167E-008
  -3.3999999999999864E-003    -6.9684276127190969E-008
  -2.2999999999999826E-003    -8.5714326303332200E-008
  -1.1999999999999927E-003    -1.0539520189922769E-007
  -9.9999999999988987E-005    -1.2942309979280253E-007
   1.0000000000000148E-003    -1.5854705281981296E-007
   2.1000000000000185E-003    -1.9357257485808077E-007
   3.2000000000000084E-003    -2.3547320893158030E-007
   4.3000000000000121E-003    -2.8552096864586929E-007
   5.4000000000000159E-003    -3.4527141679063789E-007
   6.5000000000000058E-003    -4.1640419112809468E-007
   7.6000000000000234E-003    -5.0066955736838281E-007
   8.7000000000000133E-003    -6.0008585478499299E-007
   9.8000000000000032E-003    -7.1719665584168979E-007
   1.0900000000000021E-002    -8.5504291291726986E-007
   1.2000000000000011E-002    -1.0168464541493449E-006
   1.3100000000000001E-002    -1.2058590073138475E-006
   1.4200000000000018E-002    -1.4256073654905776E-006
   1.5300000000000008E-002    -1.6802598565845983E-006
   1.6400000000000026E-002    -1.9747187707253033E-006
   1.7500000000000016E-002    -2.3142674763221294E-006
   1.8600000000000005E-002    -2.7043579393648542E-006
   1.9700000000000023E-002    -3.1506924642599188E-006
   2.0800000000000013E-002    -3.6595279198081698E-006
   2.1900000000000003E-002    -4.2377046156616416E-006
   2.3000000000000020E-002    -4.8925257942755707E-006
   2.4100000000000010E-002    -5.6316771406272892E-006
   2.5200000000000000E-002    -6.4631394707248546E-006
   2.6300000000000018E-002    -7.3947762757597957E-006
   2.7400000000000008E-002    -8.4342182162799872E-006
   2.8500000000000025E-002    -9.5888171927072108E-006
   2.9600000000000015E-002    -1.0866275260923430E-005
   3.0700000000000005E-002    -1.2274736945983022E-005
   3.1800000000000023E-002    -1.3821716493112035E-005
   3.2900000000000013E-002    -1.5513011021539569E-005
   3.4000000000000002E-002    -1.7352873328491114E-005
   3.5100000000000020E-002    -1.9345010514371097E-005
   3.6200000000000010E-002    -2.1492758605745621E-005
   3.7300000000000028E-002    -2.3797963876859285E-005
   3.8400000000000017E-002    -2.6259544029016979E-005
   3.9500000000000007E-002    -2.8872622351627797E-005
   4.0600000000000025E-002    -3.1629122531739995E-005
   4.1700000000000015E-002    -3.4519118344178423E-005
   4.2800000000000005E-002    -3.7530455301748589E-005
   4.3900000000000022E-002    -4.0647908463142812E-005
   4.5000000000000012E-002    -4.3851923692272976E-005
   4.6100000000000002E-002    -4.7117657231865451E-005
   4.7200000000000020E-002    -5.0414837460266426E-005
   4.8300000000000010E-002    -5.3709609346697107E-005
   4.9400000000000027E-002    -5.6965309340739623E-005
   5.0500000000000017E-002    -6.0141421272419393E-005
   5.1600000000000007E-002    -6.3192754168994725E-005
   5.2700000000000025E-002    -6.6069616877939552E-005
   5.3800000000000014E-002    -6.8715438828803599E-005
   5.4900000000000004E-002    -7.1070484409574419E-005
   5.6000000000000022E-002    -7.3076036642305553E-005
   5.7100000000000012E-002    -7.4673233029898256E-005
   5.8200000000000002E-002    -7.5800577178597450E-005
   5.9300000000000019E-002    -7.6394331699702889E-005
   6.0400000000000009E-002    -7.6387499575503170E-005
   6.1500000000000027E-002    -7.5714728154707700E-005
   6.2600000000000017E-002    -7.4319112172815949E-005
   6.3700000000000007E-002    -7.2150607593357563E-005
   6.4800000000000024E-002    -6.9162873842287809E-005
   6.5900000000000014E-002    -6.5311753132846206E-005
   6.7000000000000004E-002    -6.0557456890819594E-005
   6.8100000000000022E-002    -5.4871772590558976E-005
   6.9200000000000012E-002    -4.8241869080811739E-005
   7.0300000000000029E-002    -4.0667957364348695E-005
   7.1400000000000019E-002    -3.2159776310436428E-005
   7.2500000000000009E-002    -2.2741533030057326E-005
   7.3600000000000027E-002    -1.2447062545106746E-005
   7.4700000000000016E-002    -1.3229968089945032E-006
   7.5800000000000006E-002     1.0567423487373162E-005
   7.6900000000000024E-002     2.3140581106417812E-005
   7.8000000000000014E-002     3.6292371078161523E-005
   7.9100000000000004E-002     4.9910344387171790E-005
   8.0200000000000021E-002     6.3881125242915004E-005
   8.1300000000000011E-002     7.8081953688524663E-005
   8.2400000000000029E-002     9.2368041805457324E-005
   8.3500000000000019E-002     1.0657707025529817E-004
   8.4600000000000009E-002     1.2054154649376869E-004
   8.5700000000000026E-002     1.3410083192866296E-004
   8.6800000000000016E-002     1.4709790411870927E-004
   8.7900000000000006E-002     1.5937243006192148E-004
   8.9000000000000024E-002     1.7076174844987690E-004
   9.0100000000000013E-002     1.8110476958099753E-004
   9.1200000000000003E-002     1.9024845096282661E-004
   9.2300000000000021E-002     1.9805460760835558E-004
   9.3400000000000011E-002     2.0440328808035702E-004
   9.4500000000000028E-002     2.0919440430589020E-004
   9.5600000000000018E-002     2.1234565065242350E-004
   9.6700000000000008E-002     2.1378466044552624E-004
   9.7800000000000026E-002     2.1345236746128649E-004
   9.8900000000000016E-002     2.1131389075890183E-004
  0.10000000000000001          2.0737308659590781E-004
  0.10110000000000002          2.0166554895695299E-004
  0.10220000000000001          1.9424478523433208E-004
  0.10330000000000003          1.8517044372856617E-004
  0.10440000000000002          1.7452088650316000E-004
  0.10550000000000001          1.6240104741882533E-004
  0.10660000000000003          1.4894980995450169E-004
  0.10770000000000002          1.3432436389848590E-004
  0.10880000000000001          1.1868869478348643E-004
  0.10990000000000003          1.0221341653959826E-004
  0.11100000000000002          8.5080129792913795E-005
  0.11210000000000001          6.7475732066668570E-005
  0.11320000000000002          4.9591046263230965E-005
  0.11430000000000001          3.1621260859537870E-005
  0.11540000000000003          1.3768403732683510E-005
  0.11650000000000002         -3.7662489376089070E-006
  0.11760000000000001         -2.0810870410059579E-005
  0.11870000000000003         -3.7217516364762560E-005
  0.11980000000000002         -5.2837855037068948E-005
  0.12090000000000001         -6.7521337768994272E-005
  0.12200000000000003         -8.1126876466441900E-005
  0.12310000000000001         -9.3544585979543626E-005
  0.12420000000000003         -1.0470084089320153E-004
  0.12530000000000002         -1.1454151535872370E-004
  0.12640000000000001         -1.2301783135626465E-004
  0.12750000000000003         -1.3009356916882098E-004
  0.12860000000000002         -1.3575673801824450E-004
  0.12970000000000001         -1.4001847011968493E-004
  0.13080000000000003         -1.4290386752691120E-004
  0.13190000000000002         -1.4445613487623632E-004
  0.13300000000000001         -1.4474154158961028E-004
  0.13410000000000000         -1.4384099631570280E-004
  0.13520000000000004         -1.4183500024955720E-004
  0.13630000000000003         -1.3879709877073765E-004
  0.13740000000000002         -1.3481313362717628E-004
  0.13850000000000001         -1.2999736645724624E-004
  0.13960000000000000         -1.2447744666133076E-004
  0.14070000000000005         -1.1836770863737911E-004
  0.14180000000000004         -1.1176225234521553E-004
  0.14290000000000003         -1.0475267481524497E-004
  0.14400000000000002         -9.7444892162457108E-005
  0.14510000000000001         -8.9950546680483967E-005
  0.14620000000000000         -8.2367092545609921E-005
  0.14730000000000004         -7.4774674430955201E-005
  0.14840000000000003         -6.7248591221868992E-005
  0.14950000000000002         -5.9864465583814308E-005
  0.15060000000000001         -5.2687795687234029E-005
  0.15170000000000000         -4.5766832045046613E-005
  0.15280000000000005         -3.9141814340837300E-005
  0.15390000000000004         -3.2858926715562120E-005
  0.15500000000000003         -2.6961804906022735E-005
  0.15610000000000002         -2.1474581444635987E-005
  0.15720000000000001         -1.6396774299209937E-005
  0.15830000000000000         -1.1724170690285973E-005
  0.15940000000000004         -7.4645176937337965E-006
  0.16050000000000003         -3.6312692373030586E-006
  0.16160000000000002         -2.2204916660939489E-007
  0.16270000000000001          2.7854016479977872E-006
  0.16380000000000000          5.4172010095498990E-006
  0.16490000000000005          7.6888509283890016E-006
  0.16600000000000004          9.6116127679124475E-006
  0.16710000000000003          1.1207534953427967E-005
  0.16820000000000002          1.2507618521340191E-005
  0.16930000000000001          1.3536716323869769E-005
  0.17040000000000000          1.4311294762592297E-005
  0.17150000000000004          1.4852590538794175E-005
  0.17260000000000003          1.5194477782642934E-005
  0.17370000000000002          1.5370507753686979E-005
  0.17480000000000001          1.5396582966786809E-005
  0.17590000000000000          1.5276869817171246E-005
  0.17700000000000005          1.5026394066808280E-005
  0.17810000000000004          1.4677773833682295E-005
  0.17920000000000003          1.4261837350204587E-005
  0.18030000000000002          1.3788418073090725E-005
  0.18140000000000001          1.3255622434371617E-005
  0.18250000000000000          1.2671726835833397E-005
  0.18360000000000004          1.2059861546731554E-005
  0.18470000000000003          1.1438330147939268E-005
  0.18580000000000002          1.0809219929797109E-005
  0.18690000000000001          1.0170025234401692E-005
  0.18800000000000000          9.5296827566926368E-006
  0.18910000000000005          8.9032046162174083E-006
  0.19020000000000004          8.2940223364857957E-006
  0.19130000000000003          7.6952046583755873E-006
  0.19240000000000002          7.1070226113079116E-006
  0.19350000000000001          6.5435833676019683E-006
  0.19460000000000005          6.0164011301822029E-006
  0.19570000000000004          5.5188688747875858E-006
  0.19680000000000003          5.0363205446046777E-006
  0.19790000000000002          4.5694669097429141E-006
  0.19900000000000001          4.1355451685376465E-006
  0.20010000000000000          3.7448187413247069E-006
  0.20120000000000005          3.3869680464704288E-006
  0.20230000000000004          3.0461389997071819E-006
  0.20340000000000003          2.7236565074417740E-006
  0.20450000000000002          2.4350529201910831E-006
  0.20560000000000000          2.1873390778637258E-006
  0.20670000000000005          1.9701328710652888E-006
  0.20780000000000004          1.7724584040479385E-006
  0.20890000000000003          1.5979618410710827E-006
