 -0.12000000000000000          0.0000000000000000
 -0.11889999999999999          0.0000000000000000
 -0.11780000000000000          0.0000000000000000
 -0.11670000000000000          0.0000000000000000
 -0.11559999999999999          0.0000000000000000
 -0.11449999999999999          0.0000000000000000
 -0.11340000000000000          0.0000000000000000
 -0.11230000000000000          0.0000000000000000
 -0.11119999999999999          0.0000000000000000
 -0.11009999999999999          0.0000000000000000
 -0.10900000000000000          0.0000000000000000
 -0.10790000000000000          0.0000000000000000
 -0.10679999999999999          0.0000000000000000
 -0.10569999999999999          0.0000000000000000
 -0.10460000000000000          0.0000000000000000
 -0.10349999999999999          0.0000000000000000
 -0.10239999999999999          1.2766613737139105E-039
 -0.10130000000000000         -1.9186261880082458E-038
 -0.10020000000000000          7.7817562128567046E-038
  -9.9099999999999994E-002     2.3085984141638550E-037
  -9.7999999999999990E-002    -2.3180798462020064E-036
  -9.6899999999999986E-002     1.2028314417837218E-037
  -9.5799999999999996E-002     3.4851298155328446E-035
  -9.4699999999999993E-002    -3.1063040890922484E-035
  -9.3599999999999989E-002    -3.9044582100214804E-034
  -9.2499999999999999E-002     4.4235932495430657E-034
  -9.1399999999999995E-002     3.7066356432540400E-033
  -9.0299999999999991E-002    -3.6974021351283309E-033
  -8.9200000000000002E-002    -3.1138419236580223E-032
  -8.8099999999999984E-002     1.8877055129607844E-032
  -8.6999999999999994E-002     2.3176227646942247E-031
  -8.5899999999999990E-002    -1.5813884359309955E-032
  -8.4799999999999986E-002    -1.4998304514514527E-030
  -8.3699999999999997E-002    -8.3817909984817911E-031
  -8.2599999999999993E-002     8.1725505590071742E-030
  -8.1499999999999989E-002     1.0656430683763622E-029
  -8.0399999999999999E-002    -3.5342746427981241E-029
  -7.9299999999999995E-002    -8.3639887477956500E-029
  -7.8199999999999992E-002     1.0256864919512340E-028
  -7.7100000000000002E-002     4.8924990600726851E-028
  -7.5999999999999984E-002    -1.8458008767346204E-029
  -7.4899999999999994E-002    -2.1878806835411992E-027
  -7.3799999999999991E-002    -2.0646968561472305E-027
  -7.2699999999999987E-002     7.0269895951780675E-027
  -7.1599999999999997E-002     1.5547772055309674E-026
  -7.0499999999999993E-002    -1.1227673915479955E-026
  -6.9399999999999989E-002    -7.1161256389385931E-026
  -6.8300000000000000E-002    -3.5715726787687886E-026
  -6.7199999999999996E-002     2.1690046133413808E-025
  -6.6099999999999992E-002     3.6787539773660030E-025
  -6.5000000000000002E-002    -3.2414873915258647E-025
  -6.3899999999999985E-002    -1.5971678234014005E-024
  -6.2799999999999995E-002    -8.0030027581523485E-025
  -6.1699999999999991E-002     4.1233270422141050E-024
  -6.0599999999999994E-002     7.3580724833173049E-024
  -5.9499999999999990E-002    -3.6587400338586736E-024
  -5.8399999999999994E-002    -2.6110456614812336E-023
  -5.7299999999999990E-002    -2.1189889386841961E-023
  -5.6199999999999986E-002     4.7535906178840533E-023
  -5.5099999999999996E-002     1.1690399860444122E-022
  -5.3999999999999992E-002     1.7467305262201941E-023
  -5.2899999999999989E-002    -2.8513143916385526E-022
  -5.1799999999999985E-002    -4.0361466156990204E-022
  -5.0699999999999995E-002     2.0385920217564157E-022
  -4.9599999999999991E-002     1.2484839337551367E-021
  -4.8499999999999988E-002     1.1123677894730022E-021
  -4.7399999999999998E-002    -1.4838035904068143E-021
  -4.6299999999999994E-002    -4.4647267433005736E-021
  -4.5199999999999990E-002    -2.5258521420835728E-021
  -4.4099999999999986E-002     6.3875173668061063E-021
  -4.2999999999999997E-002     1.3827071955666850E-020
  -4.1899999999999993E-002     5.2616304451708864E-021
  -4.0799999999999989E-002    -2.0818929174370689E-020
  -3.9699999999999985E-002    -3.8786789728295568E-020
  -3.8599999999999995E-002    -1.3625527460713744E-020
  -3.7499999999999992E-002     5.3746603137909961E-020
  -3.6399999999999988E-002     1.0212789310295078E-019
  -3.5299999999999984E-002     5.2514427142632728E-020
  -3.4199999999999994E-002    -1.0379755716938906E-019
  -3.3099999999999991E-002    -2.5564675990501948E-019
  -3.1999999999999987E-002    -2.2517929395103624E-019
  -3.0899999999999997E-002     9.4255188698280263E-020
  -2.9799999999999993E-002     5.8873246269724003E-019
  -2.8699999999999989E-002     8.5428721782881382E-019
  -2.7599999999999986E-002     3.4697745154761852E-019
  -2.6499999999999996E-002    -1.1131515293709056E-018
  -2.5399999999999992E-002    -2.6784954026643372E-018
  -2.4299999999999988E-002    -2.4453167035032420E-018
  -2.3199999999999985E-002     1.0944715163927737E-018
  -2.2099999999999995E-002     6.6298910735110005E-018
  -2.0999999999999991E-002     9.1416783566777787E-018
  -1.9899999999999987E-002     3.0897514052522264E-018
  -1.8799999999999983E-002    -1.1339910834537450E-017
  -1.7699999999999994E-002    -2.4515183247097358E-017
  -1.6599999999999990E-002    -2.1833040184726815E-017
  -1.5499999999999986E-002     4.4463530456430277E-018
  -1.4399999999999996E-002     4.4554793293413253E-017
  -1.3299999999999992E-002     7.1257275345033556E-017
  -1.2199999999999989E-002     5.3101143972972330E-017
  -1.1099999999999985E-002    -2.4462809479432951E-017
  -9.9999999999999950E-003    -1.3876198297549375E-016
  -8.8999999999999913E-003    -2.2124483376925584E-016
  -7.7999999999999875E-003    -1.7593293860478505E-016
  -6.6999999999999837E-003     6.2253784954308274E-017
  -5.5999999999999939E-003     4.4271352246460323E-016
  -4.4999999999999901E-003     7.4575930580041204E-016
  -3.3999999999999864E-003     6.4074373748335025E-016
  -2.2999999999999826E-003    -1.0890580535534357E-016
  -1.1999999999999927E-003    -1.3684617709028377E-015
  -9.9999999999988987E-005    -2.4684850365353948E-015
   1.0000000000000148E-003    -2.3659142170623457E-015
   2.1000000000000185E-003    -2.2081214551699670E-016
   3.2000000000000084E-003     3.7787478089071000E-015
   4.3000000000000121E-003     7.8174610407548591E-015
   5.4000000000000159E-003     8.7108927587938555E-015
   6.5000000000000058E-003     3.4190364213724849E-015
   7.6000000000000234E-003    -8.5064520396116103E-015
   8.7000000000000133E-003    -2.2798516885664567E-014
   9.8000000000000032E-003    -3.0460924310259790E-014
   1.0900000000000021E-002    -2.1164022818336362E-014
   1.2000000000000011E-002     1.0285385553237408E-014
   1.3100000000000001E-002     5.6970622880694877E-014
   1.4200000000000018E-002     9.6729658245926775E-014
   1.5300000000000008E-002     9.7258681143463921E-014
   1.6400000000000026E-002     3.1205229101671089E-014
   1.7500000000000016E-002    -1.0240780120608639E-013
   1.8600000000000005E-002    -2.6050255702569913E-013
   1.9700000000000023E-002    -3.5581113793162200E-013
   2.0800000000000013E-002    -2.8496492275251195E-013
   2.1900000000000003E-002     1.6266336015776858E-014
   2.3000000000000020E-002     5.0909927315490044E-013
   2.4100000000000010E-002     1.0130902193539182E-012
   2.5200000000000000E-002     1.2298692880080564E-012
   2.6300000000000018E-002     8.4987458693827622E-013
   2.7400000000000008E-002    -2.7420248146711734E-013
   2.8500000000000025E-002    -1.9502158134926395E-012
   2.9600000000000015E-002    -3.5632477871083701E-012
   3.0700000000000005E-002    -4.1808501105577989E-012
   3.1800000000000023E-002    -2.8850715219630452E-012
   3.2900000000000013E-002     7.3310080879115946E-013
   3.4000000000000002E-002     6.0950966496164938E-012
   3.5100000000000020E-002     1.1422340503997042E-011
   3.6200000000000010E-002     1.4019356855965448E-011
   3.7300000000000028E-002     1.1140582380220199E-011
   3.8400000000000017E-002     1.2862308874234119E-012
   3.9500000000000007E-002    -1.4497653945400035E-011
   4.0600000000000025E-002    -3.1919741155794767E-011
   4.1700000000000015E-002    -4.3917331576937002E-011
   4.2800000000000005E-002    -4.2567969982254539E-011
   4.3900000000000022E-002    -2.2160854748487502E-011
   4.5000000000000012E-002     1.7460238116440152E-011
   4.6100000000000002E-002     6.8601450908811756E-011
   4.7200000000000020E-002     1.1579950887075086E-010
   4.8300000000000010E-002     1.3905941675940170E-010
   4.9400000000000027E-002     1.1998921300993004E-010
   5.0500000000000017E-002     4.9327434498147582E-011
   5.1600000000000007E-002    -6.6642275031725262E-011
   5.2700000000000025E-002    -2.0359335051178817E-010
   5.3800000000000014E-002    -3.2269034666576601E-010
   5.4900000000000004E-002    -3.8061095941621659E-010
   5.6000000000000022E-002    -3.4424441075486811E-010
   5.7100000000000012E-002    -2.0606301387449122E-010
   5.8200000000000002E-002     5.1639213738408074E-012
   5.9300000000000019E-002     2.2340419791877508E-010
   6.0400000000000009E-002     3.5714520230101243E-010
   6.1500000000000027E-002     3.1335001260401896E-010
   6.2600000000000017E-002     2.8931069345761173E-011
   6.3700000000000007E-002    -4.9822135306243354E-010
   6.4800000000000024E-002    -1.1879327521668870E-009
   6.5900000000000014E-002    -1.8741128648969152E-009
   6.7000000000000004E-002    -2.3228570178446262E-009
   6.8100000000000022E-002    -2.2705672897416207E-009
   6.9200000000000012E-002    -1.4743246623538653E-009
   7.0300000000000029E-002     2.3802901316649638E-010
   7.1400000000000019E-002     2.9322222427907718E-009
   7.2500000000000009E-002     6.5584422337394699E-009
   7.3600000000000027E-002     1.0974806841090867E-008
   7.4700000000000016E-002     1.6001171943003101E-008
   7.5800000000000006E-002     2.1492594370897677E-008
   7.6900000000000024E-002     2.7415739012326412E-008
   7.8000000000000014E-002     3.3909710595025899E-008
   7.9100000000000004E-002     4.1316720711392918E-008
   8.0200000000000021E-002     5.0177160204611937E-008
   8.1300000000000011E-002     6.1191961719941901E-008
   8.2400000000000029E-002     7.5165928592468845E-008
   8.3500000000000019E-002     9.2952014085767587E-008
   8.4600000000000009E-002     1.1541690270178151E-007
   8.5700000000000026E-002     1.4344105636610038E-007
   8.6800000000000016E-002     1.7796418205762166E-007
   8.7900000000000006E-002     2.2006014432918164E-007
   8.9000000000000024E-002     2.7102899480269116E-007
   9.0100000000000013E-002     3.3248630870730267E-007
   9.1200000000000003E-002     4.0642663634571363E-007
   9.2300000000000021E-002     4.9525664280736237E-007
   9.3400000000000011E-002     6.0180110494911787E-007
   9.4500000000000028E-002     7.2929799443954835E-007
   9.5600000000000018E-002     8.8139654508267995E-007
   9.6700000000000008E-002     1.0621880619510193E-006
   9.7800000000000026E-002     1.2762527603626950E-006
   9.8900000000000016E-002     1.5287436099242768E-006
  0.10000000000000001          1.8254899032399408E-006
  0.10110000000000002          2.1731011656811461E-006
  0.10220000000000001          2.5790373001655098E-006
  0.10330000000000003          3.0516735023411456E-006
  0.10440000000000002          3.6002732031192863E-006
  0.10550000000000001          4.2349947761977091E-006
  0.10660000000000003          4.9668233259581029E-006
  0.10770000000000002          5.8075966080650687E-006
  0.10880000000000001          6.7699997998715844E-006
  0.10990000000000003          7.8675366239622235E-006
  0.11100000000000002          9.1145020633121021E-006
  0.11210000000000001          1.0525985089770984E-005
  0.11320000000000002          1.2117755431972910E-005
  0.11430000000000001          1.3906173990108073E-005
  0.11540000000000003          1.5907942724879831E-005
  0.11650000000000002          1.8139919120585546E-005
  0.11760000000000001          2.0618665075744502E-005
  0.11870000000000003          2.3360269551631063E-005
  0.11980000000000002          2.6380042982054874E-005
  0.12090000000000001          2.9691844247281551E-005
  0.12200000000000003          3.3307955163763836E-005
  0.12310000000000001          3.7238201912259683E-005
  0.12420000000000003          4.1489838622510433E-005
  0.12530000000000002          4.6066459617577493E-005
  0.12640000000000001          5.0967752031283453E-005
  0.12750000000000003          5.6189011957030743E-005
  0.12860000000000002          6.1719889345113188E-005
  0.12970000000000001          6.7544329795055091E-005
  0.13080000000000003          7.3639712354633957E-005
  0.13190000000000002          7.9976023698691279E-005
  0.13300000000000001          8.6516178271267563E-005
  0.13410000000000000          9.3213762738741934E-005
  0.13520000000000004          1.0001438204199076E-004
  0.13630000000000003          1.0685432789614424E-004
  0.13740000000000002          1.1366089165676385E-004
  0.13850000000000001          1.2035122199449688E-004
  0.13960000000000000          1.2683380919042975E-004
  0.14070000000000005          1.3300850696396083E-004
  0.14180000000000004          1.3876697630621493E-004
  0.14290000000000003          1.4399252540897578E-004
  0.14400000000000002          1.4856246707495302E-004
  0.14510000000000001          1.5235017053782940E-004
  0.14620000000000000          1.5522376634180546E-004
  0.14730000000000004          1.5704920224379748E-004
  0.14840000000000003          1.5769292076583952E-004
  0.14950000000000002          1.5702287782914937E-004
  0.15060000000000001          1.5491191879846156E-004
  0.15170000000000000          1.5123879711609334E-004
  0.15280000000000005          1.4589325292035937E-004
  0.15390000000000004          1.3877560559194535E-004
  0.15500000000000003          1.2980293831788003E-004
  0.15610000000000002          1.1890994937857613E-004
  0.15720000000000001          1.0604989802232012E-004
  0.15830000000000000          9.1200279712211341E-005
  0.15940000000000004          7.4365329055581242E-005
  0.16050000000000003          5.5575343139935285E-005
  0.16160000000000002          3.4887656511273235E-005
  0.16270000000000001          1.2391452401061542E-005
  0.16380000000000000         -1.1792163604695816E-005
  0.16490000000000005         -3.7511785194510594E-005
  0.16600000000000004         -6.4585823565721512E-005
  0.16710000000000003         -9.2801557912025601E-005
  0.16820000000000002         -1.2191693531349301E-004
  0.16930000000000001         -1.5166372759267688E-004
  0.17040000000000000         -1.8174978322349489E-004
  0.17150000000000004         -2.1186328376643360E-004
  0.17260000000000003         -2.4167491937987506E-004
  0.17370000000000002         -2.7084359317086637E-004
  0.17480000000000001         -2.9901994275860488E-004
  0.17590000000000000         -3.2585256849415600E-004
  0.17700000000000005         -3.5099280648864806E-004
  0.17810000000000004         -3.7410028744488955E-004
  0.17920000000000003         -3.9484995068050921E-004
  0.18030000000000002         -4.1293699177913368E-004
  0.18140000000000001         -4.2808140278793871E-004
  0.18250000000000000         -4.4003312359564006E-004
  0.18360000000000004         -4.4857789180241525E-004
  0.18470000000000003         -4.5354137546382844E-004
  0.18580000000000002         -4.5479345135390759E-004
  0.18690000000000001         -4.5225012581795454E-004
  0.18800000000000000         -4.4587606680579484E-004
  0.18910000000000005         -4.3568576802499592E-004
  0.19020000000000004         -4.2174270492978394E-004
  0.19130000000000003         -4.0416070260107517E-004
  0.19240000000000002         -3.8310373201966286E-004
  0.19350000000000001         -3.5878422204405069E-004
  0.19460000000000005         -3.3145467750728130E-004
  0.19570000000000004         -3.0140636954456568E-004
  0.19680000000000003         -2.6896805502474308E-004
  0.19790000000000002         -2.3449781292583793E-004
  0.19900000000000001         -1.9837770378217101E-004
  0.20010000000000000         -1.6100973880384117E-004
  0.20120000000000005         -1.2280741066206247E-004
  0.20230000000000004         -8.4186962340027094E-005
  0.20340000000000003         -4.5563407184090465E-005
  0.20450000000000002         -7.3466685535095166E-006
  0.20560000000000000          3.0064109523664229E-005
  0.20670000000000005          6.6292384872213006E-005
  0.20780000000000004          1.0098715574713424E-004
  0.20890000000000003          1.3382757606450468E-004
