 -0.12000000000000000          0.0000000000000000
 -0.11889999999999999          0.0000000000000000
 -0.11780000000000000          0.0000000000000000
 -0.11670000000000000          0.0000000000000000
 -0.11559999999999999          0.0000000000000000
 -0.11449999999999999          0.0000000000000000
 -0.11340000000000000          0.0000000000000000
 -0.11230000000000000          0.0000000000000000
 -0.11119999999999999          4.0267353938431168E-037
 -0.11009999999999999          2.4000246988028490E-024
 -0.10900000000000000         -1.3332591801681905E-023
 -0.10790000000000000         -2.2150770878777330E-023
 -0.10679999999999999          2.2310087018385225E-022
 -0.10569999999999999          1.7721213712954940E-022
 -0.10460000000000000         -2.1391645927606436E-021
 -0.10349999999999999         -2.0389630514391390E-021
 -0.10239999999999999          1.4471807544363680E-020
 -0.10130000000000000          2.1805783110127778E-020
 -0.10020000000000000         -6.8965401627436011E-020
  -9.9099999999999994E-002    -1.7179188106943075E-019
  -9.7999999999999990E-002     1.9025075248067536E-019
  -9.6899999999999986E-002     9.6671615912095149E-019
  -9.5799999999999996E-002     1.4037760350680431E-019
  -9.4699999999999993E-002    -3.7453377424293520E-018
  -9.3599999999999989E-002    -4.5490826738675304E-018
  -9.2499999999999999E-002     8.3685606146000073E-018
  -9.1399999999999995E-002     2.4897793985072592E-017
  -9.0299999999999991E-002     2.0418134512065215E-018
  -8.9200000000000002E-002    -7.3402260552502112E-017
  -8.8099999999999984E-002    -9.4268870885997572E-017
  -8.6999999999999994E-002     8.6430666220122593E-017
  -8.5899999999999990E-002     3.5334545847996689E-016
  -8.4799999999999986E-002     2.3068923789625208E-016
  -8.3699999999999997E-002    -5.3541725513508783E-016
  -8.2599999999999993E-002    -1.2087292506216900E-015
  -8.1499999999999989E-002    -4.7744875544472746E-016
  -8.0399999999999999E-002     1.7436684615371707E-015
  -7.9299999999999995E-002     3.3463726412010978E-015
  -7.8199999999999992E-002     1.8757046985090020E-015
  -7.7100000000000002E-002    -2.7436625359340342E-015
  -7.5999999999999984E-002    -8.1821197359761654E-015
  -7.4899999999999994E-002    -1.1101890586039742E-014
  -7.3799999999999991E-002    -5.6434895717380402E-015
  -7.2699999999999987E-002     1.6435269960843173E-014
  -7.1599999999999997E-002     5.1355936240811865E-014
  -7.0499999999999993E-002     6.1798873310370400E-014
  -6.9399999999999989E-002    -9.1977689909414887E-015
  -6.8300000000000000E-002    -1.6187124882681453E-013
  -6.7199999999999996E-002    -2.6758939031604256E-013
  -6.6099999999999992E-002    -1.3148099416941019E-013
  -6.5000000000000002E-002     2.9113172918433829E-013
  -6.3899999999999985E-002     7.3013519058876118E-013
  -6.2799999999999995E-002     7.3568326994580440E-013
  -6.1699999999999991E-002     6.6426661534617387E-014
  -6.0599999999999994E-002    -1.0373297273241780E-012
  -5.9499999999999990E-002    -1.9627715251713288E-012
  -5.8399999999999994E-002    -2.0493381297503932E-012
  -5.7299999999999990E-002    -8.2078056374071739E-013
  -5.6199999999999986E-002     1.8077359270965442E-012
  -5.5099999999999996E-002     5.0855990425813316E-012
  -5.3999999999999992E-002     7.0806849966631584E-012
  -5.2899999999999989E-002     5.3764414795210034E-012
  -5.1799999999999985E-002    -1.0103240943512493E-012
  -5.0699999999999995E-002    -1.0081626505842332E-011
  -4.9599999999999991E-002    -1.7582175299013543E-011
  -4.8499999999999988E-002    -1.9545549206911914E-011
  -4.7399999999999998E-002    -1.3909917488674806E-011
  -4.6299999999999994E-002     1.6939710268182007E-013
  -4.5199999999999990E-002     2.2812203515076855E-011
  -4.4099999999999986E-002     5.0620674318935315E-011
  -4.2999999999999997E-002     7.2552998331421179E-011
  -4.1899999999999993E-002     7.0975524069094769E-011
  -4.0799999999999989E-002     3.0996788469295379E-011
  -3.9699999999999985E-002    -4.7768271976833480E-011
  -3.8599999999999995E-002    -1.4639944811989396E-010
  -3.7499999999999992E-002    -2.3152871286846774E-010
  -3.6399999999999988E-002    -2.6450713841441660E-010
  -3.5299999999999984E-002    -2.1055431009831055E-010
  -3.4199999999999994E-002    -4.9907435822894064E-011
  -3.3099999999999991E-002     2.0773764652926001E-010
  -3.1999999999999987E-002     5.1289394953357766E-010
  -3.0899999999999997E-002     7.8018108640165586E-010
  -2.9799999999999993E-002     9.0634516558552253E-010
  -2.8699999999999989E-002     7.9278195119769903E-010
  -2.7599999999999986E-002     3.6855696272653202E-010
  -2.6499999999999996E-002    -3.7981487399640767E-010
  -2.5399999999999992E-002    -1.3729907211157417E-009
  -2.4299999999999988E-002    -2.4199182657724842E-009
  -2.3199999999999985E-002    -3.2392739601760993E-009
  -2.2099999999999995E-002    -3.5146825450027663E-009
  -2.0999999999999991E-002    -2.9500277776151167E-009
  -1.9899999999999987E-002    -1.3049331615278102E-009
  -1.8799999999999983E-002     1.5754753057706173E-009
  -1.7699999999999994E-002     5.7239377682094553E-009
  -1.6599999999999990E-002     1.1035670155479256E-008
  -1.5499999999999986E-002     1.7315777256499172E-008
  -1.4399999999999996E-002     2.4378262963864538E-008
  -1.3299999999999992E-002     3.2129651827972438E-008
  -1.2199999999999989E-002     4.0597846862056170E-008
  -1.1099999999999985E-002     4.9950273250942886E-008
  -9.9999999999999950E-003     6.0562612702597346E-008
  -8.8999999999999913E-003     7.3109816867145432E-008
  -7.7999999999999875E-003     8.8576236123572387E-008
  -6.6999999999999837E-003     1.0814446227414055E-007
  -5.5999999999999939E-003     1.3305685797604439E-007
  -4.4999999999999901E-003     1.6457209994769142E-007
  -3.3999999999999864E-003     2.0401985523221893E-007
  -2.2999999999999826E-003     2.5285606852776355E-007
  -1.1999999999999927E-003     3.1267273925550525E-007
  -9.9999999999988987E-005     3.8522293266396599E-007
   1.0000000000000148E-003     4.7251737100850923E-007
   2.1000000000000185E-003     5.7696365729498444E-007
   3.2000000000000084E-003     7.0149792463780899E-007
   4.3000000000000121E-003     8.4973680714029237E-007
   5.4000000000000159E-003     1.0261707075187630E-006
   6.5000000000000058E-003     1.2362647794361743E-006
   7.6000000000000234E-003     1.4863176147628171E-006
   8.7000000000000133E-003     1.7831716832006424E-006
   9.8000000000000032E-003     2.1341147657949566E-006
   1.0900000000000021E-002     2.5471515527897387E-006
   1.2000000000000011E-002     3.0314022296806924E-006
   1.3100000000000001E-002     3.5971925171907212E-006
   1.4200000000000018E-002     4.2558103814372039E-006
   1.5300000000000008E-002     5.0194148570881437E-006
   1.6400000000000026E-002     5.9014255384682000E-006
   1.7500000000000016E-002     6.9171346694929822E-006
   1.8600000000000005E-002     8.0838117355597561E-006
   1.9700000000000023E-002     9.4202205218607966E-006
   2.0800000000000013E-002     1.0946057045657701E-005
   2.1900000000000003E-002     1.2681758562394008E-005
   2.3000000000000020E-002     1.4648716387455416E-005
   2.4100000000000010E-002     1.6869251339812838E-005
   2.5200000000000000E-002     1.9366461856407198E-005
   2.6300000000000018E-002     2.2163960238685930E-005
   2.7400000000000008E-002     2.5285640731454011E-005
   2.8500000000000025E-002     2.8755233870470094E-005
   2.9600000000000015E-002     3.2595900847809538E-005
   3.0700000000000005E-002     3.6829893360845914E-005
   3.1800000000000023E-002     4.1478571802145060E-005
   3.2900000000000013E-002     4.6561734052375176E-005
   3.4000000000000002E-002     5.2095809223829081E-005
   3.5100000000000020E-002     5.8092326071346450E-005
   3.6200000000000010E-002     6.4557374571450353E-005
   3.7300000000000028E-002     7.1492184360977601E-005
   3.8400000000000017E-002     7.8893266618252180E-005
   3.9500000000000007E-002     8.6750020273030211E-005
   4.0600000000000025E-002     9.5042603788897856E-005
   4.1700000000000015E-002     1.0374064731877347E-004
   4.2800000000000005E-002     1.1280363105470369E-004
   4.3900000000000022E-002     1.2218186748214126E-004
   4.5000000000000012E-002     1.3181554095353996E-004
   4.6100000000000002E-002     1.4163210289552878E-004
   4.7200000000000020E-002     1.5154527500271873E-004
   4.8300000000000010E-002     1.6145379049703560E-004
   4.9400000000000027E-002     1.7124283476732758E-004
   5.0500000000000017E-002     1.8078592256642970E-004
   5.1600000000000007E-002     1.8994438869413086E-004
   5.2700000000000025E-002     1.9856910512317075E-004
   5.3800000000000014E-002     2.0649873476941247E-004
   5.4900000000000004E-002     2.1355996432248614E-004
   5.6000000000000022E-002     2.1956955606583622E-004
   5.7100000000000012E-002     2.2433877165895075E-004
   5.8200000000000002E-002     2.2767804330214980E-004
   5.9300000000000019E-002     2.2939979680813974E-004
   6.0400000000000009E-002     2.2931805870030203E-004
   6.1500000000000027E-002     2.2724508016836026E-004
   6.2600000000000017E-002     2.2300101409200706E-004
   6.3700000000000007E-002     2.1641899365931874E-004
   6.4800000000000024E-002     2.0735651196446392E-004
   6.5900000000000014E-002     1.9569118740037203E-004
   6.7000000000000004E-002     1.8132186960429067E-004
   6.8100000000000022E-002     1.6416895959992067E-004
   6.9200000000000012E-002     1.4418408682104298E-004
   7.0300000000000029E-002     1.2135651195421902E-004
   7.1400000000000019E-002     9.5719995442778617E-005
   7.2500000000000009E-002     6.7349646997172995E-005
   7.3600000000000027E-002     3.6358978832141032E-005
   7.4700000000000016E-002     2.9025236472082995E-006
   7.5800000000000006E-002    -3.2824966183397797E-005
   7.6900000000000024E-002    -7.0584777859039672E-005
   7.8000000000000014E-002    -1.1008814180968356E-004
   7.9100000000000004E-002    -1.5099783195182730E-004
   8.0200000000000021E-002    -1.9293953664600920E-004
   8.1300000000000011E-002    -2.3551454069092965E-004
   8.2400000000000029E-002    -2.7830051840283096E-004
   8.3500000000000019E-002    -3.2084656413644693E-004
   8.4600000000000009E-002    -3.6266865208745171E-004
   8.5700000000000026E-002    -4.0326602174900662E-004
   8.6800000000000016E-002    -4.4213756336830768E-004
   8.7900000000000006E-002    -4.7879750491120154E-004
   8.9000000000000024E-002    -5.1277119200676940E-004
   9.0100000000000013E-002    -5.4359668865800175E-004
   9.1200000000000003E-002    -5.7082896819338495E-004
   9.2300000000000021E-002    -5.9405394131318049E-004
   9.3400000000000011E-002    -6.1290338635444966E-004
   9.4500000000000028E-002    -6.2706344760954716E-004
   9.5600000000000018E-002    -6.3627882627770652E-004
   9.6700000000000008E-002    -6.4035149989650011E-004
   9.7800000000000026E-002    -6.3914008205756903E-004
   9.8900000000000016E-002    -6.3256593421101928E-004
  0.10000000000000001         -6.2061974313110471E-004
  0.10110000000000002         -6.0336873866618027E-004
  0.10220000000000001         -5.8096059365198363E-004
  0.10330000000000003         -5.5361294653267004E-004
  0.10440000000000002         -5.2160053746775107E-004
  0.10550000000000001         -4.8524548765272200E-004
  0.10660000000000003         -4.4492937740870102E-004
  0.10770000000000002         -4.0109694236889742E-004
  0.10880000000000001         -3.5424876841716701E-004
  0.10990000000000003         -3.0491486540995750E-004
  0.11100000000000002         -2.5364357861690408E-004
  0.11210000000000001         -2.0099403627682632E-004
  0.11320000000000002         -1.4754130097571885E-004
  0.11430000000000001         -9.3865382950753922E-005
  0.11540000000000003         -4.0547281969339306E-005
  0.11650000000000002          1.1849510883621053E-005
  0.11760000000000001          6.2793122197035646E-005
  0.11870000000000003          1.1178630666108825E-004
  0.11980000000000002          1.5837757382541946E-004
  0.12090000000000001          2.0215689437463958E-004
  0.12200000000000003          2.4275397299788995E-004
  0.12310000000000001          2.7984578628093129E-004
  0.12420000000000003          3.1316431704908756E-004
  0.12530000000000002          3.4252001205459405E-004
  0.12640000000000001          3.6778868525289183E-004
  0.12750000000000003          3.8889658753760360E-004
  0.12860000000000002          4.0580765926279339E-004
  0.12970000000000001          4.1854064329527541E-004
  0.13080000000000003          4.2717787437141175E-004
  0.13190000000000002          4.3185963295400381E-004
  0.13300000000000001          4.3276412179693818E-004
  0.13410000000000000          4.3009954970330244E-004
  0.13520000000000004          4.2410576133989042E-004
  0.13630000000000003          4.1505711851641774E-004
  0.13740000000000002          4.0324684232473607E-004
  0.13850000000000001          3.8897941703908373E-004
  0.13960000000000000          3.7256922223605438E-004
  0.14070000000000005          3.5434210440144154E-004
  0.14180000000000004          3.3462856663391195E-004
  0.14290000000000003          3.1374566606246125E-004
  0.14400000000000002          2.9199186246842325E-004
  0.14510000000000001          2.6965531287715007E-004
  0.14620000000000000          2.4701835354790243E-004
  0.14730000000000004          2.2434878337662808E-004
  0.14840000000000003          2.0188312919344883E-004
  0.14950000000000002          1.7982472490985063E-004
  0.15060000000000001          1.5835723024793072E-004
  0.15170000000000000          1.3765168841928336E-004
  0.15280000000000005          1.1785567039623937E-004
  0.15390000000000004          9.9080185464118367E-005
  0.15500000000000003          8.1403268268332468E-005
  0.15610000000000002          6.4889762143139270E-005
  0.15720000000000001          4.9596827011555820E-005
  0.15830000000000000          3.5561984986998439E-005
  0.15940000000000004          2.2789117792854302E-005
  0.16050000000000003          1.1255573554081053E-005
  0.16160000000000002          9.3270784873319232E-007
  0.16270000000000001         -8.2067508628824556E-006
  0.16380000000000000         -1.6198699086089656E-005
  0.16490000000000005         -2.3099610189092427E-005
  0.16600000000000004         -2.8979420676478307E-005
  0.16710000000000003         -3.3906071621459133E-005
  0.16820000000000002         -3.7945123040117506E-005
  0.16930000000000001         -4.1169296309817792E-005
  0.17040000000000000         -4.3658961658366255E-005
  0.17150000000000004         -4.5489854528568929E-005
  0.17260000000000003         -4.6724020648980764E-005
  0.17370000000000002         -4.7421261115232740E-005
  0.17480000000000001         -4.7654364607297148E-005
  0.17590000000000000         -4.7503093810519468E-005
  0.17700000000000005         -4.7031138819875460E-005
  0.17810000000000004         -4.6279543312266733E-005
  0.17920000000000003         -4.5284094085218642E-005
  0.18030000000000002         -4.4096170313423757E-005
  0.18140000000000001         -4.2774197936523956E-005
  0.18250000000000000         -4.1360646719113236E-005
  0.18360000000000004         -3.9876642404124371E-005
  0.18470000000000003         -3.8340607716236487E-005
  0.18580000000000002         -3.6783629184356176E-005
  0.18690000000000001         -3.5237710108049424E-005
  0.18800000000000000         -3.3717886253725941E-005
  0.18910000000000005         -3.2226122129941549E-005
  0.19020000000000004         -3.0771552701480870E-005
  0.19130000000000003         -2.9375729354797107E-005
  0.19240000000000002         -2.8053538699168881E-005
  0.19350000000000001         -2.6799700208357695E-005
  0.19460000000000005         -2.5602437744964998E-005
  0.19570000000000004         -2.4465078240609873E-005
  0.19680000000000003         -2.3402739316225191E-005
  0.19790000000000002         -2.2418958906200850E-005
  0.19900000000000001         -2.1497609850485007E-005
  0.20010000000000000         -2.0623358068405773E-005
  0.20120000000000005         -1.9799310393864408E-005
  0.20230000000000004         -1.9035394871025461E-005
  0.20340000000000003         -1.8324890334042829E-005
  0.20450000000000002         -1.7645659681875364E-005
  0.20560000000000000         -1.6985775801004012E-005
  0.20670000000000005         -1.6354078979930007E-005
  0.20780000000000004         -1.5760342648718598E-005
  0.20890000000000003         -1.5193058970908258E-005
