 -0.12000000000000000          0.0000000000000000
 -0.11889999999999999          0.0000000000000000
 -0.11780000000000000          0.0000000000000000
 -0.11670000000000000          0.0000000000000000
 -0.11559999999999999          0.0000000000000000
 -0.11449999999999999          0.0000000000000000
 -0.11340000000000000          0.0000000000000000
 -0.11230000000000000          0.0000000000000000
 -0.11119999999999999          0.0000000000000000
 -0.11009999999999999          0.0000000000000000
 -0.10900000000000000          0.0000000000000000
 -0.10790000000000000          0.0000000000000000
 -0.10679999999999999          0.0000000000000000
 -0.10569999999999999          0.0000000000000000
 -0.10460000000000000          0.0000000000000000
 -0.10349999999999999          0.0000000000000000
 -0.10239999999999999         -7.7628992196819784E-040
 -0.10130000000000000          1.2037617638341870E-038
 -0.10020000000000000         -5.2273185923706667E-038
  -9.9099999999999994E-002    -1.2016736329405580E-037
  -9.7999999999999990E-002     1.4416759491121564E-036
  -9.6899999999999986E-002    -5.6585840014133067E-037
  -9.5799999999999996E-002    -2.0509651490486354E-035
  -9.4699999999999993E-002     2.4620645952054419E-035
  -9.3599999999999989E-002     2.2016173487886407E-034
  -9.2499999999999999E-002    -3.1638969985921796E-034
  -9.1399999999999995E-002    -2.0285761314819535E-033
  -9.0299999999999991E-002     2.5908968130718342E-033
  -8.9200000000000002E-002     1.6717758699855675E-032
  -8.8099999999999984E-002    -1.4096982289753877E-032
  -8.6999999999999994E-002    -1.2283496314609661E-031
  -8.5899999999999990E-002     3.2413166452914190E-032
  -8.4799999999999986E-002     7.8670584791776229E-031
  -8.3699999999999997E-002     3.0523688000598778E-031
  -8.2599999999999993E-002    -4.2466228652269382E-030
  -8.1499999999999989E-002    -4.8053200957659848E-030
  -8.0399999999999999E-002     1.8242321164535293E-029
  -7.9299999999999995E-002     3.9088996142695916E-029
  -7.8199999999999992E-002    -5.3446475868159106E-029
  -7.7100000000000002E-002    -2.2873521244221320E-028
  -7.5999999999999984E-002     2.4204908489759263E-029
  -7.4899999999999994E-002     1.0079724142499921E-027
  -7.3799999999999991E-002     8.9808539978506736E-028
  -7.2699999999999987E-002    -3.1538501064480612E-027
  -7.1599999999999997E-002    -6.7883214231218014E-027
  -7.0499999999999993E-002     4.7750016371360170E-027
  -6.9399999999999989E-002     3.0179957015057656E-026
  -6.8300000000000000E-002     1.6038813316906466E-026
  -6.7199999999999996E-002    -8.7276729421798786E-026
  -6.6099999999999992E-002    -1.5318650795024933E-025
  -6.5000000000000002E-002     1.1245191249807728E-025
  -6.3899999999999985E-002     6.2342247529225850E-025
  -6.2799999999999995E-002     3.8031023683750240E-025
  -6.1699999999999991E-002    -1.4533812587382483E-024
  -6.0599999999999994E-002    -2.8792365966953935E-024
  -5.9499999999999990E-002     7.3283891265680355E-025
  -5.8399999999999994E-002     9.0653007997085568E-024
  -5.7299999999999990E-002     9.1766406278714504E-024
  -5.6199999999999986E-002    -1.3046606846573007E-023
  -5.5099999999999996E-002    -4.0613686445405984E-023
  -5.3999999999999992E-002    -1.7967872216444502E-023
  -5.2899999999999989E-002     7.9035715347716260E-023
  -5.1799999999999985E-002     1.4618984755470883E-022
  -5.0699999999999995E-002     1.4284178540001425E-024
  -4.9599999999999991E-002    -3.3984804324033506E-022
  -4.8499999999999988E-002    -4.5569891884719347E-022
  -4.7399999999999998E-002     1.4392981785923581E-022
  -4.6299999999999994E-002     1.1893596040806143E-021
  -4.5199999999999990E-002     1.3399095047911414E-021
  -4.4099999999999986E-002    -5.9760780128499788E-022
  -4.2999999999999997E-002    -3.6053062816971515E-021
  -4.1899999999999993E-002    -4.0787565146650882E-021
  -4.0799999999999989E-002     1.0823503824736689E-021
  -3.9699999999999985E-002     9.7922287148880973E-021
  -3.8599999999999995E-002     1.3379929943587221E-020
  -3.7499999999999992E-002     2.0967588636186170E-021
  -3.6399999999999988E-002    -2.3854774110906932E-020
  -3.5299999999999984E-002    -4.5041994143906919E-020
  -3.4199999999999994E-002    -2.7373251469886591E-020
  -3.3099999999999991E-002     4.8706575509753025E-020
  -3.1999999999999987E-002     1.4315315635343701E-019
  -3.0899999999999997E-002     1.4252315491940131E-019
  -2.9799999999999993E-002    -5.9845211923807367E-020
  -2.8699999999999989E-002    -3.9918200907797064E-019
  -2.7599999999999986E-002    -5.4727680703428480E-019
  -2.6499999999999996E-002    -1.0872988006567791E-019
  -2.5399999999999992E-002     8.9826086297516876E-019
  -2.4299999999999988E-002     1.6947361175999218E-018
  -2.3199999999999985E-002     1.1032705467612300E-018
  -2.2099999999999995E-002    -1.3130598869217757E-018
  -2.0999999999999991E-002    -4.1931509921890146E-018
  -1.9899999999999987E-002    -4.6717618305152592E-018
  -1.8799999999999983E-002    -4.6956510134009437E-019
  -1.7699999999999994E-002     7.4136434631340754E-018
  -1.6599999999999990E-002     1.3667333207646265E-017
  -1.5499999999999986E-002     1.1009993155943125E-017
  -1.4399999999999996E-002    -4.4063084050087231E-018
  -1.3299999999999992E-002    -2.7288637122926405E-017
  -1.2199999999999989E-002    -4.1693774077939343E-017
  -1.1099999999999985E-002    -2.7849238930749518E-017
  -9.9999999999999950E-003     2.2653968966210167E-017
  -8.8999999999999913E-003     9.0908088996753602E-017
  -7.7999999999999875E-003     1.2812932397239833E-016
  -6.6999999999999837E-003     7.8215134846025401E-017
  -5.5999999999999939E-003    -7.8100765545811369E-017
  -4.4999999999999901E-003    -2.8202306085966752E-016
  -3.3999999999999864E-003    -3.9418096980665517E-016
  -2.2999999999999826E-003    -2.5544697862309022E-016
  -1.1999999999999927E-003     1.9819637906019668E-016
  -9.9999999999988987E-005     8.2038920826106110E-016
   1.0000000000000148E-003     1.2260338160967376E-015
   2.1000000000000185E-003     9.3140875786649818E-016
   3.2000000000000084E-003    -3.2856569489649881E-016
   4.3000000000000121E-003    -2.2346493094681100E-015
   5.4000000000000159E-003    -3.7320911165899650E-015
   6.5000000000000058E-003    -3.3638240610133711E-015
   7.6000000000000234E-003    -1.4157409265570862E-016
   8.7000000000000133E-003     5.3883793416510239E-015
   9.8000000000000032E-003     1.0584988729977780E-014
   1.0900000000000021E-002     1.1377676043336244E-014
   1.2000000000000011E-002     4.3759589762805851E-015
   1.3100000000000001E-002    -1.0276202022023277E-014
   1.4200000000000018E-002    -2.6907163698736483E-014
   1.5300000000000008E-002    -3.5058175302691771E-014
   1.6400000000000026E-002    -2.3954486465705034E-014
   1.7500000000000016E-002     1.0305122267941381E-014
   1.8600000000000005E-002     5.8214602572086854E-014
   1.9700000000000023E-002     9.5679635546928876E-014
   2.0800000000000013E-002     9.1814339605537226E-014
   2.1900000000000003E-002     2.5410864750818711E-014
   2.3000000000000020E-002    -9.5926067924471253E-014
   2.4100000000000010E-002    -2.2482276457180816E-013
   2.5200000000000000E-002    -2.8272122056666182E-013
   2.6300000000000018E-002    -1.9297108670105617E-013
   2.7400000000000008E-002     6.9551569364945109E-014
   2.8500000000000025E-002     4.3491192635095044E-013
   2.9600000000000015E-002     7.3104857670897028E-013
   3.0700000000000005E-002     7.3607618481311143E-013
   3.1800000000000023E-002     2.8770299402396116E-013
   3.2900000000000013E-002    -5.8783333018938566E-013
   3.4000000000000002E-002    -1.5938632792061869E-012
   3.5100000000000020E-002    -2.1983732109015497E-012
   3.6200000000000010E-002    -1.8216062339093675E-012
   3.7300000000000028E-002    -1.4304705965757780E-013
   3.8400000000000017E-002     2.5855576360478416E-012
   3.9500000000000007E-002     5.3884097704626210E-012
   4.0600000000000025E-002     6.7306993312143959E-012
   4.1700000000000015E-002     5.0587940954305299E-012
   4.2800000000000005E-002    -3.9369825758847621E-013
   4.3900000000000022E-002    -8.8233673839477333E-012
   4.5000000000000012E-002    -1.7495423512703390E-011
   4.6100000000000002E-002    -2.2156970702624790E-011
   4.7200000000000020E-002    -1.8351986597053838E-011
   4.8300000000000010E-002    -3.3971302333679620E-012
   4.9400000000000027E-002     2.1605783134814871E-011
   5.0500000000000017E-002     5.0578853605376395E-011
   5.1600000000000007E-002     7.2895849079213093E-011
   5.2700000000000025E-002     7.5821800227249270E-011
   5.3800000000000014E-002     4.8689670351098613E-011
   5.4900000000000004E-002    -1.2193301056340200E-011
   5.6000000000000022E-002    -9.9452522606124916E-011
   5.7100000000000012E-002    -1.9302393017284203E-010
   5.8200000000000002E-002    -2.6222624072147482E-010
   5.9300000000000019E-002    -2.7184546280700772E-010
   6.0400000000000009E-002    -1.9138328422041440E-010
   6.1500000000000027E-002    -5.5578462838934417E-012
   6.2600000000000017E-002     2.7648858202944382E-010
   6.3700000000000007E-002     6.1579241705800314E-010
   6.4800000000000024E-002     9.4383678650444836E-010
   6.5900000000000014E-002     1.1691393408952422E-009
   6.7000000000000004E-002     1.1894141227486443E-009
   6.8100000000000022E-002     9.0723362156097664E-010
   6.9200000000000012E-002     2.4600302350741288E-010
   7.0300000000000029E-002    -8.3733925348994376E-010
   7.1400000000000019E-002    -2.3464405973783187E-009
   7.2500000000000009E-002    -4.2489829432668103E-009
   7.3600000000000027E-002    -6.4904108754149092E-009
   7.4700000000000016E-002    -9.0165492849791917E-009
   7.5800000000000006E-002    -1.1801515320541967E-008
   7.6900000000000024E-002    -1.4875447540418918E-008
   7.8000000000000014E-002    -1.8345859942314746E-008
   7.9100000000000004E-002    -2.2407323996276318E-008
   8.0200000000000021E-002    -2.7337486940837152E-008
   8.1300000000000011E-002    -3.3480702654742345E-008
   8.2400000000000029E-002    -4.1224904379077998E-008
   8.3500000000000019E-002    -5.0981036281427805E-008
   8.4600000000000009E-002    -6.3173963837925839E-008
   8.5700000000000026E-002    -7.8250330659557221E-008
   8.6800000000000016E-002    -9.6705896623916487E-008
   8.7900000000000006E-002    -1.1912590025531244E-007
   8.9000000000000024E-002    -1.4622881394643628E-007
   9.0100000000000013E-002    -1.7890504011575104E-007
   9.1200000000000003E-002    -2.1824048701546417E-007
   9.2300000000000021E-002    -2.6552433496362937E-007
   9.3400000000000011E-002    -3.2224684787252045E-007
   9.4500000000000028E-002    -3.9009327679195849E-007
   9.5600000000000018E-002    -4.7095659283513669E-007
   9.6700000000000008E-002    -5.6695910188864218E-007
   9.7800000000000026E-002    -6.8050024992771796E-007
   9.8900000000000016E-002    -8.1431147691546357E-007
  0.10000000000000001         -9.7151951194973662E-007
  0.10110000000000002         -1.1556880963325966E-006
  0.10220000000000001         -1.3708512369703385E-006
  0.10330000000000003         -1.6215008145081811E-006
  0.10440000000000002         -1.9125845938106067E-006
  0.10550000000000001         -2.2495114535558969E-006
  0.10660000000000003         -2.6381244424555916E-006
  0.10770000000000002         -3.0847481866658200E-006
  0.10880000000000001         -3.5961709272669395E-006
  0.10990000000000003         -4.1796829464146867E-006
  0.11100000000000002         -4.8430620154249482E-006
  0.11210000000000001         -5.5945861276995856E-006
  0.11320000000000002         -6.4429245867358986E-006
  0.11430000000000001         -7.3971109486592468E-006
  0.11540000000000003         -8.4663961388287134E-006
  0.11650000000000002         -9.6601006589480676E-006
  0.11760000000000001         -1.0987512723659165E-005
  0.11870000000000003         -1.2457656339392997E-005
  0.11980000000000002         -1.4079285392654128E-005
  0.12090000000000001         -1.5860385246924125E-005
  0.12200000000000003         -1.7808257325668819E-005
  0.12310000000000001         -1.9929053451051004E-005
  0.12420000000000003         -2.2227415684028529E-005
  0.12530000000000002         -2.4706394469831139E-005
  0.12640000000000001         -2.7366910217097029E-005
  0.12750000000000003         -3.0207698728190735E-005
  0.12860000000000002         -3.3224685466848314E-005
  0.12970000000000001         -3.6410696338862181E-005
  0.13080000000000003         -3.9755195757606998E-005
  0.13190000000000002         -4.3243635445833206E-005
  0.13300000000000001         -4.6857676352374256E-005
  0.13410000000000000         -5.0574013584991917E-005
  0.13520000000000004         -5.4365213145501912E-005
  0.13630000000000003         -5.8198325859848410E-005
  0.13740000000000002         -6.2035978771746159E-005
  0.13850000000000001         -6.5835665736813098E-005
  0.13960000000000000         -6.9549649197142571E-005
  0.14070000000000005         -7.3125782364513725E-005
  0.14180000000000004         -7.6506905315909535E-005
  0.14290000000000003         -7.9631718108430505E-005
  0.14400000000000002         -8.2434795331209898E-005
  0.14510000000000001         -8.4848572441842407E-005
  0.14620000000000000         -8.6801752331666648E-005
  0.14730000000000004         -8.8221648184116930E-005
  0.14840000000000003         -8.9035987912211567E-005
  0.14950000000000002         -8.9172848674934357E-005
  0.15060000000000001         -8.8561479060444981E-005
  0.15170000000000000         -8.7134998466353863E-005
  0.15280000000000005         -8.4830964624416083E-005
  0.15390000000000004         -8.1592610513325781E-005
  0.15500000000000003         -7.7371274528559297E-005
  0.15610000000000002         -7.2126800660043955E-005
  0.15720000000000001         -6.5828426158986986E-005
  0.15830000000000000         -5.8458415878703818E-005
  0.15940000000000004         -5.0012396968668327E-005
  0.16050000000000003         -4.0499693568563089E-005
  0.16160000000000002         -2.9945573260192759E-005
  0.16270000000000001         -1.8389397155260667E-005
  0.16380000000000000         -5.8875830291071907E-006
  0.16490000000000005          7.4853851401712745E-006
  0.16600000000000004          2.1640924387611449E-005
  0.16710000000000003          3.6472039937507361E-005
  0.16820000000000002          5.1855848141713068E-005
  0.16930000000000001          6.7656561441253871E-005
  0.17040000000000000          8.3724837168119848E-005
  0.17150000000000004          9.9899058113805950E-005
  0.17260000000000003          1.1600822472246364E-004
  0.17370000000000002          1.3187348667997867E-004
  0.17480000000000001          1.4731094415765256E-004
  0.17590000000000000          1.6213537310250103E-004
  0.17700000000000005          1.7616178956814110E-004
  0.17810000000000004          1.8920851289294660E-004
  0.17920000000000003          2.0110025070607662E-004
  0.18030000000000002          2.1167111117392778E-004
  0.18140000000000001          2.2076684399507940E-004
  0.18250000000000000          2.2824900224804878E-004
  0.18360000000000004          2.3399703786708415E-004
  0.18470000000000003          2.3791067360434681E-004
  0.18580000000000002          2.3991160560399294E-004
  0.18690000000000001          2.3994523508008569E-004
  0.18800000000000000          2.3798098845873028E-004
  0.18910000000000005          2.3401556245516986E-004
  0.19020000000000004          2.2807039204053581E-004
  0.19130000000000003          2.2019523021299392E-004
  0.19240000000000002          2.1046520851086825E-004
  0.19350000000000001          1.9897827587556094E-004
  0.19460000000000005          1.8585640646051615E-004
  0.19570000000000004          1.7124155419878662E-004
  0.19680000000000003          1.5529744268860668E-004
  0.19790000000000002          1.3820429740007967E-004
  0.19900000000000001          1.2015487300232053E-004
  0.20010000000000000          1.0135181219084188E-004
  0.20120000000000005          8.2005877629853785E-005
  0.20230000000000004          6.2329818319994956E-005
  0.20340000000000003          4.2540188587736338E-005
  0.20450000000000002          2.2849948436487466E-005
  0.20560000000000000          3.4666609280975536E-006
  0.20670000000000005         -1.5414036170113832E-005
  0.20780000000000004         -3.3607160730753094E-005
  0.20890000000000003         -5.0940463552251458E-005
