 -0.12000000000000000          0.0000000000000000
 -0.11889999999999999          0.0000000000000000
 -0.11780000000000000          0.0000000000000000
 -0.11670000000000000          0.0000000000000000
 -0.11559999999999999          0.0000000000000000
 -0.11449999999999999          0.0000000000000000
 -0.11340000000000000          0.0000000000000000
 -0.11230000000000000          4.5173342993479524E-021
 -0.11119999999999999         -2.1335484079864448E-021
 -0.11009999999999999         -5.0255089928194970E-020
 -0.10900000000000000          6.3248293548368044E-021
 -0.10790000000000000          3.2296866351523760E-019
 -0.10679999999999999          1.0674532514214688E-019
 -0.10569999999999999         -1.4623054999053043E-018
 -0.10460000000000000         -1.2596314639763631E-018
 -0.10349999999999999          4.7662444680325974E-018
 -0.10239999999999999          7.2483744311072056E-018
 -0.10130000000000000         -1.0592410048849818E-017
 -0.10020000000000000         -2.7792540662842683E-017
  -9.9099999999999994E-002     1.2570404034256020E-017
  -9.7999999999999990E-002     7.9820388012525408E-017
  -9.6899999999999986E-002     1.2145959463981585E-017
  -9.5799999999999996E-002    -1.8955639153529660E-016
  -9.4699999999999993E-002    -1.2843962919866902E-016
  -9.3599999999999989E-002     3.9215158474415228E-016
  -9.2499999999999999E-002     5.3948867781474234E-016
  -9.1399999999999995E-002    -6.0574131854792797E-016
  -9.0299999999999991E-002    -1.6980223854052255E-015
  -8.9200000000000002E-002     1.2997167357223563E-016
  -8.8099999999999984E-002     3.8443721100121005E-015
  -8.6999999999999994E-002     2.7951553628635141E-015
  -8.5899999999999990E-002    -5.4412773962400022E-015
  -8.4799999999999986E-002    -9.5917367202037057E-015
  -8.3699999999999997E-002     2.5227787896632114E-015
  -8.2599999999999993E-002     1.8417176285553602E-014
  -8.1499999999999989E-002     8.2132634433807958E-015
  -8.0399999999999999E-002    -2.5318150218478150E-014
  -7.9299999999999995E-002    -2.8646840623388833E-014
  -7.8199999999999992E-002     2.6885361070674157E-014
  -7.7100000000000002E-002     6.7104552166699638E-014
  -7.5999999999999984E-002    -4.8576704250323684E-015
  -7.4899999999999994E-002    -1.2584730349832207E-013
  -7.3799999999999991E-002    -8.8558914162432251E-014
  -7.2699999999999987E-002     1.4607450448886339E-013
  -7.1599999999999997E-002     2.6607253726662616E-013
  -7.0499999999999993E-002    -1.4646112759543993E-014
  -6.9399999999999989E-002    -4.1285190869287669E-013
  -6.8300000000000000E-002    -2.8991520013670058E-013
  -6.7199999999999996E-002     3.7689461469293806E-013
  -6.6099999999999992E-002     6.6023093025710522E-013
  -6.5000000000000002E-002    -1.0487497778847651E-013
  -6.3899999999999985E-002    -1.0222497761475102E-012
  -6.2799999999999995E-002    -5.2547311120421103E-013
  -6.1699999999999991E-002     1.1612594566501322E-012
  -6.0599999999999994E-002     1.6429079234200894E-012
  -5.9499999999999990E-002    -4.3079670148001015E-013
  -5.8399999999999994E-002    -2.6582640168942850E-012
  -5.7299999999999990E-002    -1.4798709133123644E-012
  -5.6199999999999986E-002     2.3741720395209498E-012
  -5.5099999999999996E-002     3.6569896416649428E-012
  -5.3999999999999992E-002    -3.4668958242417558E-013
  -5.2899999999999989E-002    -4.7691646638814422E-012
  -5.1799999999999985E-002    -2.8353864395258555E-012
  -5.0699999999999995E-002     3.9462552149649444E-012
  -4.9599999999999991E-002     6.1617768179478283E-012
  -4.8499999999999988E-002    -6.3208173504275544E-013
  -4.7399999999999998E-002    -7.9608012890086677E-012
  -4.6299999999999994E-002    -4.8449252422477773E-012
  -4.5199999999999990E-002     5.9952529052331727E-012
  -4.4099999999999986E-002     1.0003413895842694E-011
  -4.2999999999999997E-002     7.0893903811666825E-013
  -4.1899999999999993E-002    -9.9521771032562434E-012
  -4.0799999999999989E-002    -7.5309342095764009E-012
  -3.9699999999999985E-002     4.1720871549189020E-012
  -3.8599999999999995E-002     8.2178690935519327E-012
  -3.7499999999999992E-002    -6.3646483916546259E-013
  -3.6399999999999988E-002    -8.0514518663310497E-012
  -3.5299999999999984E-002    -1.8643177279731304E-012
  -3.4199999999999994E-002     9.1509968005998310E-012
  -3.3099999999999991E-002     8.9052870980155241E-012
  -3.1999999999999987E-002    -8.5827959322992697E-013
  -3.0899999999999997E-002    -4.3759254032826878E-012
  -2.9799999999999993E-002     6.2444618703291765E-013
  -2.8699999999999989E-002    -1.9753755922669036E-012
  -2.7599999999999986E-002    -1.6758599716282241E-011
  -2.6499999999999996E-002    -2.0911421899638682E-011
  -2.5399999999999992E-002     2.9931426261120553E-012
  -2.4299999999999988E-002     3.0767211695037489E-011
  -2.3199999999999985E-002     2.1644861250558201E-011
  -2.2099999999999995E-002    -1.9662287423227731E-011
  -2.0999999999999991E-002    -3.8404397717517469E-011
  -1.9899999999999987E-002    -5.0875957093021729E-012
  -1.8799999999999983E-002     3.2640008751361194E-011
  -1.7699999999999994E-002     9.1765518794861833E-012
  -1.6599999999999990E-002    -5.9792032436334352E-011
  -1.5499999999999986E-002    -8.4340874562105483E-011
  -1.4399999999999996E-002    -1.9530729464256602E-011
  -1.3299999999999992E-002     6.4559801948860240E-011
  -1.2199999999999989E-002     6.8706276779018083E-011
  -1.1099999999999985E-002    -7.4076066461370438E-012
  -9.9999999999999950E-003    -7.1643545263011532E-011
  -8.8999999999999913E-003    -6.8211783443850038E-011
  -7.7999999999999875E-003    -4.3012038375422890E-011
  -6.6999999999999837E-003    -6.1040367205222879E-011
  -5.5999999999999939E-003    -1.0959731733262146E-010
  -4.4999999999999901E-003    -1.3007001031795085E-010
  -3.3999999999999864E-003    -1.1145078609997583E-010
  -2.2999999999999826E-003    -9.2282480268490730E-011
  -1.1999999999999927E-003    -8.0276410518997920E-011
  -9.9999999999988987E-005    -4.9002614466164829E-011
   1.0000000000000148E-003    -2.1945067291140319E-011
   2.1000000000000185E-003    -9.4406663042612138E-011
   3.2000000000000084E-003    -3.0142469076288592E-010
   4.3000000000000121E-003    -5.0125087414087943E-010
   5.4000000000000159E-003    -5.2069620837258412E-010
   6.5000000000000058E-003    -3.9087880154831112E-010
   7.6000000000000234E-003    -3.2816396822177296E-010
   8.7000000000000133E-003    -4.5257936287512734E-010
   9.8000000000000032E-003    -6.1731386669094945E-010
   1.0900000000000021E-002    -6.0789545619499563E-010
   1.2000000000000011E-002    -4.6214354565421445E-010
   1.3100000000000001E-002    -4.5112111268785782E-010
   1.4200000000000018E-002    -7.4737371846822498E-010
   1.5300000000000008E-002    -1.1779074382545218E-009
   1.6400000000000026E-002    -1.4669470083106262E-009
   1.7500000000000016E-002    -1.5431221855877197E-009
   1.8600000000000005E-002    -1.5458355706599036E-009
   1.9700000000000023E-002    -1.5630409189171246E-009
   2.0800000000000013E-002    -1.6158723248338447E-009
   2.1900000000000003E-002    -1.6406181968520173E-009
   2.3000000000000020E-002    -1.7178313216348329E-009
   2.4100000000000010E-002    -1.8816230795692945E-009
   2.5200000000000000E-002    -2.1257948734643151E-009
   2.6300000000000018E-002    -2.3111563773881016E-009
   2.7400000000000008E-002    -2.5396587055581676E-009
   2.8500000000000025E-002    -2.8784721273211744E-009
   2.9600000000000015E-002    -3.2555311779702834E-009
   3.0700000000000005E-002    -3.4579359375896956E-009
   3.1800000000000023E-002    -3.3012139688537445E-009
   3.2900000000000013E-002    -3.0459235134117080E-009
   3.4000000000000002E-002    -2.9665450096416635E-009
   3.5100000000000020E-002    -3.0847522314303433E-009
   3.6200000000000010E-002    -3.0647453463927832E-009
   3.7300000000000028E-002    -2.6402631192468107E-009
   3.8400000000000017E-002    -2.4390123254391938E-009
   3.9500000000000007E-002    -2.8145192842998767E-009
   4.0600000000000025E-002    -2.9270492696298334E-009
   4.1700000000000015E-002    -2.6304805000876286E-009
   4.2800000000000005E-002    -2.1091217661250994E-009
   4.3900000000000022E-002    -1.7878627467382557E-009
   4.5000000000000012E-002    -1.2814049821230356E-009
   4.6100000000000002E-002    -5.6133236947530918E-010
   4.7200000000000020E-002     4.5543571691730733E-010
   4.8300000000000010E-002     1.1076320971525888E-009
   4.9400000000000027E-002     2.0353867480338295E-009
   5.0500000000000017E-002     2.8446469624299198E-009
   5.1600000000000007E-002     3.9040362054265643E-009
   5.2700000000000025E-002     4.6588199964503474E-009
   5.3800000000000014E-002     5.0871742374170026E-009
   5.4900000000000004E-002     6.0012284031074614E-009
   5.6000000000000022E-002     6.8125207697278256E-009
   5.7100000000000012E-002     7.9874542535662840E-009
   5.8200000000000002E-002     9.1352356790252998E-009
   5.9300000000000019E-002     9.7076906513393624E-009
   6.0400000000000009E-002     1.0278772499816569E-008
   6.1500000000000027E-002     1.1841679636859226E-008
   6.2600000000000017E-002     1.4375696189006248E-008
   6.3700000000000007E-002     1.5214496329463145E-008
   6.4800000000000024E-002     1.4456262853457247E-008
   6.5900000000000014E-002     1.2427766371558846E-008
   6.7000000000000004E-002     1.1615196804370953E-008
   6.8100000000000022E-002     1.3934782217006614E-008
   6.9200000000000012E-002     1.5574052270039829E-008
   7.0300000000000029E-002     1.5553043297700242E-008
   7.1400000000000019E-002     1.4637430822972419E-008
   7.2500000000000009E-002     1.2690400730264173E-008
   7.3600000000000027E-002     1.0573801390023618E-008
   7.4700000000000016E-002     8.9012397452847836E-009
   7.5800000000000006E-002     9.3871959094826707E-009
   7.6900000000000024E-002     1.0630985869397591E-008
   7.8000000000000014E-002     9.8672954251810552E-009
   7.9100000000000004E-002     5.3463788951546576E-009
   8.0200000000000021E-002    -1.0274772144214239E-009
   8.1300000000000011E-002    -4.0824383873427905E-009
   8.2400000000000029E-002    -2.0089292451785923E-009
   8.3500000000000019E-002     3.8940767277395594E-010
   8.4600000000000009E-002    -1.9233117320993642E-009
   8.5700000000000026E-002    -7.8107547096806229E-009
   8.6800000000000016E-002    -1.3469743542771084E-008
   8.7900000000000006E-002    -1.5570195799341491E-008
   8.9000000000000024E-002    -1.4663336322939813E-008
   9.0100000000000013E-002    -1.2602941801276302E-008
   9.1200000000000003E-002    -1.2355473089087354E-008
   9.2300000000000021E-002    -1.5548510035046093E-008
   9.3400000000000011E-002    -2.1582902576255947E-008
   9.4500000000000028E-002    -2.6388548235445342E-008
   9.5600000000000018E-002    -2.5096708711203064E-008
   9.6700000000000008E-002    -1.8133555101940146E-008
   9.7800000000000026E-002    -1.3122090081196802E-008
   9.8900000000000016E-002    -1.5119299590082846E-008
  0.10000000000000001         -2.2845362934731384E-008
  0.10110000000000002         -2.9308987237186557E-008
  0.10220000000000001         -2.5056296593106708E-008
  0.10330000000000003         -1.3832565315397005E-008
  0.10440000000000002         -6.1034119980263313E-009
  0.10550000000000001         -9.2229646142527599E-009
  0.10660000000000003         -1.6929462276493723E-008
  0.10770000000000002         -2.0426551117225245E-008
  0.10880000000000001         -1.5992506874340506E-008
  0.10990000000000003         -4.8701469523848573E-009
  0.11100000000000002          4.8883816994305107E-009
  0.11210000000000001          6.8363097405210738E-009
  0.11320000000000002          2.0038259940236003E-009
  0.11430000000000001         -5.1985908910978651E-009
  0.11540000000000003         -8.4220159735082234E-009
  0.11650000000000002         -1.5310211987085154E-009
  0.11760000000000001          1.2036633911804984E-008
  0.11870000000000003          1.9359784886319176E-008
  0.11980000000000002          1.4408501947116292E-008
  0.12090000000000001          4.6149453147847908E-009
  0.12200000000000003          4.9061443796460935E-010
  0.12310000000000001          9.4337195832849829E-009
  0.12420000000000003          2.1516633808005281E-008
  0.12530000000000002          2.4142737586885232E-008
  0.12640000000000001          1.6019141568790474E-008
  0.12750000000000003          6.3539395966927259E-009
  0.12860000000000002          1.8724690686866552E-009
  0.12970000000000001          4.8821435782997469E-009
  0.13080000000000003          1.1429301949306137E-008
  0.13190000000000002          1.7854901557257108E-008
  0.13300000000000001          2.0184888427365877E-008
  0.13410000000000000          1.4536355230632125E-008
  0.13520000000000004          3.1979523473779636E-009
  0.13630000000000003         -3.8809297997488557E-009
  0.13740000000000002          7.1976286042385595E-010
  0.13850000000000001          1.2285221728802753E-008
  0.13960000000000000          1.7171615240840765E-008
  0.14070000000000005          8.5805309524289441E-009
  0.14180000000000004         -5.2738315936551317E-009
  0.14290000000000003         -1.0300888142467102E-008
  0.14400000000000002         -3.4775335944203789E-009
  0.14510000000000001          5.7237463657600074E-009
  0.14620000000000000          8.6507547791825345E-009
  0.14730000000000004          5.6532951653309738E-009
  0.14840000000000003          9.7385988162557169E-010
  0.14950000000000002         -3.8435343796550114E-009
  0.15060000000000001         -8.8208960136171299E-009
  0.15170000000000000         -9.9566097588876801E-009
  0.15280000000000005         -3.1676945511094345E-009
  0.15390000000000004          6.4311738157130094E-009
  0.15500000000000003          6.9267716007459512E-009
  0.15610000000000002         -5.0617381397444206E-009
  0.15720000000000001         -1.6706316330328264E-008
  0.15830000000000000         -1.3989855496276959E-008
  0.15940000000000004          1.8295324144546043E-009
  0.16050000000000003          1.4113969548645855E-008
  0.16160000000000002          1.0478713896588943E-008
  0.16270000000000001         -3.4528211401152475E-009
  0.16380000000000000         -1.3185386116276732E-008
  0.16490000000000005         -1.3048302882623375E-008
  0.16600000000000004         -7.4671984151564175E-009
  0.16710000000000003         -1.3160188494509839E-009
  0.16820000000000002          4.8493351556544440E-009
  0.16930000000000001          8.5503177871260050E-009
  0.17040000000000000          3.9710643662260736E-009
  0.17150000000000004         -7.7912396534429718E-009
  0.17260000000000003         -1.4223408228986045E-008
  0.17370000000000002         -4.9971675686322214E-009
  0.17480000000000001          1.1856962522927006E-008
  0.17590000000000000          1.6098418598176067E-008
  0.17700000000000005          7.3426636992834915E-010
  0.17810000000000004         -1.7117994133286629E-008
  0.17920000000000003         -1.7049535117052983E-008
  0.18030000000000002         -3.7956734977306894E-010
  0.18140000000000001          1.2811496752362928E-008
  0.18250000000000000          1.0101462777356573E-008
  0.18360000000000004         -2.8859520329049815E-010
  0.18470000000000003         -4.7568748939852412E-009
  0.18580000000000002         -3.4248743840947782E-009
  0.18690000000000001         -3.3445122227249158E-009
  0.18800000000000000         -4.1804524286703781E-009
  0.18910000000000005          7.0722733225281331E-010
  0.19020000000000004          9.4985104226452677E-009
  0.19130000000000003          9.2043555000032029E-009
  0.19240000000000002         -3.4633684808937915E-009
  0.19350000000000001         -1.4399032188805450E-008
  0.19460000000000005         -8.6332292426050117E-009
  0.19570000000000004          6.8858225787948868E-009
  0.19680000000000003          1.2023297024654767E-008
  0.19790000000000002          7.0086503267674516E-010
  0.19900000000000001         -1.1042005532146959E-008
  0.20010000000000000         -7.4355885892884999E-009
  0.20120000000000005          4.2387329202142610E-009
  0.20230000000000004          6.1319216371202856E-009
  0.20340000000000003         -2.2702761892645640E-009
  0.20450000000000002         -5.2410404904890129E-009
  0.20560000000000000          3.3757430184522264E-009
  0.20670000000000005          9.2527931982999689E-009
  0.20780000000000004          5.7899340703826407E-012
  0.20890000000000003         -1.3643458807166553E-008
