 -0.12000000000000000          0.0000000000000000
 -0.11889999999999999          0.0000000000000000
 -0.11780000000000000          0.0000000000000000
 -0.11670000000000000          0.0000000000000000
 -0.11559999999999999          0.0000000000000000
 -0.11449999999999999          0.0000000000000000
 -0.11340000000000000          0.0000000000000000
 -0.11230000000000000          0.0000000000000000
 -0.11119999999999999          0.0000000000000000
 -0.11009999999999999          2.4000256848789750E-024
 -0.10900000000000000         -1.3332591801681876E-023
 -0.10790000000000000         -2.2150792966882623E-023
 -0.10679999999999999          2.2310099640159662E-022
 -0.10569999999999999          1.7721220023842135E-022
 -0.10460000000000000         -2.1391645927606390E-021
 -0.10349999999999999         -2.0389654748198345E-021
 -0.10239999999999999          1.4471804313189383E-020
 -0.10130000000000000          2.1805792803650530E-020
 -0.10020000000000000         -6.8965382240390272E-020
  -9.9099999999999994E-002    -1.7179189399412743E-019
  -9.7999999999999990E-002     1.9025084295355452E-019
  -9.6899999999999986E-002     9.6671564213306653E-019
  -9.5799999999999996E-002     1.4037733208816512E-019
  -9.4699999999999993E-002    -3.7453381560196506E-018
  -9.3599999999999989E-002    -4.5490789515547631E-018
  -9.2499999999999999E-002     8.3685606145999918E-018
  -9.1399999999999995E-002     2.4897785713266411E-017
  -9.0299999999999991E-002     2.0418012502924709E-018
  -8.9200000000000002E-002    -7.3402253935057063E-017
  -8.8099999999999984E-002    -9.4268817946438146E-017
  -8.6999999999999994E-002     8.6430758864351076E-017
  -8.5899999999999990E-002     3.5334524672172934E-016
  -8.4799999999999986E-002     2.3068878790999826E-016
  -8.3699999999999997E-002    -5.3541736101420535E-016
  -8.2599999999999993E-002    -1.2087287212260954E-015
  -8.1499999999999989E-002    -4.7744812017001554E-016
  -8.0399999999999999E-002     1.7436682497789309E-015
  -7.9299999999999995E-002     3.3463726412010907E-015
  -7.8199999999999992E-002     1.8757042749925233E-015
  -7.7100000000000002E-002    -2.7436623241757939E-015
  -7.5999999999999984E-002    -8.1821231241079387E-015
  -7.4899999999999994E-002    -1.1101894821204453E-014
  -7.3799999999999991E-002    -5.6434853365732850E-015
  -7.2699999999999987E-002     1.6435278431172623E-014
  -7.1599999999999997E-002     5.1355936240811764E-014
  -7.0499999999999993E-002     6.1798886862897418E-014
  -6.9399999999999989E-002    -9.1977622146779438E-015
  -6.8300000000000000E-002    -1.6187127593186856E-013
  -6.7199999999999996E-002    -2.6758939031604201E-013
  -6.6099999999999992E-002    -1.3148089930171969E-013
  -6.5000000000000002E-002     2.9113178339444656E-013
  -6.3899999999999985E-002     7.3013508216854262E-013
  -6.2799999999999995E-002     7.3568316152558544E-013
  -6.1699999999999991E-002     6.6426370155282799E-014
  -6.0599999999999994E-002    -1.0373298357443939E-012
  -5.9499999999999990E-002    -1.9627713083308906E-012
  -5.8399999999999994E-002    -2.0493372623886508E-012
  -5.7299999999999990E-002    -8.2077964216886734E-013
  -5.6199999999999986E-002     1.8077358186763259E-012
  -5.5099999999999996E-002     5.0855968741769786E-012
  -5.3999999999999992E-002     7.0806828282587997E-012
  -5.2899999999999989E-002     5.3764414795209881E-012
  -5.1799999999999985E-002    -1.0103218175266937E-012
  -5.0699999999999995E-002    -1.0081620434310157E-011
  -4.9599999999999991E-002    -1.7582166625396134E-011
  -4.8499999999999988E-002    -1.9545535329124064E-011
  -4.7399999999999998E-002    -1.3909904478248691E-011
  -4.6299999999999994E-002     1.6938127333013253E-013
  -4.5199999999999990E-002     2.2812160146989946E-011
  -4.4099999999999986E-002     5.0620632685571820E-011
  -4.2999999999999997E-002     7.2552991392527133E-011
  -4.1899999999999993E-002     7.0975551824670191E-011
  -4.0799999999999989E-002     3.0996798877636067E-011
  -3.9699999999999985E-002    -4.7768254629598772E-011
  -3.8599999999999995E-002    -1.4639939260874257E-010
  -3.7499999999999992E-002    -2.3152862960174048E-010
  -3.6399999999999988E-002    -2.6450719392556721E-010
  -3.5299999999999984E-002    -2.1055454602070256E-010
  -3.4199999999999994E-002    -4.9907699500861824E-011
  -3.3099999999999991E-002     2.0773760489589677E-010
  -3.1999999999999987E-002     5.1289417157818207E-010
  -3.0899999999999997E-002     7.8018130844625944E-010
  -2.9799999999999993E-002     9.0634544314127652E-010
  -2.8699999999999989E-002     7.9278250630920866E-010
  -2.7599999999999986E-002     3.6855751783804180E-010
  -2.6499999999999996E-002    -3.7981456868507735E-010
  -2.5399999999999992E-002    -1.3729913872495558E-009
  -2.4299999999999988E-002    -2.4199202641739248E-009
  -2.3199999999999985E-002    -3.2392775128897711E-009
  -2.2099999999999995E-002    -3.5146872079394598E-009
  -2.0999999999999991E-002    -2.9500282217043150E-009
  -1.9899999999999987E-002    -1.3049268332565589E-009
  -1.8799999999999983E-002     1.5754826332425864E-009
  -1.7699999999999994E-002     5.7239422091015513E-009
  -1.6599999999999990E-002     1.1035672820014497E-008
  -1.5499999999999986E-002     1.7315786138283329E-008
  -1.4399999999999996E-002     2.4378259411150793E-008
  -1.3299999999999992E-002     3.2129641169831302E-008
  -1.2199999999999989E-002     4.0597853967483388E-008
  -1.1099999999999985E-002     4.9950298119938452E-008
  -9.9999999999999950E-003     6.0562648229733895E-008
  -8.8999999999999913E-003     7.3109838183427200E-008
  -7.7999999999999875E-003     8.8576179280153156E-008
  -6.6999999999999837E-003     1.0814428463845616E-007
  -5.5999999999999939E-003     1.3305671586749668E-007
  -4.4999999999999901E-003     1.6457221363452845E-007
  -3.3999999999999864E-003     2.0402008260589355E-007
  -2.2999999999999826E-003     2.5285578431066824E-007
  -1.1999999999999927E-003     3.1267202871276822E-007
  -9.9999999999988987E-005     3.8522267686857958E-007
   1.0000000000000148E-003     4.7251847945517511E-007
   2.1000000000000185E-003     5.7696473731994047E-007
   3.2000000000000084E-003     7.0149707198652322E-007
   4.3000000000000121E-003     8.4973527236797963E-007
   5.4000000000000159E-003     1.0261709348924342E-006
   6.5000000000000058E-003     1.2362655752440332E-006
   7.6000000000000234E-003     1.4863167052681092E-006
   8.7000000000000133E-003     1.7831708873927710E-006
   9.8000000000000032E-003     2.1341154479159741E-006
   1.0900000000000021E-002     2.5471533717791317E-006
   1.2000000000000011E-002     3.0314045034174342E-006
   1.3100000000000001E-002     3.5971936540590832E-006
   1.4200000000000018E-002     4.2558103814371862E-006
   1.5300000000000008E-002     5.0194134928460699E-006
   1.6400000000000026E-002     5.9014250837208237E-006
   1.7500000000000016E-002     6.9171337599982508E-006
   1.8600000000000005E-002     8.0838044596021064E-006
   1.9700000000000023E-002     9.4202114269137383E-006
   2.0800000000000013E-002     1.0946048860205337E-005
   2.1900000000000003E-002     1.2681769476330373E-005
   2.3000000000000020E-002     1.4648740943812300E-005
   2.4100000000000010E-002     1.6869287719600834E-005
   2.5200000000000000E-002     1.9366463675396517E-005
   2.6300000000000018E-002     2.2163938410812989E-005
   2.7400000000000008E-002     2.5285609808634035E-005
   2.8500000000000025E-002     2.8755237508448772E-005
   2.9600000000000015E-002     3.2595944503555074E-005
   3.0700000000000005E-002     3.6829951568506658E-005
   3.1800000000000023E-002     4.1478586354060099E-005
   3.2900000000000013E-002     4.6561694034608081E-005
   3.4000000000000002E-002     5.2095783757977188E-005
   3.5100000000000020E-002     5.8092322433367372E-005
   3.6200000000000010E-002     6.4557403675280511E-005
   3.7300000000000028E-002     7.1492198912892491E-005
   3.8400000000000017E-002     7.8893128375057131E-005
   3.9500000000000007E-002     8.6749758338555694E-005
   4.0600000000000025E-002     9.5042385510168970E-005
   4.1700000000000015E-002     1.0374061093898490E-004
   4.2800000000000005E-002     1.1280381295364350E-004
   4.3900000000000022E-002     1.2218221672810614E-004
   4.5000000000000012E-002     1.3181565736886114E-004
   4.6100000000000002E-002     1.4163200103212148E-004
   4.7200000000000020E-002     1.5154531865846366E-004
   4.8300000000000010E-002     1.6145424160640687E-004
   4.9400000000000027E-002     1.7124334408435971E-004
   5.0500000000000017E-002     1.8078564608003944E-004
   5.1600000000000007E-002     1.8994383572135121E-004
   5.2700000000000025E-002     1.9856829021591693E-004
   5.3800000000000014E-002     2.0649858925025910E-004
   5.4900000000000004E-002     2.1356093930080533E-004
   5.6000000000000022E-002     2.1957053104415536E-004
   5.7100000000000012E-002     2.2433834965340793E-004
   5.8200000000000002E-002     2.2767674818169326E-004
   5.9300000000000019E-002     2.2939892369322479E-004
   6.0400000000000009E-002     2.2931776766199619E-004
   6.1500000000000027E-002     2.2724582231603563E-004
   6.2600000000000017E-002     2.2300130513031036E-004
   6.3700000000000007E-002     2.1641966304741800E-004
   6.4800000000000024E-002     2.0735734142363071E-004
   6.5900000000000014E-002     1.9569111464079469E-004
   6.7000000000000004E-002     1.8132117111235857E-004
   6.8100000000000022E-002     1.6416875587310642E-004
   6.9200000000000012E-002     1.4418372302316129E-004
   7.0300000000000029E-002     1.2135665747337043E-004
   7.1400000000000019E-002     9.5720373792573810E-005
   7.2500000000000009E-002     6.7349072196520865E-005
   7.3600000000000027E-002     3.6358214856591076E-005
   7.4700000000000016E-002     2.9005195756326430E-006
   7.5800000000000006E-002    -3.2827192626427859E-005
   7.6900000000000024E-002    -7.0583853812422603E-005
   7.8000000000000014E-002    -1.1008354340447113E-004
   7.9100000000000004E-002    -1.5099401935003698E-004
   8.0200000000000021E-002    -1.9294055528007448E-004
   8.1300000000000011E-002    -2.3551801859866828E-004
   8.2400000000000029E-002    -2.7830229373648763E-004
   8.3500000000000019E-002    -3.2084534177556634E-004
   8.4600000000000009E-002    -3.6266719689592719E-004
   8.5700000000000026E-002    -4.0326657472178340E-004
   8.6800000000000016E-002    -4.4213997898623347E-004
   8.7900000000000006E-002    -4.7879811609163880E-004
   8.9000000000000024E-002    -5.1276985323056579E-004
   9.0100000000000013E-002    -5.4359470959752798E-004
   9.1200000000000003E-002    -5.7082774583250284E-004
   9.2300000000000021E-002    -5.9405370848253369E-004
   9.3400000000000011E-002    -6.1290408484637737E-004
   9.4500000000000028E-002    -6.2706507742404938E-004
   9.5600000000000018E-002    -6.3627964118495584E-004
   9.6700000000000008E-002    -6.4035010291263461E-004
   9.7800000000000026E-002    -6.3913775375112891E-004
   9.8900000000000016E-002    -6.3256575958803296E-004
  0.10000000000000001         -6.2062242068350315E-004
  0.10110000000000002         -6.0337246395647526E-004
  0.10220000000000001         -5.8096152497455478E-004
  0.10330000000000003         -5.5361149134114385E-004
  0.10440000000000002         -5.2159879123792052E-004
  0.10550000000000001         -4.8524723388254642E-004
  0.10660000000000003         -4.4493173481896520E-004
  0.10770000000000002         -4.0109668043442070E-004
  0.10880000000000001         -3.5424449015408754E-004
  0.10990000000000003         -3.0491064535453916E-004
  0.11100000000000002         -2.5364352040924132E-004
  0.11210000000000001         -2.0099701941944659E-004
  0.11320000000000002         -1.4754229050595313E-004
  0.11430000000000001         -9.3865688540972769E-005
  0.11540000000000003         -4.0548275137552992E-005
  0.11650000000000002          1.1849501788674388E-005
  0.11760000000000001          6.2794926634524018E-005
  0.11870000000000003          1.1178954446222633E-004
  0.11980000000000002          1.5837863611523062E-004
  0.12090000000000001          2.0215395488776267E-004
  0.12200000000000003          2.4275190662592649E-004
  0.12310000000000001          2.7984532061964273E-004
  0.12420000000000003          3.1316574313677847E-004
  0.12530000000000002          3.4251963370479643E-004
  0.12640000000000001          3.6778519279323518E-004
  0.12750000000000003          3.8889449206180871E-004
  0.12860000000000002          4.0581001667305827E-004
  0.12970000000000001          4.1854387382045388E-004
  0.13080000000000003          4.2717737960629165E-004
  0.13190000000000002          4.3185753747820854E-004
  0.13300000000000001          4.3276528595015407E-004
  0.13410000000000000          4.3010475928895175E-004
  0.13520000000000004          4.2410907917656004E-004
  0.13630000000000003          4.1505447006784379E-004
  0.13740000000000002          4.0324227302335203E-004
  0.13850000000000001          3.8897775812074542E-004
  0.13960000000000000          3.7257047370076180E-004
  0.14070000000000005          3.5434254095889628E-004
  0.14180000000000004          3.3462647115811706E-004
  0.14290000000000003          3.1374415266327560E-004
  0.14400000000000002          2.9199381242506206E-004
  0.14510000000000001          2.6965886354446411E-004
  0.14620000000000000          2.4702050723135471E-004
  0.14730000000000004          2.2434903075918555E-004
  0.14840000000000003          2.0188296912238002E-004
  0.14950000000000002          1.7982487042900175E-004
  0.15060000000000001          1.5835672093089670E-004
  0.15170000000000000          1.3764965115115047E-004
  0.15280000000000005          1.1785310925915837E-004
  0.15390000000000004          9.9078417406417429E-005
  0.15500000000000003          8.1402744399383664E-005
  0.15610000000000002          6.4889958593994379E-005
  0.15720000000000001          4.9598540499573573E-005
  0.15830000000000000          3.5564902646001428E-005
  0.15940000000000004          2.2791489755036309E-005
  0.16050000000000003          1.1255380741204135E-005
  0.16160000000000002          9.2952444674665458E-007
  0.16270000000000001         -8.2094229583162814E-006
  0.16380000000000000         -1.6198460798477754E-005
  0.16490000000000005         -2.3096981749404222E-005
  0.16600000000000004         -2.8978120099054649E-005
  0.16710000000000003         -3.3908039767993614E-005
  0.16820000000000002         -3.7948473618598655E-005
  0.16930000000000001         -4.1170798795064911E-005
  0.17040000000000000         -4.3656949856085703E-005
  0.17150000000000004         -4.5485463488148525E-005
  0.17260000000000003         -4.6720524551346898E-005
  0.17370000000000002         -4.7421093768207356E-005
  0.17480000000000001         -4.7657595132477582E-005
  0.17590000000000000         -4.7507008275715634E-005
  0.17700000000000005         -4.7032386646606028E-005
  0.17810000000000004         -4.6276822104118764E-005
  0.17920000000000003         -4.5280467020347714E-005
  0.18030000000000002         -4.4095311750425026E-005
  0.18140000000000001         -4.2777046473929659E-005
  0.18250000000000000         -4.1364142816746607E-005
  0.18360000000000004         -3.9877177187008783E-005
  0.18470000000000003         -3.8338232116075233E-005
  0.18580000000000002         -3.6781169910682365E-005
  0.18690000000000001         -3.5237520933151245E-005
  0.18800000000000000         -3.3719090424710885E-005
  0.18910000000000005         -3.2226875191554427E-005
  0.19020000000000004         -3.0771498131798580E-005
  0.19130000000000003         -2.9375310987234116E-005
  0.19240000000000002         -2.8052600100636482E-005
  0.19350000000000001         -2.6798397811944596E-005
  0.19460000000000005         -2.5602490495657548E-005
  0.19570000000000004         -2.4467797629768029E-005
  0.19680000000000003         -2.3406404579873197E-005
  0.19790000000000002         -2.2419893866754137E-005
  0.19900000000000001         -2.1494868633453734E-005
  0.20010000000000000         -2.0620256691472605E-005
  0.20120000000000005         -1.9799110305029899E-005
  0.20230000000000004         -1.9037161109736189E-005
  0.20340000000000003         -1.8325565179111436E-005
  0.20450000000000002         -1.7644984836806543E-005
  0.20560000000000000         -1.6986361515591852E-005
  0.20670000000000005         -1.6357102140318602E-005
  0.20780000000000004         -1.5762634575366974E-005
  0.20890000000000003         -1.5191537386272103E-005
