 -0.12000000000000000          0.0000000000000000
 -0.11889999999999999          0.0000000000000000
 -0.11780000000000000          0.0000000000000000
 -0.11670000000000000          1.2546763107634806E-011
 -0.11559999999999999          1.3697698357517663E-011
 -0.11449999999999999         -3.8519899075994957E-011
 -0.11340000000000000         -6.0436954052445202E-011
 -0.11230000000000000          8.1728179779361199E-011
 -0.11119999999999999          2.1664790794684308E-010
 -0.11009999999999999         -3.4040690405356955E-011
 -0.10900000000000000         -4.8208015357431577E-010
 -0.10790000000000000         -2.7206722985617660E-010
 -0.10679999999999999          7.1667310974632414E-010
 -0.10569999999999999          1.0246069548358605E-009
 -0.10460000000000000         -4.2161343860591671E-010
 -0.10349999999999999         -1.8818462343972442E-009
 -0.10239999999999999         -6.0493321463184202E-010
 -0.10130000000000000          2.4258612896232989E-009
 -0.10020000000000000          2.5024629035641510E-009
  -9.9099999999999994E-002    -1.8537335000345934E-009
  -9.7999999999999990E-002    -4.8300932142808506E-009
  -9.6899999999999986E-002    -6.5601896137579274E-010
  -9.5799999999999996E-002     6.4043943481806309E-009
  -9.4699999999999993E-002     5.8165947613986191E-009
  -9.3599999999999989E-002    -3.7803440378070263E-009
  -9.2499999999999999E-002    -9.8755315036669344E-009
  -9.1399999999999995E-002    -2.5647028945030570E-009
  -9.0299999999999991E-002     9.5434797842131047E-009
  -8.9200000000000002E-002     9.3254133304299103E-009
  -8.8099999999999984E-002    -4.2170462677404430E-009
  -8.6999999999999994E-002    -1.2694482798281115E-008
  -8.5899999999999990E-002    -3.9122340922403964E-009
  -8.4799999999999986E-002     9.9854418067479855E-009
  -8.3699999999999997E-002     9.7388701547629353E-009
  -8.2599999999999993E-002    -2.9503901544103428E-009
  -8.1499999999999989E-002    -8.7991507413676118E-009
  -8.0399999999999999E-002    -8.1159418074960854E-010
  -7.9299999999999995E-002     5.8461555596522885E-009
  -7.8199999999999992E-002    -3.1191463301105671E-010
  -7.7100000000000002E-002    -7.3376931197799422E-009
  -7.5999999999999984E-002     2.8366105037785916E-012
  -7.4899999999999994E-002     1.1607218297626787E-008
  -7.3799999999999991E-002     4.7743400344302245E-009
  -7.2699999999999987E-002    -1.6707861760778542E-008
  -7.1599999999999997E-002    -2.0920534637980381E-008
  -7.0499999999999993E-002     5.0186637068350137E-009
  -6.9399999999999989E-002     2.8315570332893003E-008
  -6.8300000000000000E-002     1.2550128047905673E-008
  -6.7199999999999996E-002    -2.6888706372574234E-008
  -6.6099999999999992E-002    -3.8676759572808805E-008
  -6.5000000000000002E-002    -6.8525514151929201E-009
  -6.3899999999999985E-002     2.4599065895358763E-008
  -6.2799999999999995E-002     1.2650215985843261E-008
  -6.1699999999999991E-002    -2.5250450619296316E-008
  -6.0599999999999994E-002    -3.9294569376124855E-008
  -5.9499999999999990E-002    -1.9405904438940524E-008
  -5.8399999999999994E-002    -3.7870235836123811E-009
  -5.7299999999999990E-002    -1.5911130191170741E-008
  -5.6199999999999986E-002    -3.1361114594119499E-008
  -5.5099999999999996E-002    -2.4938632492421675E-008
  -5.3999999999999992E-002    -1.7677541208627190E-008
  -5.2899999999999989E-002    -4.2282618295530483E-008
  -5.1799999999999985E-002    -8.0365538224214106E-008
  -5.0699999999999995E-002    -7.9866367741487920E-008
  -4.9599999999999991E-002    -3.7840230504571082E-008
  -4.8499999999999988E-002    -1.9377093707362292E-008
  -4.7399999999999998E-002    -6.9028722293751343E-008
  -4.6299999999999994E-002    -1.3938715426320414E-007
  -4.5199999999999990E-002    -1.5008411935468757E-007
  -4.4099999999999986E-002    -1.0029207686557129E-007
  -4.2999999999999997E-002    -7.1736103279818053E-008
  -4.1899999999999993E-002    -1.1478246619844867E-007
  -4.0799999999999989E-002    -1.8233737364425906E-007
  -3.9699999999999985E-002    -2.0370633535549132E-007
  -3.8599999999999995E-002    -1.8459425632499915E-007
  -3.7499999999999992E-002    -1.8552513836311846E-007
  -3.6399999999999988E-002    -2.2224149631711043E-007
  -3.5299999999999984E-002    -2.4790568886601250E-007
  -3.4199999999999994E-002    -2.3907480795060110E-007
  -3.3099999999999991E-002    -2.4096894435388094E-007
  -3.1999999999999987E-002    -2.9336445095395902E-007
  -3.0899999999999997E-002    -3.5258170782981324E-007
  -2.9799999999999993E-002    -3.4727531783573795E-007
  -2.8699999999999989E-002    -2.9054322681076883E-007
  -2.7599999999999986E-002    -2.7493877041706583E-007
  -2.6499999999999996E-002    -3.4145264748985937E-007
  -2.5399999999999992E-002    -4.1493720459584438E-007
  -2.4299999999999988E-002    -4.0615938701193954E-007
  -2.3199999999999985E-002    -3.3637238061601238E-007
  -2.2099999999999995E-002    -3.0260682137850381E-007
  -2.0999999999999991E-002    -3.3659821951914637E-007
  -1.9899999999999987E-002    -3.6680924608845089E-007
  -1.8799999999999983E-002    -3.3443453162362857E-007
  -1.7699999999999994E-002    -2.7638193955681345E-007
  -1.6599999999999990E-002    -2.5651112878222193E-007
  -1.5499999999999986E-002    -2.5962162908399478E-007
  -1.4399999999999996E-002    -2.1570804165094160E-007
  -1.3299999999999992E-002    -1.2210284694447182E-007
  -1.2199999999999989E-002    -5.4670756810537569E-008
  -1.1099999999999985E-002    -5.2412723050565546E-008
  -9.9999999999999950E-003    -4.6704943912345698E-008
  -8.8999999999999913E-003     4.1756344160148728E-008
  -7.7999999999999875E-003     1.8329646422898804E-007
  -6.6999999999999837E-003     2.7517052103576134E-007
  -5.5999999999999939E-003     2.9172196036597597E-007
  -4.4999999999999901E-003     3.1712647796666715E-007
  -3.3999999999999864E-003     4.1654709548311075E-007
  -2.2999999999999826E-003     5.4539634675165871E-007
  -1.1999999999999927E-003     6.2660512867296347E-007
  -9.9999999999988987E-005     6.5844858454511268E-007
   1.0000000000000148E-003     7.1370885734722833E-007
   2.1000000000000185E-003     8.1498302506588516E-007
   3.2000000000000084E-003     8.9741365627560299E-007
   4.3000000000000121E-003     9.1711171990027651E-007
   5.4000000000000159E-003     9.2370959237086936E-007
   6.5000000000000058E-003     9.8223256372875767E-007
   7.6000000000000234E-003     1.0663045486580813E-006
   8.7000000000000133E-003     1.0916803603322478E-006
   9.8000000000000032E-003     1.0425276286696317E-006
   1.0900000000000021E-002     9.9760234206769383E-007
   1.2000000000000011E-002     1.0097877520820475E-006
   1.3100000000000001E-002     1.0349393733122270E-006
   1.4200000000000018E-002     9.9535327535704710E-007
   1.5300000000000008E-002     8.9584386842034291E-007
   1.6400000000000026E-002     8.1059499734692508E-007
   1.7500000000000016E-002     7.6918092872801935E-007
   1.8600000000000005E-002     7.1764947051633499E-007
   1.9700000000000023E-002     6.0907194665560382E-007
   2.0800000000000013E-002     4.7730259211675730E-007
   2.1900000000000003E-002     3.8096516163932392E-007
   2.3000000000000020E-002     3.1035961001180112E-007
   2.4100000000000010E-002     2.0540565515148046E-007
   2.5200000000000000E-002     5.5450428249059769E-008
   2.6300000000000018E-002    -8.0532267077160213E-008
   2.7400000000000008E-002    -1.6224416299337463E-007
   2.8500000000000025E-002    -2.3035011054162169E-007
   2.9600000000000015E-002    -3.4097885759365454E-007
   3.0700000000000005E-002    -4.7801273694858537E-007
   3.1800000000000023E-002    -5.7889889149009832E-007
   3.2900000000000013E-002    -6.2321578297996894E-007
   3.4000000000000002E-002    -6.6092513861804036E-007
   3.5100000000000020E-002    -7.3490343766025035E-007
   3.6200000000000010E-002    -8.1437883636681363E-007
   3.7300000000000028E-002    -8.5319726395027828E-007
   3.8400000000000017E-002    -8.5519195636152290E-007
   3.9500000000000007E-002    -8.5874631849947036E-007
   4.0600000000000025E-002    -8.7397404513467336E-007
   4.1700000000000015E-002    -8.6782375774419052E-007
   4.2800000000000005E-002    -8.2866296224892722E-007
   4.3900000000000022E-002    -7.9138715136650717E-007
   4.5000000000000012E-002    -7.7299199574554223E-007
   4.6100000000000002E-002    -7.4751500278580352E-007
   4.7200000000000020E-002    -6.8399543806663132E-007
   4.8300000000000010E-002    -5.9477775948835188E-007
   4.9400000000000027E-002    -5.2437763997659204E-007
   5.0500000000000017E-002    -4.8557899390289094E-007
   5.1600000000000007E-002    -4.3979838437735452E-007
   5.2700000000000025E-002    -3.6228209410182899E-007
   5.3800000000000014E-002    -2.7332779950484110E-007
   5.4900000000000004E-002    -1.9959796304647170E-007
   5.6000000000000022E-002    -1.4082030475037755E-007
   5.7100000000000012E-002    -8.1549600849939452E-008
   5.8200000000000002E-002    -2.3829006323694557E-008
   5.9300000000000019E-002     1.7251153394681751E-008
   6.0400000000000009E-002     4.8784201567286800E-008
   6.1500000000000027E-002     9.6168612628844130E-008
   6.2600000000000017E-002     1.5827436072868295E-007
   6.3700000000000007E-002     1.9983690435765311E-007
   6.4800000000000024E-002     2.0571644654410193E-007
   6.5900000000000014E-002     2.0156561220119329E-007
   6.7000000000000004E-002     2.2043657565973263E-007
   6.8100000000000022E-002     2.5215419441337872E-007
   6.9200000000000012E-002     2.6000824959737656E-007
   7.0300000000000029E-002     2.4119236741171335E-007
   7.1400000000000019E-002     2.3037310370455089E-007
   7.2500000000000009E-002     2.4106918772304198E-007
   7.3600000000000027E-002     2.4042938662205415E-007
   7.4700000000000016E-002     2.0429776270702860E-007
   7.5800000000000006E-002     1.6396194268963882E-007
   7.6900000000000024E-002     1.6266966440525721E-007
   7.8000000000000014E-002     1.8534433365857694E-007
   7.9100000000000004E-002     1.7533646712308837E-007
   8.0200000000000021E-002     1.2043194885791308E-007
   8.1300000000000011E-002     7.4202375799359288E-008
   8.2400000000000029E-002     7.4912556158324151E-008
   8.3500000000000019E-002     8.9536356995267852E-008
   8.4600000000000009E-002     6.8146263743074087E-008
   8.5700000000000026E-002     2.4514299923339422E-008
   8.6800000000000016E-002     1.2904386004208845E-008
   8.7900000000000006E-002     3.5912083973244080E-008
   8.9000000000000024E-002     3.3049360581571818E-008
   9.0100000000000013E-002    -2.1641396230620558E-008
   9.1200000000000003E-002    -6.4848421743590734E-008
   9.2300000000000021E-002    -3.6426879290729630E-008
   9.3400000000000011E-002     2.3110676039550526E-008
   9.4500000000000028E-002     2.2807315147588270E-008
   9.5600000000000018E-002    -4.6177717649698025E-008
   9.6700000000000008E-002    -9.2457000278045598E-008
   9.7800000000000026E-002    -5.8029481664334526E-008
   9.8900000000000016E-002    -2.0031749592419601E-009
  0.10000000000000001         -6.4842522462527086E-009
  0.10110000000000002         -5.5201411441885284E-008
  0.10220000000000001         -6.4333491422985389E-008
  0.10330000000000003         -1.9332297540586296E-008
  0.10440000000000002          2.7827833370963617E-009
  0.10550000000000001         -3.8327836904272772E-008
  0.10660000000000003         -7.4654820991781889E-008
  0.10770000000000002         -3.6665511515820981E-008
  0.10880000000000001          3.0250131288767079E-008
  0.10990000000000003          2.6232140015736150E-008
  0.11100000000000002         -4.8758632686940473E-008
  0.11210000000000001         -8.5882177813800809E-008
  0.11320000000000002         -2.7090516496741657E-008
  0.11430000000000001          4.4758749595530389E-008
  0.11540000000000003          2.9040666760238310E-008
  0.11650000000000002         -4.2255820176251291E-008
  0.11760000000000001         -5.5935188925104740E-008
  0.11870000000000003          7.9186763812799654E-009
  0.11980000000000002          4.6994468760885866E-008
  0.12090000000000001         -1.0745898615382998E-009
  0.12200000000000003         -5.9433496346628090E-008
  0.12310000000000001         -3.1389419063998503E-008
  0.12420000000000003          4.6131717112984916E-008
  0.12530000000000002          5.4965969553677496E-008
  0.12640000000000001         -2.1075829081951269E-008
  0.12750000000000003         -6.7699041039759322E-008
  0.12860000000000002         -1.3770827145265230E-008
  0.12970000000000001          5.9672522922937787E-008
  0.13080000000000003          4.3072319044767937E-008
  0.13190000000000002         -3.4166021123382961E-008
  0.13300000000000001         -5.1373646670072048E-008
  0.13410000000000000          1.5530362773574780E-008
  0.13520000000000004          5.7787961083022310E-008
  0.13630000000000003          5.8081743858906520E-009
  0.13740000000000002         -5.9369657634533723E-008
  0.13850000000000001         -3.1338590389395904E-008
  0.13960000000000000          5.3091540053173958E-008
  0.14070000000000005          6.5440055152521381E-008
  0.14180000000000004         -1.7299081278565609E-008
  0.14290000000000003         -7.4145823703020142E-008
  0.14400000000000002         -2.1722417642422442E-008
  0.14510000000000001          6.0047945282803994E-008
  0.14620000000000000          4.9936183188492578E-008
  0.14730000000000004         -3.1864953342619629E-008
  0.14840000000000003         -5.9174443123310994E-008
  0.14950000000000002          5.1629971409283826E-009
  0.15060000000000001          5.6212869026239787E-008
  0.15170000000000000          1.3664051223827300E-008
  0.15280000000000005         -5.2707424202935726E-008
  0.15390000000000004         -3.3978849955929036E-008
  0.15500000000000003          4.4998522241712635E-008
  0.15610000000000002          6.1489465963404655E-008
  0.15720000000000001         -1.4918549950948545E-008
  0.15830000000000000         -7.2156552732849377E-008
  0.15940000000000004         -2.4950576715809802E-008
  0.16050000000000003          5.5663768705471739E-008
  0.16160000000000002          5.0581967059315502E-008
  0.16270000000000001         -2.7846619232718695E-008
  0.16380000000000000         -5.8455434270854312E-008
  0.16490000000000005          2.4478759019785912E-009
  0.16600000000000004          5.8086065735096781E-008
  0.16710000000000003          2.3879387356373627E-008
  0.16820000000000002         -4.3529443161105519E-008
  0.16930000000000001         -3.8069632779524909E-008
  0.17040000000000000          2.9737273976593315E-008
  0.17150000000000004          5.0592984024433463E-008
  0.17260000000000003         -1.1656436704754469E-008
  0.17370000000000002         -6.2455889349166682E-008
  0.17480000000000001         -2.1925197657424178E-008
  0.17590000000000000          5.1682135904229654E-008
  0.17700000000000005          5.0096794268483791E-008
  0.17810000000000004         -2.1346718170889289E-008
  0.17920000000000003         -5.4353439082888144E-008
  0.18030000000000002         -3.1794711308208434E-009
  0.18140000000000001          4.9432582471808928E-008
  0.18250000000000000          2.2468400473485417E-008
  0.18360000000000004         -4.0486316521537447E-008
  0.18470000000000003         -4.2217685347623046E-008
  0.18580000000000002          1.8075343888313000E-008
  0.18690000000000001          4.6572054657190165E-008
  0.18800000000000000          1.1211667150234916E-009
  0.18910000000000005         -4.5650562441323927E-008
  0.19020000000000004         -2.0567306080465642E-008
  0.19130000000000003          3.7857841306276896E-008
  0.19240000000000002          4.0624801300737090E-008
  0.19350000000000001         -1.5204911107957741E-008
  0.19460000000000005         -4.4617920025302737E-008
  0.19570000000000004         -6.0351172948003295E-009
  0.19680000000000003          3.7899209104352849E-008
  0.19790000000000002          1.9729988309791224E-008
  0.19900000000000001         -2.9915607768771224E-008
  0.20010000000000000         -3.2767012214662827E-008
  0.20120000000000005          1.5697631639000065E-008
  0.20230000000000004          4.1372892667368433E-008
  0.20340000000000003          6.6870380344141722E-009
  0.20450000000000002         -3.3199754057022801E-008
  0.20560000000000000         -1.7203124258458047E-008
  0.20670000000000005          2.8768965876224684E-008
  0.20780000000000004          3.3620217720908840E-008
  0.20890000000000003         -1.0316220766526385E-008
