 -0.12000000000000000          0.0000000000000000
 -0.11889999999999999          0.0000000000000000
 -0.11780000000000000          0.0000000000000000
 -0.11670000000000000          1.2546758770826116E-011
 -0.11559999999999999          1.3697683612368117E-011
 -0.11449999999999999         -3.8519888667654101E-011
 -0.11340000000000000         -6.0436967930233010E-011
 -0.11230000000000000          8.1728193657149006E-011
 -0.11119999999999999          2.1664804672472115E-010
 -0.11009999999999999         -3.4040468360752030E-011
 -0.10900000000000000         -4.8208020908546700E-010
 -0.10790000000000000         -2.7206756292308398E-010
 -0.10679999999999999          7.1667299872402168E-010
 -0.10569999999999999          1.0246076209696753E-009
 -0.10460000000000000         -4.2161257818307263E-010
 -0.10349999999999999         -1.8818473446202688E-009
 -0.10239999999999999         -6.0493465792177403E-010
 -0.10130000000000000          2.4258632880247433E-009
 -0.10020000000000000          2.5024660121886200E-009
  -9.9099999999999994E-002    -1.8537337220791983E-009
  -9.7999999999999990E-002    -4.8300967669945294E-009
  -9.6899999999999986E-002    -6.5602079324378337E-010
  -9.5799999999999996E-002     6.4043996772511491E-009
  -9.4699999999999993E-002     5.8165987582015077E-009
  -9.3599999999999989E-002    -3.7803564723049021E-009
  -9.2499999999999999E-002    -9.8755350563806132E-009
  -9.1399999999999995E-002    -2.5646829104886137E-009
  -9.0299999999999991E-002     9.5435011004951775E-009
  -8.9200000000000002E-002     9.3253857968988996E-009
  -8.8099999999999984E-002    -4.2170968939103659E-009
  -8.6999999999999994E-002    -1.2694476581032177E-008
  -8.5899999999999990E-002    -3.9122012296388675E-009
  -8.4799999999999986E-002     9.9854275958932703E-009
  -8.3699999999999997E-002     9.7387804487425456E-009
  -8.2599999999999993E-002    -2.9504261256363407E-009
  -8.1499999999999989E-002    -8.7990708053098388E-009
  -8.0399999999999999E-002    -8.1152157216379806E-010
  -7.9299999999999995E-002     5.8462061858222114E-009
  -7.8199999999999992E-002    -3.1197974759145097E-010
  -7.7100000000000002E-002    -7.3377823817111221E-009
  -7.5999999999999984E-002     2.9109956632689116E-012
  -7.4899999999999994E-002     1.1607259153834093E-008
  -7.3799999999999991E-002     4.7743586861770382E-009
  -7.2699999999999987E-002    -1.6707872418919578E-008
  -7.1599999999999997E-002    -2.0919953769293897E-008
  -7.0499999999999993E-002     5.0179043142861701E-009
  -6.9399999999999989E-002     2.8314914857219264E-008
  -6.8300000000000000E-002     1.2551045536213223E-008
  -6.7199999999999996E-002    -2.6885041748414551E-008
  -6.6099999999999992E-002    -3.8674897950841114E-008
  -6.5000000000000002E-002    -6.8537122643874682E-009
  -6.3899999999999985E-002     2.4596264580623028E-008
  -6.2799999999999995E-002     1.2646625968670833E-008
  -6.1699999999999991E-002    -2.5250697532896993E-008
  -6.0599999999999994E-002    -3.9287165520818235E-008
  -5.9499999999999990E-002    -1.9399402972908319E-008
  -5.8399999999999994E-002    -3.7912353256785991E-009
  -5.7299999999999990E-002    -1.5918859119778972E-008
  -5.6199999999999986E-002    -3.1360826824311516E-008
  -5.5099999999999996E-002    -2.4933889619660476E-008
  -5.3999999999999992E-002    -1.7686332398625382E-008
  -5.2899999999999989E-002    -4.2306755432264254E-008
  -5.1799999999999985E-002    -8.0360294418824196E-008
  -5.0699999999999995E-002    -7.9829845844869851E-008
  -4.9599999999999991E-002    -3.7832123211956059E-008
  -4.8499999999999988E-002    -1.9392411232388440E-008
  -4.7399999999999998E-002    -6.9068349262124684E-008
  -4.6299999999999994E-002    -1.3942192822469224E-007
  -4.5199999999999990E-002    -1.5007958609203342E-007
  -4.4099999999999986E-002    -1.0022258578601395E-007
  -4.2999999999999997E-002    -7.1667763279492647E-008
  -4.1899999999999993E-002    -1.1484369366598912E-007
  -4.0799999999999989E-002    -1.8242074872887315E-007
  -3.9699999999999985E-002    -2.0372404208046646E-007
  -3.8599999999999995E-002    -1.8456712780334783E-007
  -3.7499999999999992E-002    -1.8540789881171804E-007
  -3.6399999999999988E-002    -2.2223198925530596E-007
  -3.5299999999999984E-002    -2.4814642074488802E-007
  -3.4199999999999994E-002    -2.3910180857455998E-007
  -3.3099999999999991E-002    -2.4087944439088460E-007
  -3.1999999999999987E-002    -2.9323732064767682E-007
  -3.0899999999999997E-002    -3.5252409702479781E-007
  -2.9799999999999993E-002    -3.4720358144113561E-007
  -2.8699999999999989E-002    -2.9054902483949263E-007
  -2.7599999999999986E-002    -2.7515540068634436E-007
  -2.6499999999999996E-002    -3.4163650752816466E-007
  -2.5399999999999992E-002    -4.1490443436487112E-007
  -2.4299999999999988E-002    -4.0598806094749307E-007
  -2.3199999999999985E-002    -3.3651693343017541E-007
  -2.2099999999999995E-002    -3.0303829134936677E-007
  -2.0999999999999991E-002    -3.3660509757282853E-007
  -1.9899999999999987E-002    -3.6616765441976895E-007
  -1.8799999999999983E-002    -3.3293542855972191E-007
  -1.7699999999999994E-002    -2.7658916224027053E-007
  -1.6599999999999990E-002    -2.5875505116346176E-007
  -1.5499999999999986E-002    -2.6048095946862304E-007
  -1.4399999999999996E-002    -2.1558125240517256E-007
  -1.3299999999999992E-002    -1.2145146399689111E-007
  -1.2199999999999989E-002    -5.4126591209069375E-008
  -1.1099999999999985E-002    -5.2301832198509146E-008
  -9.9999999999999950E-003    -4.6138332265854842E-008
  -8.8999999999999913E-003     4.3508279645720904E-008
  -7.7999999999999875E-003     1.8284288216818823E-007
  -6.6999999999999837E-003     2.7371777377993567E-007
  -5.5999999999999939E-003     2.9047791372249776E-007
  -4.4999999999999901E-003     3.1687289947512909E-007
  -3.3999999999999864E-003     4.1793242644416750E-007
  -2.2999999999999826E-003     5.4672369742547744E-007
  -1.1999999999999927E-003     6.2342724049813114E-007
  -9.9999999999988987E-005     6.5599670051597059E-007
   1.0000000000000148E-003     7.1458555339631857E-007
   2.1000000000000185E-003     8.1606987123450381E-007
   3.2000000000000084E-003     8.9920763457485009E-007
   4.3000000000000121E-003     9.2010992602808983E-007
   5.4000000000000159E-003     9.2660047812387347E-007
   6.5000000000000058E-003     9.8124144187750062E-007
   7.6000000000000234E-003     1.0615559631332872E-006
   8.7000000000000133E-003     1.0875736506932299E-006
   9.8000000000000032E-003     1.0436405091240886E-006
   1.0900000000000021E-002     1.0004179102907074E-006
   1.2000000000000011E-002     1.0126482266059611E-006
   1.3100000000000001E-002     1.0343661642764346E-006
   1.4200000000000018E-002     9.9256305929884547E-007
   1.5300000000000008E-002     8.9421075699647190E-007
   1.6400000000000026E-002     8.1163221921087825E-007
   1.7500000000000016E-002     7.7163355172160664E-007
   1.8600000000000005E-002     7.2010749363471405E-007
   1.9700000000000023E-002     6.1079049373802263E-007
   2.0800000000000013E-002     4.7684045512141893E-007
   2.1900000000000003E-002     3.7671142649742251E-007
   2.3000000000000020E-002     3.0466765110759297E-007
   2.4100000000000010E-002     2.0375404119477025E-007
   2.5200000000000000E-002     6.0949290059397754E-008
   2.6300000000000018E-002    -7.2780089510615653E-008
   2.7400000000000008E-002    -1.6165768101927824E-007
   2.8500000000000025E-002    -2.3657320014081051E-007
   2.9600000000000015E-002    -3.4665637826947204E-007
   3.0700000000000005E-002    -4.7618763687751198E-007
   3.1800000000000023E-002    -5.7177811640940490E-007
   3.2900000000000013E-002    -6.1937282680446515E-007
   3.4000000000000002E-002    -6.6396825104675372E-007
   3.5100000000000020E-002    -7.4009403761010617E-007
   3.6200000000000010E-002    -8.1995489153996459E-007
   3.7300000000000028E-002    -8.5385363490786403E-007
   3.8400000000000017E-002    -8.4928109345128178E-007
   3.9500000000000007E-002    -8.4952864654042060E-007
   4.0600000000000025E-002    -8.6739663629487040E-007
   4.1700000000000015E-002    -8.7344039911840810E-007
   4.2800000000000005E-002    -8.4258863353170455E-007
   4.3900000000000022E-002    -7.9873689173837192E-007
   4.5000000000000012E-002    -7.6722756148228655E-007
   4.6100000000000002E-002    -7.3604121553216828E-007
   4.7200000000000020E-002    -6.8141315523462254E-007
   4.8300000000000010E-002    -6.0349827890604502E-007
   4.9400000000000027E-002    -5.3699915270044585E-007
   5.0500000000000017E-002    -4.8657591378287179E-007
   5.1600000000000007E-002    -4.2664356669774861E-007
   5.2700000000000025E-002    -3.4692175177042373E-007
   5.3800000000000014E-002    -2.6995286361852777E-007
   5.4900000000000004E-002    -2.1249626058761351E-007
   5.6000000000000022E-002    -1.5718052281954442E-007
   5.7100000000000012E-002    -8.6727247605722368E-008
   5.8200000000000002E-002    -1.6315579998149587E-008
   5.9300000000000019E-002     2.8627841430761691E-008
   6.0400000000000009E-002     5.3932719623617231E-008
   6.1500000000000027E-002     9.2274085261578875E-008
   6.2600000000000017E-002     1.5066005687458528E-007
   6.3700000000000007E-002     1.9796105732439173E-007
   6.4800000000000024E-002     2.0956962032414594E-007
   6.5900000000000014E-002     2.0839051728671620E-007
   6.7000000000000004E-002     2.2416222122956242E-007
   6.8100000000000022E-002     2.4753691718615300E-007
   6.9200000000000012E-002     2.4914433538469893E-007
   7.0300000000000029E-002     2.3387045189338096E-007
   7.1400000000000019E-002     2.3535702098342881E-007
   7.2500000000000009E-002     2.5531494429742452E-007
   7.3600000000000027E-002     2.5088883148782770E-007
   7.4700000000000016E-002     2.0160595681772975E-007
   7.5800000000000006E-002     1.5276270914910128E-007
   7.6900000000000024E-002     1.5516891949118872E-007
   7.8000000000000014E-002     1.8676708180009882E-007
   7.9100000000000004E-002     1.8040245208794659E-007
   8.0200000000000021E-002     1.2088553091871290E-007
   8.1300000000000011E-002     7.0374987615196005E-008
   8.2400000000000029E-002     7.3282706125610275E-008
   8.3500000000000019E-002     9.2442554944227595E-008
   8.4600000000000009E-002     7.0643537242176535E-008
   8.5700000000000026E-002     2.2903785534822418E-008
   8.6800000000000016E-002     1.0001563133243963E-008
   8.7900000000000006E-002     3.6618111209918425E-008
   8.9000000000000024E-002     3.6461177188584770E-008
   9.0100000000000013E-002    -1.9449640120683398E-008
   9.1200000000000003E-002    -6.5752580269418104E-008
   9.2300000000000021E-002    -3.7920827367088350E-008
   9.3400000000000011E-002     2.2474191396781862E-008
   9.4500000000000028E-002     2.1703119301719198E-008
   9.5600000000000018E-002    -4.6675488363234763E-008
   9.6700000000000008E-002    -8.9681670090158150E-008
   9.7800000000000026E-002    -5.3082700901541102E-008
   9.8900000000000016E-002    -1.4246410717788649E-009
  0.10000000000000001         -1.4672307813157204E-008
  0.10110000000000002         -6.5192175213724113E-008
  0.10220000000000001         -6.4604940064327820E-008
  0.10330000000000003         -7.8128881142447426E-009
  0.10440000000000002          1.4519299540438624E-008
  0.10550000000000001         -3.9014587116525945E-008
  0.10660000000000003         -8.7360660927515710E-008
  0.10770000000000002         -4.7508660117046020E-008
  0.10880000000000001          3.1519093113274721E-008
  0.10990000000000003          3.6356134103243676E-008
  0.11100000000000002         -4.1014672547134978E-008
  0.11210000000000001         -8.6340371296955709E-008
  0.11320000000000002         -3.3060160831155372E-008
  0.11430000000000001          3.9054057765497419E-008
  0.11540000000000003          2.7475808295207571E-008
  0.11650000000000002         -3.8485879372274212E-008
  0.11760000000000001         -4.7930136304330517E-008
  0.11870000000000003          1.4532605341344151E-008
  0.11980000000000002          4.5367670509222080E-008
  0.12090000000000001         -1.1392058851811271E-008
  0.12200000000000003         -6.8961774957188027E-008
  0.12310000000000001         -3.0385976401703374E-008
  0.12420000000000003          5.6001198345256853E-008
  0.12530000000000002          6.2837955283612246E-008
  0.12640000000000001         -2.2155139944857183E-008
  0.12750000000000003         -7.3940000788752513E-008
  0.12860000000000002         -1.7039404553997883E-008
  0.12970000000000001          6.1156917752214213E-008
  0.13080000000000003          4.5041808505175140E-008
  0.13190000000000002         -3.4420057914985591E-008
  0.13300000000000001         -5.2170037179166684E-008
  0.13410000000000000          1.5470456915522846E-008
  0.13520000000000004          5.7015068222199261E-008
  0.13630000000000003          3.4205158705447047E-009
  0.13740000000000002         -6.0843149185529910E-008
  0.13850000000000001         -2.8903617277364901E-008
  0.13960000000000000          5.7872266978620246E-008
  0.14070000000000005          6.7779950541080325E-008
  0.14180000000000004         -1.9358877167974242E-008
  0.14290000000000003         -7.7825681898957555E-008
  0.14400000000000002         -2.4243520968525445E-008
  0.14510000000000001          5.8287643156518243E-008
  0.14620000000000000          4.8606608515910921E-008
  0.14730000000000004         -3.0541517759274939E-008
  0.14840000000000003         -5.3733963056856737E-008
  0.14950000000000002          1.0887974077888884E-008
  0.15060000000000001          5.6528179470660689E-008
  0.15170000000000000          8.6452836001171818E-009
  0.15280000000000005         -5.6446040730406821E-008
  0.15390000000000004         -3.2249651837901183E-008
  0.15500000000000003          4.8306560529454146E-008
  0.15610000000000002          6.0151890579618339E-008
  0.15720000000000001         -2.0603255990181424E-008
  0.15830000000000000         -7.5940754129533161E-008
  0.15940000000000004         -2.3050414910130712E-008
  0.16050000000000003          6.0731167650374118E-008
  0.16160000000000002          5.5121411435266054E-008
  0.16270000000000001         -2.4445380830684371E-008
  0.16380000000000000         -5.6521614055782265E-008
  0.16490000000000005         -4.0636327636178748E-011
  0.16600000000000004          4.9956391023897595E-008
  0.16710000000000003          1.5805659003831352E-008
  0.16820000000000002         -4.3712088171332653E-008
  0.16930000000000001         -3.0488017443985882E-008
  0.17040000000000000          3.6363676514383769E-008
  0.17150000000000004          5.0156952369206920E-008
  0.17260000000000003         -1.5207120895865955E-008
  0.17370000000000002         -6.1917752702811413E-008
  0.17480000000000001         -1.7687789011233690E-008
  0.17590000000000000          5.2648459814008675E-008
  0.17700000000000005          4.5269548110127289E-008
  0.17810000000000004         -2.6490249993571524E-008
  0.17920000000000003         -5.5228362327852665E-008
  0.18030000000000002         -2.6295328137138085E-009
  0.18140000000000001          4.7694815208387809E-008
  0.18250000000000000          2.1905668390331812E-008
  0.18360000000000004         -3.4267475967908467E-008
  0.18470000000000003         -3.2552936346519346E-008
  0.18580000000000002          2.0609597584098083E-008
  0.18690000000000001          3.8484866848875754E-008
  0.18800000000000000         -7.7347248605974528E-009
  0.18910000000000005         -4.4875456239878986E-008
  0.19020000000000004         -1.3185585068242744E-008
  0.19130000000000003          4.0481744179032830E-008
  0.19240000000000002          3.5260065089914860E-008
  0.19350000000000001         -2.0225199293122387E-008
  0.19460000000000005         -4.2835523572648526E-008
  0.19570000000000004         -1.8183061722965022E-009
  0.19680000000000003          3.8124543522144450E-008
  0.19790000000000002          1.8482587904600223E-008
  0.19900000000000001         -2.6404270769830873E-008
  0.20010000000000000         -2.7154008819252340E-008
  0.20120000000000005          1.3848786117875989E-008
  0.20230000000000004          3.0829365726958713E-008
  0.20340000000000003         -1.0156628871271778E-009
  0.20450000000000002         -2.9599958040193997E-008
  0.20560000000000000         -9.9822798915738531E-009
  0.20670000000000005          2.6309963985227114E-008
  0.20780000000000004          2.2270899791010379E-008
  0.20890000000000003         -1.5960731403197315E-008
