 -0.12000000000000000          0.0000000000000000
 -0.11889999999999999          0.0000000000000000
 -0.11780000000000000          0.0000000000000000
 -0.11670000000000000          0.0000000000000000
 -0.11559999999999999          0.0000000000000000
 -0.11449999999999999          0.0000000000000000
 -0.11340000000000000          0.0000000000000000
 -0.11230000000000000          4.5173359149350863E-021
 -0.11119999999999999          2.6953102687640040E-021
 -0.11009999999999999         -3.9686141849293848E-020
 -0.10900000000000000         -4.3154380910757981E-020
 -0.10790000000000000          1.2673977335006528E-019
 -0.10679999999999999          1.1275610414909735E-019
 -0.10569999999999999         -2.9436537831861332E-019
 -0.10460000000000000          7.7179771691651711E-019
 -0.10349999999999999          3.4095656930496754E-018
 -0.10239999999999999         -2.6647575870510565E-018
 -0.10130000000000000         -2.4008320054949365E-017
 -0.10020000000000000         -2.3006926933586544E-017
  -9.9099999999999994E-002     5.9794484348959517E-017
  -9.7999999999999990E-002     1.6465780511119724E-016
  -9.6899999999999986E-002     6.5371872051828964E-017
  -9.5799999999999996E-002    -3.2096624764263123E-016
  -9.4699999999999993E-002    -5.9947502174369986E-016
  -9.3599999999999989E-002    -2.6554649656033806E-016
  -9.2499999999999999E-002     5.2617877265850269E-016
  -9.1399999999999995E-002     1.2265281657005789E-015
  -9.0299999999999991E-002     1.9775504577791963E-015
  -8.9200000000000002E-002     2.6896705382936734E-015
  -8.8099999999999984E-002     1.9473908173708025E-016
  -8.6999999999999994E-002    -9.5672540798962674E-015
  -8.5899999999999990E-002    -2.1019361449406589E-014
  -8.4799999999999986E-002    -1.4576933884675840E-014
  -8.3699999999999997E-002     2.3028601527324936E-014
  -8.2599999999999993E-002     6.8656269092224470E-014
  -8.1499999999999989E-002     7.0093961830521717E-014
  -8.0399999999999999E-002     1.8027366217513016E-015
  -7.9299999999999995E-002    -9.8447535930648589E-014
  -7.8199999999999992E-002    -1.7167483526338984E-013
  -7.7100000000000002E-002    -1.9459223999946512E-013
  -7.5999999999999984E-002    -1.4046697019518689E-013
  -7.4899999999999994E-002     9.1882671447458125E-014
  -7.3799999999999991E-002     5.6259548885870259E-013
  -7.2699999999999987E-002     1.0080230920805899E-012
  -7.1599999999999997E-002     8.3523942970287202E-013
  -7.0499999999999993E-002    -2.9889670382851619E-013
  -6.9399999999999989E-002    -1.8545852787515971E-012
  -6.8300000000000000E-002    -2.6645738566977162E-012
  -6.7199999999999996E-002    -2.0365252453163896E-012
  -6.6099999999999992E-002    -3.4666646181284733E-013
  -6.5000000000000002E-002     1.7393200595072766E-012
  -6.3899999999999985E-002     4.1749242951638621E-012
  -6.2799999999999995E-002     6.7709887176248262E-012
  -6.1699999999999991E-002     7.5979639246881447E-012
  -6.0599999999999994E-002     3.6871365335922057E-012
  -5.9499999999999990E-002    -5.3345843367691437E-012
  -5.8399999999999994E-002    -1.5047055615391436E-011
  -5.7299999999999990E-002    -1.9570284628955825E-011
  -5.6199999999999986E-002    -1.7235584487407252E-011
  -5.5099999999999996E-002    -1.0806335860868987E-011
  -5.3999999999999992E-002    -1.1947966487707573E-012
  -5.2899999999999989E-002     1.5830890418011556E-011
  -5.1799999999999985E-002     4.2452243109725174E-011
  -5.0699999999999995E-002     6.8811449593919605E-011
  -4.9599999999999991E-002     7.5453962522509244E-011
  -4.8499999999999988E-002     4.9081048253407644E-011
  -4.7399999999999998E-002    -6.5036292323794598E-012
  -4.6299999999999994E-002    -7.7459157143966451E-011
  -4.5199999999999990E-002    -1.5275576636941679E-010
  -4.4099999999999986E-002    -2.2125674903339387E-010
  -4.2999999999999997E-002    -2.5614366183646098E-010
  -4.1899999999999993E-002    -2.1505924818754352E-010
  -4.0799999999999989E-002    -6.9064268193308465E-011
  -3.9699999999999985E-002     1.6694974569464449E-010
  -3.8599999999999995E-002     4.3755232770337216E-010
  -3.7499999999999992E-002     6.7744593268415088E-010
  -3.6399999999999988E-002     8.2886253416347699E-010
  -3.5299999999999984E-002     8.2946782775650263E-010
  -3.4199999999999994E-002     6.0446775362876792E-010
  -3.3099999999999991E-002     9.7096629347870334E-011
  -3.1999999999999987E-002    -6.8151673193739271E-010
  -3.0899999999999997E-002    -1.6310295336552372E-009
  -2.9799999999999993E-002    -2.5782578294553105E-009
  -2.8699999999999989E-002    -3.2951126271996145E-009
  -2.7599999999999986E-002    -3.5026890277123357E-009
  -2.6499999999999996E-002    -2.8971938181854284E-009
  -2.5399999999999992E-002    -1.2210058519812605E-009
  -2.4299999999999988E-002     1.6695269611233243E-009
  -2.3199999999999985E-002     5.8055307228244146E-009
  -2.2099999999999995E-002     1.1159348112244061E-008
  -2.0999999999999991E-002     1.7667014517996904E-008
  -1.9899999999999987E-002     2.5200604270025906E-008
  -1.8799999999999983E-002     3.3585767056365512E-008
  -1.7699999999999994E-002     4.2738815153597898E-008
  -1.6599999999999990E-002     5.2840015030142240E-008
  -1.5499999999999986E-002     6.4385240250430797E-008
  -1.4399999999999996E-002     7.8097208700000920E-008
  -1.3299999999999992E-002     9.4849148979392339E-008
  -1.2199999999999989E-002     1.1570793390092149E-007
  -1.1099999999999985E-002     1.4199842723883194E-007
  -9.9999999999999950E-003     1.7523113626793929E-007
  -8.8999999999999913E-003     2.1693185203730536E-007
  -7.7999999999999875E-003     2.6858711521526857E-007
  -6.6999999999999837E-003     3.3180523928422190E-007
  -5.5999999999999939E-003     4.0853231553228397E-007
  -4.4999999999999901E-003     5.0113550287278485E-007
  -3.3999999999999864E-003     6.1238176840561209E-007
  -2.2999999999999826E-003     7.4549865303197294E-007
  -1.1999999999999927E-003     9.0435338506722474E-007
  -9.9999999999988987E-005     1.0935959835478570E-006
   1.0000000000000148E-003     1.3186779597162968E-006
   2.1000000000000185E-003     1.5858496453802218E-006
   3.2000000000000084E-003     1.9022565993509488E-006
   4.3000000000000121E-003     2.2760341380489990E-006
   5.4000000000000159E-003     2.7162584501638776E-006
   6.5000000000000058E-003     3.2328546240023570E-006
   7.6000000000000234E-003     3.8367234083125368E-006
   8.7000000000000133E-003     4.5400665840134025E-006
   9.8000000000000032E-003     5.3566241149383131E-006
   1.0900000000000021E-002     6.3015063460625242E-006
   1.2000000000000011E-002     7.3909509410441387E-006
   1.3100000000000001E-002     8.6424151959363371E-006
   1.4200000000000018E-002     1.0074975762108807E-005
   1.5300000000000008E-002     1.1709551472449675E-005
   1.6400000000000026E-002     1.3568728718382772E-005
   1.7500000000000016E-002     1.5676208931836300E-005
   1.8600000000000005E-002     1.8056534827337600E-005
   1.9700000000000023E-002     2.0735060388687998E-005
   2.0800000000000013E-002     2.3737769879517145E-005
   2.1900000000000003E-002     2.7090884032077156E-005
   2.3000000000000020E-002     3.0820152460364625E-005
   2.4100000000000010E-002     3.4950655390275642E-005
   2.5200000000000000E-002     3.9506485336460173E-005
   2.6300000000000018E-002     4.4510328734759241E-005
   2.7400000000000008E-002     4.9982572818407789E-005
   2.8500000000000025E-002     5.5940574384294450E-005
   2.9600000000000015E-002     6.2398146837949753E-005
   3.0700000000000005E-002     6.9364425144158304E-005
   3.1800000000000023E-002     7.6842872658744454E-005
   3.2900000000000013E-002     8.4829567640554160E-005
   3.4000000000000002E-002     9.3312679382506758E-005
   3.5100000000000020E-002     1.0227111488347873E-004
   3.6200000000000010E-002     1.1167430784553289E-004
   3.7300000000000028E-002     1.2148080713814124E-004
   3.8400000000000017E-002     1.3163711992092431E-004
   3.9500000000000007E-002     1.4207702770363539E-004
   4.0600000000000025E-002     1.5272178279701620E-004
   4.1700000000000015E-002     1.6347884957212955E-004
   4.2800000000000005E-002     1.7424245015718043E-004
   4.3900000000000022E-002     1.8489151261746883E-004
   4.5000000000000012E-002     1.9529020937625319E-004
   4.6100000000000002E-002     2.0528840832412243E-004
   4.7200000000000020E-002     2.1472375374287367E-004
   4.8300000000000010E-002     2.2342050215229392E-004
   4.9400000000000027E-002     2.3119199613574892E-004
   5.0500000000000017E-002     2.3784409859217703E-004
   5.1600000000000007E-002     2.4317455245181918E-004
   5.2700000000000025E-002     2.4697635672055185E-004
   5.3800000000000014E-002     2.4904156452976167E-004
   5.4900000000000004E-002     2.4916505208238959E-004
   5.6000000000000022E-002     2.4714524624869227E-004
   5.7100000000000012E-002     2.4279004719574004E-004
   5.8200000000000002E-002     2.3592136858496815E-004
   5.9300000000000019E-002     2.2637764050159603E-004
   6.0400000000000009E-002     2.1401929552666843E-004
   6.1500000000000027E-002     1.9873290148098022E-004
   6.2600000000000017E-002     1.8043271848000586E-004
   6.3700000000000007E-002     1.5906490443740040E-004
   6.4800000000000024E-002     1.3461793423630297E-004
   6.5900000000000014E-002     1.0712486255215481E-004
   6.7000000000000004E-002     7.6657706813421100E-005
   6.8100000000000022E-002     4.3330102926120162E-005
   6.9200000000000012E-002     7.3004207479243632E-006
   7.0300000000000029E-002    -3.1217106879921630E-005
   7.1400000000000019E-002    -7.1955924795474857E-005
   7.2500000000000009E-002    -1.1460592941148207E-004
   7.3600000000000027E-002    -1.5881717263255268E-004
   7.4700000000000016E-002    -2.0419804786797613E-004
   7.5800000000000006E-002    -2.5031730183400214E-004
   7.6900000000000024E-002    -2.9670831281691790E-004
   7.8000000000000014E-002    -3.4287711605429649E-004
   7.9100000000000004E-002    -3.8830796256661415E-004
   8.0200000000000021E-002    -4.3246598215773702E-004
   8.1300000000000011E-002    -4.7481097863055766E-004
   8.2400000000000029E-002    -5.1481160335242748E-004
   8.3500000000000019E-002    -5.5195123422890902E-004
   8.4600000000000009E-002    -5.8572570560500026E-004
   8.5700000000000026E-002    -6.1564653879031539E-004
   8.6800000000000016E-002    -6.4125971402972937E-004
   8.7900000000000006E-002    -6.6216784762218595E-004
   8.9000000000000024E-002    -6.7803461570292711E-004
   9.0100000000000013E-002    -6.8857724545523524E-004
   9.1200000000000003E-002    -6.9356459425762296E-004
   9.2300000000000021E-002    -6.9283088669180870E-004
   9.3400000000000011E-002    -6.8628927692770958E-004
   9.4500000000000028E-002    -6.7393406061455607E-004
   9.5600000000000018E-002    -6.5583636751398444E-004
   9.6700000000000008E-002    -6.3213967951014638E-004
   9.7800000000000026E-002    -6.0306227533146739E-004
   9.8900000000000016E-002    -5.6889379629865289E-004
  0.10000000000000001         -5.2998814499005675E-004
  0.10110000000000002         -4.8675766447558999E-004
  0.10220000000000001         -4.3967945384792984E-004
  0.10330000000000003         -3.8928780122660100E-004
  0.10440000000000002         -3.3615101710893214E-004
  0.10550000000000001         -2.8085612575523555E-004
  0.10660000000000003         -2.2400690068025142E-004
  0.10770000000000002         -1.6622451948933303E-004
  0.10880000000000001         -1.0815010318765417E-004
  0.10990000000000003         -5.0416234444128349E-005
  0.11100000000000002          6.3776296883588657E-006
  0.11210000000000001          6.1662853113375604E-005
  0.11320000000000002          1.1490452016005293E-004
  0.11430000000000001          1.6559610958211124E-004
  0.11540000000000003          2.1327147260308266E-004
  0.11650000000000002          2.5752728106454015E-004
  0.11760000000000001          2.9802284552715719E-004
  0.11870000000000003          3.3447903115302324E-004
  0.11980000000000002          3.6668049870058894E-004
  0.12090000000000001          3.9447136805392802E-004
  0.12200000000000003          4.1775999125093222E-004
  0.12310000000000001          4.3650943553075194E-004
  0.12420000000000003          4.5073791989125311E-004
  0.12530000000000002          4.6052949619479477E-004
  0.12640000000000001          4.6603239024989307E-004
  0.12750000000000003          4.6744607971049845E-004
  0.12860000000000002          4.6498820302076638E-004
  0.12970000000000001          4.5889848843216896E-004
  0.13080000000000003          4.4945554691366851E-004
  0.13190000000000002          4.3698662193492055E-004
  0.13300000000000001          4.2184529593214393E-004
  0.13410000000000000          4.0437845746055245E-004
  0.13520000000000004          3.8491841405630112E-004
  0.13630000000000003          3.6379968514665961E-004
  0.13740000000000002          3.4136825706809759E-004
  0.13850000000000001          3.1796770053915679E-004
  0.13960000000000000          2.9391938005574048E-004
  0.14070000000000005          2.6952088228426874E-004
  0.14180000000000004          2.4505308829247952E-004
  0.14290000000000003          2.2077692847233266E-004
  0.14400000000000002          1.9692083878908306E-004
  0.14510000000000001          1.7368164844810963E-004
  0.14620000000000000          1.5123811317607760E-004
  0.14730000000000004          1.2975654681213200E-004
  0.14840000000000003          1.0937491606455296E-004
  0.14950000000000002          9.0185851149726659E-005
  0.15060000000000001          7.2246722993440926E-005
  0.15170000000000000          5.5605763918720186E-005
  0.15280000000000005          4.0307982999365777E-005
  0.15390000000000004          2.6376541427453049E-005
  0.15500000000000003          1.3796936400467530E-005
  0.15610000000000002          2.5320800887129735E-006
  0.15720000000000001         -7.4530735219013877E-006
  0.15830000000000000         -1.6192567272810265E-005
  0.15940000000000004         -2.3740512915537693E-005
  0.16050000000000003         -3.0176712243701331E-005
  0.16160000000000002         -3.5586141166277230E-005
  0.16270000000000001         -4.0034316043602303E-005
  0.16380000000000000         -4.3579759221756831E-005
  0.16490000000000005         -4.6299468522192910E-005
  0.16600000000000004         -4.8289155529346317E-005
  0.16710000000000003         -4.9637361371424049E-005
  0.16820000000000002         -5.0409587856847793E-005
  0.16930000000000001         -5.0663606089074165E-005
  0.17040000000000000         -5.0469592679291964E-005
  0.17150000000000004         -4.9902995669981465E-005
  0.17260000000000003         -4.9024296458810568E-005
  0.17370000000000002         -4.7878842451609671E-005
  0.17480000000000001         -4.6515106078004465E-005
  0.17590000000000000         -4.4991396862315014E-005
  0.17700000000000005         -4.3355219531804323E-005
  0.17810000000000004         -4.1627743485150859E-005
  0.17920000000000003         -3.9822178223403171E-005
  0.18030000000000002         -3.7971371057210490E-005
  0.18140000000000001         -3.6123139580013230E-005
  0.18250000000000000         -3.4307999158045277E-005
  0.18360000000000004         -3.2524265407118946E-005
  0.18470000000000003         -3.0763789254706353E-005
  0.18580000000000002         -2.9041928428341635E-005
  0.18690000000000001         -2.7388641683501191E-005
  0.18800000000000000         -2.5817091227509081E-005
  0.18910000000000005         -2.4316119379363954E-005
  0.19020000000000004         -2.2875552531331778E-005
  0.19130000000000003         -2.1505597032955848E-005
  0.19240000000000002         -2.0221365048200823E-005
  0.19350000000000001         -1.9018772945855744E-005
  0.19460000000000005         -1.7880374798551202E-005
  0.19570000000000004         -1.6801270248834044E-005
  0.19680000000000003         -1.5794517821632326E-005
  0.19790000000000002         -1.4866995115880854E-005
  0.19900000000000001         -1.4003884643898346E-005
  0.20010000000000000         -1.3186530850362033E-005
  0.20120000000000005         -1.2416717254382093E-005
  0.20230000000000004         -1.1708999409165699E-005
  0.20340000000000003         -1.1062365047109779E-005
  0.20450000000000002         -1.0455900337547064E-005
  0.20560000000000000         -9.8756836450775154E-006
  0.20670000000000005         -9.3326652859104797E-006
  0.20780000000000004         -8.8428605522494763E-006
  0.20890000000000003         -8.3983350123162381E-006
