 -0.12000000000000000          0.0000000000000000
 -0.11889999999999999          0.0000000000000000
 -0.11780000000000000          0.0000000000000000
 -0.11670000000000000          0.0000000000000000
 -0.11559999999999999          0.0000000000000000
 -0.11449999999999999          0.0000000000000000
 -0.11340000000000000          0.0000000000000000
 -0.11230000000000000          4.5173359149350863E-021
 -0.11119999999999999         -2.1335482060380530E-021
 -0.11009999999999999         -5.0255054385278025E-020
 -0.10900000000000000          6.3249586018075158E-021
 -0.10790000000000000          3.2296858596705518E-019
 -0.10679999999999999          1.0674428470403265E-019
 -0.10569999999999999         -1.4623051897125746E-018
 -0.10460000000000000         -1.2596242261460033E-018
 -0.10349999999999999          4.7662465359841288E-018
 -0.10239999999999999          7.2483587146755671E-018
 -0.10130000000000000         -1.0592423283739618E-017
 -0.10020000000000000         -2.7792540662842683E-017
  -9.9099999999999994E-002     1.2570485097956050E-017
  -9.7999999999999990E-002     7.9820480656754014E-017
  -9.6899999999999986E-002     1.2145809744290713E-017
  -9.5799999999999996E-002    -1.8955673564243142E-016
  -9.4699999999999993E-002    -1.2843953655444041E-016
  -9.3599999999999989E-002     3.9215285529357316E-016
  -9.2499999999999999E-002     5.3949010718284084E-016
  -9.1399999999999995E-002    -6.0574237733911204E-016
  -9.0299999999999991E-002    -1.6980241853502384E-015
  -8.9200000000000002E-002     1.2996815309154861E-016
  -8.8099999999999984E-002     3.8443729570450478E-015
  -8.6999999999999994E-002     2.7951644684676971E-015
  -8.5899999999999990E-002    -5.4412790903058967E-015
  -8.4799999999999986E-002    -9.5917409553684420E-015
  -8.3699999999999997E-002     2.5227815425202900E-015
  -8.2599999999999993E-002     1.8417186449948969E-014
  -8.1499999999999989E-002     8.2132676785455321E-015
  -8.0399999999999999E-002    -2.5318116337160260E-014
  -7.9299999999999995E-002    -2.8646857564047778E-014
  -7.8199999999999992E-002     2.6885408504519204E-014
  -7.7100000000000002E-002     6.7104558942963216E-014
  -7.5999999999999984E-002    -4.8575340527278604E-015
  -7.4899999999999994E-002    -1.2584731705084923E-013
  -7.3799999999999991E-002    -8.8559063240230967E-014
  -7.2699999999999987E-002     1.4607455869897201E-013
  -7.1599999999999997E-002     2.6607278121211497E-013
  -7.0499999999999993E-002    -1.4645951823284015E-014
  -6.9399999999999989E-002    -4.1285193579793100E-013
  -6.8300000000000000E-002    -2.8991449540528846E-013
  -6.7199999999999996E-002     3.7689515679402430E-013
  -6.6099999999999992E-002     6.6023006289536723E-013
  -6.5000000000000002E-002    -1.0487680060337901E-013
  -6.3899999999999985E-002    -1.0222499929879447E-012
  -6.2799999999999995E-002    -5.2546920807639008E-013
  -6.1699999999999991E-002     1.1612634681981704E-012
  -6.0599999999999994E-002     1.6429055381753099E-012
  -5.9499999999999990E-002    -4.3080383010929424E-013
  -5.8399999999999994E-002    -2.6582685705434095E-012
  -5.7299999999999990E-002    -1.4798677691260642E-012
  -5.6199999999999986E-002     2.3741830983831091E-012
  -5.5099999999999996E-002     3.6569944121545017E-012
  -5.3999999999999992E-002    -3.4669906919318483E-013
  -5.2899999999999989E-002    -4.7691811437544640E-012
  -5.1799999999999985E-002    -2.8353795006319515E-012
  -5.0699999999999995E-002     3.9462755979657871E-012
  -4.9599999999999991E-002     6.1617772516286973E-012
  -4.8499999999999988E-002    -6.3211507425955937E-013
  -4.7399999999999998E-002    -7.9608325140312353E-012
  -4.6299999999999994E-002    -4.8448771036713190E-012
  -4.5199999999999990E-002     5.9953643612165042E-012
  -4.4099999999999986E-002     1.0003421702098336E-011
  -4.2999999999999997E-002     7.0883593049006488E-013
  -4.1899999999999993E-002    -9.9522248081518327E-012
  -4.0799999999999989E-002    -7.5308119115713446E-012
  -3.9699999999999985E-002     4.1720767465780462E-012
  -3.8599999999999995E-002     8.2176930191191211E-012
  -3.7499999999999992E-002    -6.3638103033752946E-013
  -3.6399999999999988E-002    -8.0508238964327461E-012
  -3.5299999999999984E-002    -1.8636153818057943E-012
  -3.4199999999999994E-002     9.1505622523690988E-012
  -3.3099999999999991E-002     8.9032461958460374E-012
  -3.1999999999999987E-002    -8.5926632562710603E-013
  -3.0899999999999997E-002    -4.3746460447191549E-012
  -2.9799999999999993E-002     6.2876510638701366E-013
  -2.8699999999999989E-002    -1.9721895557628377E-012
  -2.7599999999999986E-002    -1.6759076765238134E-011
  -2.6499999999999996E-002    -2.0916329432352221E-011
  -2.5399999999999992E-002     2.9895812388158749E-012
  -2.4299999999999988E-002     3.0762725700128613E-011
  -2.3199999999999985E-002     2.1636418351400621E-011
  -2.2099999999999995E-002    -1.9675306522914937E-011
  -2.0999999999999991E-002    -3.8411617636624484E-011
  -1.9899999999999987E-002    -5.0645698572437947E-012
  -1.8799999999999983E-002     3.2676066713532848E-011
  -1.7699999999999994E-002     9.1785416073131287E-012
  -1.6599999999999990E-002    -5.9829148579826352E-011
  -1.5499999999999986E-002    -8.4320779525359768E-011
  -1.4399999999999996E-002    -1.9525311922841126E-011
  -1.3299999999999992E-002     6.4559801948860240E-011
  -1.2199999999999989E-002     6.8717816159580281E-011
  -1.1099999999999985E-002    -7.4415248269010803E-012
  -9.9999999999999950E-003    -7.1640540721951140E-011
  -8.8999999999999913E-003    -6.8156855159706708E-011
  -7.7999999999999875E-003    -4.2870346161905104E-011
  -6.6999999999999837E-003    -6.1160999875742306E-011
  -5.5999999999999939E-003    -1.1044037906415838E-010
  -4.4999999999999901E-003    -1.3083666094981794E-010
  -3.3999999999999864E-003    -1.1117555487327735E-010
  -2.2999999999999826E-003    -9.0982693601304732E-011
  -1.1999999999999927E-003    -7.9861769974876040E-011
  -9.9999999999988987E-005    -4.9084680764366340E-011
   1.0000000000000148E-003    -2.2842254129851192E-011
   2.1000000000000185E-003    -9.6436671148669717E-011
   3.2000000000000084E-003    -3.0181243615423625E-010
   4.3000000000000121E-003    -5.0106835347563106E-010
   5.4000000000000159E-003    -5.2245380244286821E-010
   6.5000000000000058E-003    -3.8889053088908554E-010
   7.6000000000000234E-003    -3.2468272515018270E-010
   8.7000000000000133E-003    -4.5313125474066851E-010
   9.8000000000000032E-003    -6.2164134950748462E-010
   1.0900000000000021E-002    -6.1051352862051544E-010
   1.2000000000000011E-002    -4.6527956487629751E-010
   1.3100000000000001E-002    -4.5469863985125869E-010
   1.4200000000000018E-002    -7.4450962062044823E-010
   1.5300000000000008E-002    -1.1665752808198704E-009
   1.6400000000000026E-002    -1.4637770995307164E-009
   1.7500000000000016E-002    -1.5471751657614163E-009
   1.8600000000000005E-002    -1.5427563671011058E-009
   1.9700000000000023E-002    -1.5830792232662816E-009
   2.0800000000000013E-002    -1.6189743989869498E-009
   2.1900000000000003E-002    -1.6155760063085722E-009
   2.3000000000000020E-002    -1.6890754350740167E-009
   2.4100000000000010E-002    -1.8867167828062748E-009
   2.5200000000000000E-002    -2.1907760050510205E-009
   2.6300000000000018E-002    -2.3343866839553584E-009
   2.7400000000000008E-002    -2.4763977535258164E-009
   2.8500000000000025E-002    -2.7951958525562759E-009
   2.9600000000000015E-002    -3.2852369713509688E-009
   3.0700000000000005E-002    -3.5445189006111377E-009
   3.1800000000000023E-002    -3.4301825824201160E-009
   3.2900000000000013E-002    -3.0183011645590341E-009
   3.4000000000000002E-002    -2.7892121945427562E-009
   3.5100000000000020E-002    -2.9350417651841099E-009
   3.6200000000000010E-002    -3.0457234512226705E-009
   3.7300000000000028E-002    -2.9087046105047420E-009
   3.8400000000000017E-002    -2.7262920809789648E-009
   3.9500000000000007E-002    -2.5469795161825459E-009
   4.0600000000000025E-002    -2.7122155632497424E-009
   4.1700000000000015E-002    -2.8550837249952110E-009
   4.2800000000000005E-002    -2.3625330580756554E-009
   4.3900000000000022E-002    -1.4786722957182974E-009
   4.5000000000000012E-002    -6.5540861626800506E-010
   4.6100000000000002E-002    -2.0594866090295483E-010
   4.7200000000000020E-002    -4.8937082164357548E-010
   4.8300000000000010E-002     1.2732061238640568E-010
   4.9400000000000027E-002     2.2281088085662759E-009
   5.0500000000000017E-002     3.8763956489162865E-009
   5.1600000000000007E-002     4.1051086974164264E-009
   5.2700000000000025E-002     3.6234641953569735E-009
   5.3800000000000014E-002     4.5227688261206822E-009
   5.4900000000000004E-002     6.2033693737362228E-009
   5.6000000000000022E-002     7.5551520595240618E-009
   5.7100000000000012E-002     8.4286773116559743E-009
   5.8200000000000002E-002     9.4504049030774695E-009
   5.9300000000000019E-002     9.7562553591501455E-009
   6.0400000000000009E-002     9.7100247842263343E-009
   6.1500000000000027E-002     1.0847607256891934E-008
   6.2600000000000017E-002     1.3596790360281830E-008
   6.3700000000000007E-002     1.6160004889798074E-008
   6.4800000000000024E-002     1.5479328041578810E-008
   6.5900000000000014E-002     1.3046548730244467E-008
   6.7000000000000004E-002     1.2812145122609309E-008
   6.8100000000000022E-002     1.3155877276460615E-008
   6.9200000000000012E-002     1.4347377508272530E-008
   7.0300000000000029E-002     1.5240745554478963E-008
   7.1400000000000019E-002     1.5790892149425417E-008
   7.2500000000000009E-002     1.2949790573202336E-008
   7.3600000000000027E-002     9.0624183712861850E-009
   7.4700000000000016E-002     7.2536483486373982E-009
   7.5800000000000006E-002     9.6147214634356715E-009
   7.6900000000000024E-002     1.1898944940469391E-008
   7.8000000000000014E-002     1.0570113673225023E-008
   7.9100000000000004E-002     5.7340283632356659E-009
   8.0200000000000021E-002    -9.2927870953829483E-010
   8.1300000000000011E-002    -3.6994989294214520E-009
   8.2400000000000029E-002    -2.0063906092104844E-009
   8.3500000000000019E-002     2.9014066149635198E-010
   8.4600000000000009E-002    -1.0948068007721190E-009
   8.5700000000000026E-002    -6.5312231178893398E-009
   8.6800000000000016E-002    -1.3171116641785829E-008
   8.7900000000000006E-002    -1.7099734961334434E-008
   8.9000000000000024E-002    -1.6407156522291189E-008
   9.0100000000000013E-002    -1.3183313107845152E-008
   9.1200000000000003E-002    -1.1689629708655502E-008
   9.2300000000000021E-002    -1.4570404438529749E-008
   9.3400000000000011E-002    -2.1662629023921909E-008
   9.4500000000000028E-002    -2.6719314760725865E-008
   9.5600000000000018E-002    -2.5086555055509052E-008
   9.6700000000000008E-002    -1.7387982609307073E-008
   9.7800000000000026E-002    -1.1815720846186650E-008
   9.8900000000000016E-002    -1.5456913970979258E-008
  0.10000000000000001         -2.6254307172735025E-008
  0.10110000000000002         -2.9636447962388957E-008
  0.10220000000000001         -2.2905823016117210E-008
  0.10330000000000003         -1.1842949731999397E-008
  0.10440000000000002         -6.9496524091050560E-009
  0.10550000000000001         -1.0445964981897760E-008
  0.10660000000000003         -1.6732398577801177E-008
  0.10770000000000002         -1.8405140522759211E-008
  0.10880000000000001         -1.4960827243726271E-008
  0.10990000000000003         -6.2004317236130646E-009
  0.11100000000000002          4.0218330887853426E-009
  0.11210000000000001          9.0867171564923410E-009
  0.11320000000000002          2.7514663880623402E-009
  0.11430000000000001         -8.1751325708978584E-009
  0.11540000000000003         -1.0908768999229324E-008
  0.11650000000000002          7.2940342654703727E-010
  0.11760000000000001          1.7734260282509240E-008
  0.11870000000000003          2.2578007019546931E-008
  0.11980000000000002          1.0665343275206851E-008
  0.12090000000000001         -3.2632256896647505E-009
  0.12200000000000003         -1.7746332181545199E-009
  0.12310000000000001          1.3518949515400891E-008
  0.12420000000000003          2.4313527191566209E-008
  0.12530000000000002          2.1840204311729394E-008
  0.12640000000000001          1.2514444591715801E-008
  0.12750000000000003          6.6586562930126547E-009
  0.12860000000000002          6.6089200778662871E-009
  0.12970000000000001          8.5655269543849499E-009
  0.13080000000000003          1.1311036551830966E-008
  0.13190000000000002          1.5434009625892031E-008
  0.13300000000000001          1.8531530088239379E-008
  0.13410000000000000          1.4227155453738760E-008
  0.13520000000000004          2.4766813044863056E-009
  0.13630000000000003         -5.7383386931064706E-009
  0.13740000000000002         -2.1385745951896240E-010
  0.13850000000000001          1.3856364944331290E-008
  0.13960000000000000          1.9887799851403543E-008
  0.14070000000000005          1.0054818311289182E-008
  0.14180000000000004         -4.8837183186378752E-009
  0.14290000000000003         -9.4840455489020314E-009
  0.14400000000000002         -2.4254660502265324E-009
  0.14510000000000001          4.7607922049053286E-009
  0.14620000000000000          4.9110586708422943E-009
  0.14730000000000004          1.9019328334479724E-009
  0.14840000000000003          3.4189337472234627E-010
  0.14950000000000002         -2.2160662194181668E-009
  0.15060000000000001         -7.9940791763988273E-009
  0.15170000000000000         -1.1172366143341605E-008
  0.15280000000000005         -3.2218623324808959E-009
  0.15390000000000004          1.0048219145630810E-008
  0.15500000000000003          1.1998046112182692E-008
  0.15610000000000002         -3.4511338231624222E-009
  0.15720000000000001         -2.0561650160288991E-008
  0.15830000000000000         -1.8136978141569671E-008
  0.15940000000000004          9.5715324555101233E-010
  0.16050000000000003          1.4957953098360122E-008
  0.16160000000000002          9.0332870072984406E-009
  0.16270000000000001         -7.4442079167624797E-009
  0.16380000000000000         -1.5086145666032280E-008
  0.16490000000000005         -9.8087573618954593E-009
  0.16600000000000004         -1.7609714797472975E-009
  0.16710000000000003          1.5790893037603837E-009
  0.16820000000000002          3.0654172533672863E-009
  0.16930000000000001          5.0453334843325592E-009
  0.17040000000000000          1.9561325892425430E-009
  0.17150000000000004         -8.3657489824418008E-009
  0.17260000000000003         -1.4595306296882882E-008
  0.17370000000000002         -5.0742792190305863E-009
  0.17480000000000001          1.2375187097291018E-008
  0.17590000000000000          1.6253164147883581E-008
  0.17700000000000005         -4.4483178252008315E-010
  0.17810000000000004         -1.7996081069782122E-008
  0.17920000000000003         -1.4345027388174003E-008
  0.18030000000000002          5.3716684433879891E-009
  0.18140000000000001          1.6229884991503241E-008
  0.18250000000000000          7.0071299873575299E-009
  0.18360000000000004         -7.2854042798553564E-009
  0.18470000000000003         -8.4004536660131635E-009
  0.18580000000000002          3.4997657549773464E-010
  0.18690000000000001          3.3611011751588649E-009
  0.18800000000000000         -2.1851056519750500E-009
  0.18910000000000005         -3.6944118875226195E-009
  0.19020000000000004          3.5236746853684053E-009
  0.19130000000000003          7.4811330463830927E-009
  0.19240000000000002         -9.7009444921525301E-010
  0.19350000000000001         -1.0799699801111728E-008
  0.19460000000000005         -5.6379159119046562E-009
  0.19570000000000004          9.8869525899658584E-009
  0.19680000000000003          1.4154365679530656E-008
  0.19790000000000002          3.8161914600598479E-011
  0.19900000000000001         -1.3512330809817286E-008
  0.20010000000000000         -7.9872606306707894E-009
  0.20120000000000005          7.6293611428468466E-009
  0.20230000000000004          1.0343423006986541E-008
  0.20340000000000003         -2.5967186179087776E-009
  0.20450000000000002         -1.0826937568708672E-008
  0.20560000000000000         -1.7659301798644833E-009
  0.20670000000000005          1.0177522824506013E-008
  0.20780000000000004          6.4043841341288044E-009
  0.20890000000000003         -7.0152985642835120E-009
