 -0.12000000000000000          0.0000000000000000
 -0.11889999999999999          0.0000000000000000
 -0.11780000000000000          0.0000000000000000
 -0.11670000000000000          0.0000000000000000
 -0.11559999999999999          0.0000000000000000
 -0.11449999999999999          0.0000000000000000
 -0.11340000000000000          0.0000000000000000
 -0.11230000000000000          0.0000000000000000
 -0.11119999999999999          0.0000000000000000
 -0.11009999999999999          0.0000000000000000
 -0.10900000000000000          0.0000000000000000
 -0.10790000000000000          1.9595432523687732E-030
 -0.10679999999999999         -4.4594321055506516E-030
 -0.10569999999999999         -3.0723171742922022E-029
 -0.10460000000000000          6.4259019724875773E-029
 -0.10349999999999999          2.9027115380018878E-028
 -0.10239999999999999         -4.6664916625813291E-028
 -0.10130000000000000         -2.0752596189272223E-027
 -0.10020000000000000          2.0507648715225277E-027
  -9.9099999999999994E-002     1.1726661564027289E-026
  -9.7999999999999990E-002    -4.6992286197760233E-027
  -9.6899999999999986E-002    -5.2944307209270877E-026
  -9.5799999999999996E-002    -4.7411345442499563E-027
  -9.4699999999999993E-002     1.9614087170805180E-025
  -9.3599999999999989E-002     9.7820366947070838E-026
  -9.2499999999999999E-002    -6.3135881042923449E-025
  -9.1399999999999995E-002    -5.6938456651229424E-025
  -9.0299999999999991E-002     1.8606528877715550E-024
  -8.9200000000000002E-002     2.6774812786653673E-024
  -8.8099999999999984E-002    -4.7387978981893489E-024
  -8.6999999999999994E-002    -1.1244362600730600E-023
  -8.5899999999999990E-002     7.5621539549416015E-024
  -8.4799999999999986E-002     3.8791184251517501E-023
  -8.3699999999999997E-002     7.0802553940210950E-024
  -8.2599999999999993E-002    -9.9121527633385377E-023
  -8.1499999999999989E-002    -9.3908886232978733E-023
  -8.0399999999999999E-002     1.6725486972658517E-022
  -7.9299999999999995E-002     3.3376230321180429E-022
  -7.8199999999999992E-002    -1.3471343599668113E-022
  -7.7100000000000002E-002    -7.7045936776597472E-022
  -7.5999999999999984E-002    -1.3723522867316821E-022
  -7.4899999999999994E-002     1.5122253021888411E-021
  -7.3799999999999991E-002     9.2446157623323863E-022
  -7.2699999999999987E-002    -3.0605315118389063E-021
  -7.1599999999999997E-002    -3.8644468618703132E-021
  -7.0499999999999993E-002     5.0087151261213965E-021
  -6.9399999999999989E-002     1.3157960388293877E-020
  -6.8300000000000000E-002    -6.3027073221608043E-022
  -6.7199999999999996E-002    -2.9442792739008911E-020
  -6.6099999999999992E-002    -2.4788604476929614E-020
  -6.5000000000000002E-002     3.5229405799957507E-020
  -6.3899999999999985E-002     7.4170926770414508E-020
  -6.2799999999999995E-002    -1.9727591179696979E-021
  -6.1699999999999991E-002    -1.1983165201251109E-019
  -6.0599999999999994E-002    -6.7404518273896851E-020
  -5.9499999999999990E-002     1.5570093048389238E-019
  -5.8399999999999994E-002     1.7527926160725686E-019
  -5.7299999999999990E-002    -2.2764193988157732E-019
  -5.6199999999999986E-002    -4.9464082311569799E-019
  -5.5099999999999996E-002     1.4486428284807952E-019
  -5.3999999999999992E-002     1.1741706786049876E-018
  -5.2899999999999989E-002     7.8316338532814885E-019
  -5.1799999999999985E-002    -1.4747773155910725E-018
  -5.0699999999999995E-002    -2.7673743051219349E-018
  -4.9599999999999991E-002    -1.2247295603066655E-019
  -4.8499999999999988E-002     4.1183478086249255E-018
  -4.7399999999999998E-002     3.5007102432050559E-018
  -4.6299999999999994E-002    -3.0219347959369132E-018
  -4.5199999999999990E-002    -6.4422712077426416E-018
  -4.4099999999999986E-002     6.6796716299550543E-019
  -4.2999999999999997E-002     9.3956228047315582E-018
  -4.1899999999999993E-002     2.9376676321894518E-018
  -4.0799999999999989E-002    -1.5047828166825814E-017
  -3.9699999999999985E-002    -1.5278421306187222E-017
  -3.8599999999999995E-002     1.5953207125767155E-017
  -3.7499999999999992E-002     4.0582483394753952E-017
  -3.6399999999999988E-002     8.1816914152375248E-018
  -3.5299999999999984E-002    -5.9321562031705799E-017
  -3.4199999999999994E-002    -6.6170246926730445E-017
  -3.3099999999999991E-002     3.0270998771178169E-017
  -3.1999999999999987E-002     1.2268932104310659E-016
  -3.0899999999999997E-002     6.5904450634860005E-017
  -2.9799999999999993E-002    -1.0319912601400964E-016
  -2.8699999999999989E-002    -1.6215430659135855E-016
  -2.7599999999999986E-002    -6.7856624177445365E-019
  -2.6499999999999996E-002     1.6912094082428836E-016
  -2.5399999999999992E-002     7.0324897210898485E-017
  -2.4299999999999988E-002    -1.8749859116439128E-016
  -2.3199999999999985E-002    -1.6165999669218666E-016
  -2.2099999999999995E-002     2.7199601717896912E-016
  -2.0999999999999991E-002     5.5431688952893533E-016
  -1.9899999999999987E-002     9.0518334727008416E-017
  -1.8799999999999983E-002    -7.8516142562210997E-016
  -1.7699999999999994E-002    -9.7998090931473037E-016
  -1.6599999999999990E-002    -4.5197774018440522E-017
  -1.5499999999999986E-002     1.0112030731461159E-015
  -1.4399999999999996E-002     8.9487082701638146E-016
  -1.3299999999999992E-002    -1.5437354134721935E-016
  -1.2199999999999989E-002    -5.3300786991662208E-016
  -1.1099999999999985E-002     4.2856325474556890E-016
  -9.9999999999999950E-003     1.1797669706935764E-015
  -8.8999999999999913E-003    -8.5290334879991567E-017
  -7.7999999999999875E-003    -2.5302170094895250E-015
  -6.6999999999999837E-003    -3.1039456707080424E-015
  -5.5999999999999939E-003    -3.7237791822785585E-016
  -4.4999999999999901E-003     3.1984152553153145E-015
  -3.3999999999999864E-003     3.9521744167256290E-015
  -2.2999999999999826E-003     1.4797844524242734E-015
  -1.1999999999999927E-003    -1.1479471192387845E-015
  -9.9999999999988987E-005    -1.6269173576150160E-015
   1.0000000000000148E-003    -1.1446292911843894E-015
   2.1000000000000185E-003    -1.7976470125294873E-015
   3.2000000000000084E-003    -2.7323455404840028E-015
   4.3000000000000121E-003    -1.0027387787833221E-015
   5.4000000000000159E-003     3.7829452806772187E-015
   6.5000000000000058E-003     7.7401082979457018E-015
   7.6000000000000234E-003     6.4928001905874885E-015
   8.7000000000000133E-003    -5.3929396611599226E-016
   9.8000000000000032E-003    -1.0281180881687238E-014
   1.0900000000000021E-002    -1.8461770876160646E-014
   1.2000000000000011E-002    -2.0105423063714566E-014
   1.3100000000000001E-002    -9.9569375165112391E-015
   1.4200000000000018E-002     1.2983941890664253E-014
   1.5300000000000008E-002     3.9886910235212986E-014
   1.6400000000000026E-002     5.4856330388526262E-014
   1.7500000000000016E-002     4.6547570756606121E-014
   1.8600000000000005E-002     1.6299256798304844E-014
   1.9700000000000023E-002    -2.6395364369148806E-014
   2.0800000000000013E-002    -7.2580789577288141E-014
   2.1900000000000003E-002    -1.1172607164520315E-013
   2.3000000000000020E-002    -1.2284598793939339E-013
   2.4100000000000010E-002    -8.0368878056531062E-014
   2.5200000000000000E-002     1.9526238875041020E-014
   2.6300000000000018E-002     1.3883960983934046E-013
   2.7400000000000008E-002     2.1452722139946728E-013
   2.8500000000000025E-002     2.0283355886812487E-013
   2.9600000000000015E-002     1.0857536657943312E-013
   3.0700000000000005E-002    -2.6234001204565073E-014
   3.1800000000000023E-002    -1.4944444878643715E-013
   3.2900000000000013E-002    -2.1353407865694340E-013
   3.4000000000000002E-002    -1.7851307454810894E-013
   3.5100000000000020E-002    -3.1801062569955865E-014
   3.6200000000000010E-002     1.7924197011614379E-013
   3.7300000000000028E-002     3.3985198010823281E-013
   3.8400000000000017E-002     3.1444058511478912E-013
   3.9500000000000007E-002     2.0171662734255746E-014
   4.0600000000000025E-002    -5.0940387975526025E-013
   4.1700000000000015E-002    -1.1304220363592132E-012
   4.2800000000000005E-002    -1.6259289921383147E-012
   4.3900000000000022E-002    -1.7731973658494105E-012
   4.5000000000000012E-002    -1.4486211709352492E-012
   4.6100000000000002E-002    -6.9413469113224768E-013
   4.7200000000000020E-002     2.2983530226575177E-013
   4.8300000000000010E-002     8.7916165233264953E-013
   4.9400000000000027E-002     8.5855590215358490E-013
   5.0500000000000017E-002    -7.0443305323023703E-014
   5.1600000000000007E-002    -1.8020241332114550E-012
   5.2700000000000025E-002    -3.9265426847456819E-012
   5.3800000000000014E-002    -5.8391152156500592E-012
   5.4900000000000004E-002    -6.8323107588197374E-012
   5.6000000000000022E-002    -6.6425792817625950E-012
   5.7100000000000012E-002    -5.5224553228983009E-012
   5.8200000000000002E-002    -4.0640850060280620E-012
   5.9300000000000019E-002    -3.3042115051007404E-012
   6.0400000000000009E-002    -3.9853307286230599E-012
   6.1500000000000027E-002    -7.1340680758702479E-012
   6.2600000000000017E-002    -1.2577266485236382E-011
   6.3700000000000007E-002    -1.9534566672585463E-011
   6.4800000000000024E-002    -2.6550654036450183E-011
   6.5900000000000014E-002    -3.1550324852691602E-011
   6.7000000000000004E-002    -3.3680117722534320E-011
   6.8100000000000022E-002    -3.2137851407876283E-011
   6.9200000000000012E-002    -2.9943571927537604E-011
   7.0300000000000029E-002    -2.9351760605367261E-011
   7.1400000000000019E-002    -3.3416779759987136E-011
   7.2500000000000009E-002    -4.3637805174912003E-011
   7.3600000000000027E-002    -5.8423009485775168E-011
   7.4700000000000016E-002    -7.6461614817446844E-011
   7.5800000000000006E-002    -1.0036020625658892E-010
   7.6900000000000024E-002    -1.1968304125531404E-010
   7.8000000000000014E-002    -1.3157215594805649E-010
   7.9100000000000004E-002    -1.3675108267996450E-010
   8.0200000000000021E-002    -1.3293079137444153E-010
   8.1300000000000011E-002    -1.2786549596910390E-010
   8.2400000000000029E-002    -1.3323354919325681E-010
   8.3500000000000019E-002    -1.6080500819803945E-010
   8.4600000000000009E-002    -1.9953914909276449E-010
   8.5700000000000026E-002    -2.5319105145804599E-010
   8.6800000000000016E-002    -2.8704061350026677E-010
   8.7900000000000006E-002    -3.1456431903720272E-010
   8.9000000000000024E-002    -3.3884817174367754E-010
   9.0100000000000013E-002    -3.4910882518168762E-010
   9.1200000000000003E-002    -3.8993333562054033E-010
   9.2300000000000021E-002    -4.0522546429500039E-010
   9.3400000000000011E-002    -3.7325237345342543E-010
   9.4500000000000028E-002    -3.4395497561234833E-010
   9.5600000000000018E-002    -3.5743358273165882E-010
   9.6700000000000008E-002    -4.1167838582545357E-010
   9.7800000000000026E-002    -4.5828577044382257E-010
   9.8900000000000016E-002    -5.5361309980739293E-010
  0.10000000000000001         -5.7470550540728027E-010
  0.10110000000000002         -6.2947330681240032E-010
  0.10220000000000001         -5.0218523783840396E-010
  0.10330000000000003         -4.4502851404004673E-010
  0.10440000000000002         -3.8146727443510997E-010
  0.10550000000000001         -2.0547148704697094E-010
  0.10660000000000003         -1.8852953920234228E-010
  0.10770000000000002         -2.7657123813362716E-010
  0.10880000000000001         -2.8167909671417135E-010
  0.10990000000000003         -1.8469067941673245E-010
  0.11100000000000002         -1.1472370969878298E-010
  0.11210000000000001         -1.8057697698248276E-011
  0.11320000000000002          8.1206812108103321E-011
  0.11430000000000001          2.2587377801475128E-010
  0.11540000000000003          3.6045169626852669E-010
  0.11650000000000002          1.7899666471254960E-010
  0.11760000000000001          3.2439897990066413E-010
  0.11870000000000003          6.7627831112915260E-010
  0.11980000000000002          8.7263601900033905E-010
  0.12090000000000001          9.5325369819931893E-010
  0.12200000000000003          1.0307289466382485E-009
  0.12310000000000001          1.5096167649275571E-009
  0.12420000000000003          2.0901866903955124E-009
  0.12530000000000002          1.8959116498962203E-009
  0.12640000000000001          1.7695355181146510E-009
  0.12750000000000003          1.7871208957132012E-009
  0.12860000000000002          1.8376867805258712E-009
  0.12970000000000001          2.2716486469676056E-009
  0.13080000000000003          2.4480866223086650E-009
  0.13190000000000002          2.6794022556231312E-009
  0.13300000000000001          3.1937572586571150E-009
  0.13410000000000000          2.5983053486555718E-009
  0.13520000000000004          2.1423942619946956E-009
  0.13630000000000003          1.9846990717553581E-009
  0.13740000000000002          1.5381171891704071E-009
  0.13850000000000001          1.7723481571252364E-009
  0.13960000000000000          1.4607862697246787E-009
  0.14070000000000005          9.2133495277479938E-010
  0.14180000000000004          1.3904103424167147E-009
  0.14290000000000003          1.8632317910771690E-009
  0.14400000000000002          2.0187902460833129E-009
  0.14510000000000001          1.5243784012852757E-009
  0.14620000000000000          4.4819087330338903E-010
  0.14730000000000004         -2.0880354389962719E-010
  0.14840000000000003         -1.1012500911178336E-009
  0.14950000000000002         -1.3930592235311678E-009
  0.15060000000000001         -1.0076129930425282E-009
  0.15170000000000000         -9.9685881771449658E-010
  0.15280000000000005         -1.3248196983894900E-009
  0.15390000000000004         -1.9738335410579566E-009
  0.15500000000000003         -2.7190223406137193E-009
  0.15610000000000002         -3.2014835227300864E-009
  0.15720000000000001         -3.0827067565297739E-009
  0.15830000000000000         -2.8433655430148974E-009
  0.15940000000000004         -2.8352209469062473E-009
  0.16050000000000003         -3.0674849327283482E-009
  0.16160000000000002         -3.3740441551799449E-009
  0.16270000000000001         -3.7315173173624316E-009
  0.16380000000000000         -3.5571876555451354E-009
  0.16490000000000005         -3.0975708664726653E-009
  0.16600000000000004         -3.4284477479218367E-009
  0.16710000000000003         -3.4164990836416109E-009
  0.16820000000000002         -3.7597582824844267E-009
  0.16930000000000001         -3.3236184915352851E-009
  0.17040000000000000         -2.7237279098812905E-009
  0.17150000000000004         -1.7654898654129170E-009
  0.17260000000000003         -3.4327840570114176E-010
  0.17370000000000002         -7.1482758601248975E-010
  0.17480000000000001         -1.8577770433125806E-009
  0.17590000000000000         -2.4997877101640142E-009
  0.17700000000000005         -1.2258254411534608E-009
  0.17810000000000004         -2.7475588471048695E-010
  0.17920000000000003          3.6630432020956505E-010
  0.18030000000000002          1.6403864933067780E-009
  0.18140000000000001          6.5972927121293878E-010
  0.18250000000000000         -1.1730591498171350E-010
  0.18360000000000004         -1.3232308304633733E-010
  0.18470000000000003          1.5394132635293545E-009
  0.18580000000000002          3.0111653170905583E-009
  0.18690000000000001          3.9485930081184506E-009
  0.18800000000000000          3.2787299542036408E-009
  0.18910000000000005          1.3600286452586374E-009
  0.19020000000000004          3.1055491511722266E-010
  0.19130000000000003          1.0091366631215237E-009
  0.19240000000000002          2.5403763537212853E-009
  0.19350000000000001          3.1148414958437343E-009
  0.19460000000000005          2.1999297938890550E-009
  0.19570000000000004          6.6519562080813444E-010
  0.19680000000000003          2.6577531841986968E-010
  0.19790000000000002          1.3858330039084876E-009
  0.19900000000000001          3.2389320114845077E-009
  0.20010000000000000          3.6005121106796878E-009
  0.20120000000000005          2.2637955954252220E-009
  0.20230000000000004          2.0876157746929636E-010
  0.20340000000000003         -1.0302463326894440E-009
  0.20450000000000002         -2.7039817607210637E-010
  0.20560000000000000          1.5901839844900678E-009
  0.20670000000000005          2.6727715596308599E-009
  0.20780000000000004          1.7424826026513074E-009
  0.20890000000000003         -4.0897901731895558E-010
