 -0.12000000000000000          0.0000000000000000
 -0.11889999999999999          0.0000000000000000
 -0.11780000000000000          0.0000000000000000
 -0.11670000000000000          0.0000000000000000
 -0.11559999999999999          0.0000000000000000
 -0.11449999999999999          0.0000000000000000
 -0.11340000000000000          0.0000000000000000
 -0.11230000000000000          4.5173359149350863E-021
 -0.11119999999999999         -2.1335482060380530E-021
 -0.11009999999999999         -5.0255054385278025E-020
 -0.10900000000000000          6.3249586018075158E-021
 -0.10790000000000000          3.2296858596705518E-019
 -0.10679999999999999          1.0674428470403265E-019
 -0.10569999999999999         -1.4623051897125746E-018
 -0.10460000000000000         -1.2596240193508501E-018
 -0.10349999999999999          4.7662473631647413E-018
 -0.10239999999999999          7.2483661593010801E-018
 -0.10130000000000000         -1.0592407567307980E-017
 -0.10020000000000000         -2.7792537354120233E-017
  -9.9099999999999994E-002     1.2570452010731548E-017
  -9.7999999999999990E-002     7.9820421099749910E-017
  -9.6899999999999986E-002     1.2145830423806027E-017
  -9.5799999999999996E-002    -1.8955662976331302E-016
  -9.4699999999999993E-002    -1.2843996007091404E-016
  -9.3599999999999989E-002     3.9215274941445475E-016
  -9.2499999999999999E-002     5.3948978954548562E-016
  -9.1399999999999995E-002    -6.0574248321823045E-016
  -9.0299999999999991E-002    -1.6980240794711200E-015
  -8.9200000000000002E-002     1.2996821926599761E-016
  -8.8099999999999984E-002     3.8443742275944687E-015
  -8.6999999999999994E-002     2.7951627744018026E-015
  -8.5899999999999990E-002    -5.4412829019541593E-015
  -8.4799999999999986E-002    -9.5917443435002310E-015
  -8.3699999999999997E-002     2.5227840836191317E-015
  -8.2599999999999993E-002     1.8417194920278442E-014
  -8.1499999999999989E-002     8.2132617493149013E-015
  -8.0399999999999999E-002    -2.5318143442214572E-014
  -7.9299999999999995E-002    -2.8646844011520622E-014
  -7.8199999999999992E-002     2.6885393257926153E-014
  -7.7100000000000002E-002     6.7104491180327436E-014
  -7.5999999999999984E-002    -4.8576725426147365E-015
  -7.4899999999999994E-002    -1.2584730349832207E-013
  -7.3799999999999991E-002    -8.8559097121548858E-014
  -7.2699999999999987E-002     1.4607454514644486E-013
  -7.1599999999999997E-002     2.6607264568684341E-013
  -7.0499999999999993E-002    -1.4645763781969724E-014
  -6.9399999999999989E-002    -4.1285177316760513E-013
  -6.8300000000000000E-002    -2.8991506461142902E-013
  -6.7199999999999996E-002     3.7689477732326393E-013
  -6.6099999999999992E-002     6.6023000868525861E-013
  -6.5000000000000002E-002    -1.0487686158975121E-013
  -6.3899999999999985E-002    -1.0222506435092482E-012
  -6.2799999999999995E-002    -5.2547143069084368E-013
  -6.1699999999999991E-002     1.1612629260970841E-012
  -6.0599999999999994E-002     1.6429074897392204E-012
  -5.9499999999999990E-002    -4.3080098407859146E-013
  -5.8399999999999994E-002    -2.6582655347773265E-012
  -5.7299999999999990E-002    -1.4798687449080195E-012
  -5.6199999999999986E-002     2.3741737742444258E-012
  -5.5099999999999996E-002     3.6569831364519079E-012
  -5.3999999999999992E-002    -3.4671254040517796E-013
  -5.2899999999999989E-002    -4.7691755059031671E-012
  -5.1799999999999985E-002    -2.8353610691950193E-012
  -5.0699999999999995E-002     3.9462868736683809E-012
  -4.9599999999999991E-002     6.1617889610121601E-012
  -4.8499999999999988E-002    -6.3212271788487540E-013
  -4.7399999999999998E-002    -7.9608732800329207E-012
  -4.6299999999999994E-002    -4.8449404210781921E-012
  -4.5199999999999990E-002     5.9953301004278536E-012
  -4.4099999999999986E-002     1.0003523183421681E-011
  -4.2999999999999997E-002     7.0889637476118095E-013
  -4.1899999999999993E-002    -9.9522569005361383E-012
  -4.0799999999999989E-002    -7.5308839025955976E-012
  -3.9699999999999985E-002     4.1719978166598892E-012
  -3.8599999999999995E-002     8.2177372545677585E-012
  -3.7499999999999992E-002    -6.3615210104880915E-013
  -3.6399999999999988E-002    -8.0504066954367737E-012
  -3.5299999999999984E-002    -1.8636366321683751E-012
  -3.4199999999999994E-002     9.1496107565425255E-012
  -3.3099999999999991E-002     8.9030874686479855E-012
  -3.1999999999999987E-002    -8.5817719033473572E-013
  -3.0899999999999997E-002    -4.3732135968088670E-012
  -2.9799999999999993E-002     6.2832009560531699E-013
  -2.8699999999999989E-002    -1.9716025687066541E-012
  -2.7599999999999986E-002    -1.6757864193528427E-011
  -2.6499999999999996E-002    -2.0912670900541386E-011
  -2.5399999999999992E-002     2.9903564433692020E-012
  -2.4299999999999988E-002     3.0759256253176659E-011
  -2.3199999999999985E-002     2.1633802388398848E-011
  -2.2099999999999995E-002    -1.9669601017402449E-011
  -2.0999999999999991E-002    -3.8397614948726400E-011
  -1.9899999999999987E-002    -5.0543015953086190E-012
  -1.8799999999999983E-002     3.2655288195737597E-011
  -1.7699999999999994E-002     9.1646221861418908E-012
  -1.6599999999999990E-002    -5.9806805341455771E-011
  -1.5499999999999986E-002    -8.4311335690756550E-011
  -1.4399999999999996E-002    -1.9557395633529318E-011
  -1.3299999999999992E-002     6.4514650566227516E-011
  -1.2199999999999989E-002     6.8611151482489419E-011
  -1.1099999999999985E-002    -7.4949898717924235E-012
  -9.9999999999999950E-003    -7.1599240425435084E-011
  -8.8999999999999913E-003    -6.8053028490222545E-011
  -7.7999999999999875E-003    -4.2969405811277284E-011
  -6.6999999999999837E-003    -6.1165600362400596E-011
  -5.5999999999999939E-003    -1.1016619561043939E-010
  -4.4999999999999901E-003    -1.3068611470767877E-010
  -3.3999999999999864E-003    -1.1139559413786415E-010
  -2.2999999999999826E-003    -9.1468797813742952E-011
  -1.1999999999999927E-003    -8.0222654907924351E-011
  -9.9999999999988987E-005    -4.9262319917753317E-011
   1.0000000000000148E-003    -2.1458277862929087E-011
   2.1000000000000185E-003    -9.4967755881469884E-011
   3.2000000000000084E-003    -3.0107516479915830E-010
   4.3000000000000121E-003    -5.0012871621873956E-010
   5.4000000000000159E-003    -5.2299720110227099E-010
   6.5000000000000058E-003    -3.9395386952634226E-010
   7.6000000000000234E-003    -3.2943475725133453E-010
   8.7000000000000133E-003    -4.5083026201098164E-010
   9.8000000000000032E-003    -6.1517696492430218E-010
   1.0900000000000021E-002    -6.1017091379511612E-010
   1.2000000000000011E-002    -4.6508122353294823E-010
   1.3100000000000001E-002    -4.5730808029276204E-010
   1.4200000000000018E-002    -7.4293615703879823E-010
   1.5300000000000008E-002    -1.1673283450974736E-009
   1.6400000000000026E-002    -1.4671850401271058E-009
   1.7500000000000016E-002    -1.5625604143920668E-009
   1.8600000000000005E-002    -1.5613794701607731E-009
   1.9700000000000023E-002    -1.5690978516502696E-009
   2.0800000000000013E-002    -1.5892457350119571E-009
   2.1900000000000003E-002    -1.6021718396430629E-009
   2.3000000000000020E-002    -1.6942148794996115E-009
   2.4100000000000010E-002    -1.8884827035492435E-009
   2.5200000000000000E-002    -2.0942769740628364E-009
   2.6300000000000018E-002    -2.2893749118679807E-009
   2.7400000000000008E-002    -2.5282023141670606E-009
   2.8500000000000025E-002    -2.9830331538249766E-009
   2.9600000000000015E-002    -3.3568772206393760E-009
   3.0700000000000005E-002    -3.4992360120611465E-009
   3.1800000000000023E-002    -3.3547387090493430E-009
   3.2900000000000013E-002    -3.0258162642127218E-009
   3.4000000000000002E-002    -2.7397624169367418E-009
   3.5100000000000020E-002    -2.8314326439016213E-009
   3.6200000000000010E-002    -3.0647453463927832E-009
   3.7300000000000028E-002    -2.9369617848828966E-009
   3.8400000000000017E-002    -2.6757567272994720E-009
   3.9500000000000007E-002    -2.6025916977090446E-009
   4.0600000000000025E-002    -2.7645714606450156E-009
   4.1700000000000015E-002    -2.7246704892291973E-009
   4.2800000000000005E-002    -2.1833881369559549E-009
   4.3900000000000022E-002    -1.4335644893392896E-009
   4.5000000000000012E-002    -1.1169398739241387E-009
   4.6100000000000002E-002    -9.4063112854314568E-010
   4.7200000000000020E-002    -1.6404762270827433E-010
   4.8300000000000010E-002     1.1757361750852624E-009
   4.9400000000000027E-002     2.6592121837865079E-009
   5.0500000000000017E-002     3.4358731415551347E-009
   5.1600000000000007E-002     3.8855656470104805E-009
   5.2700000000000025E-002     3.9734033840943539E-009
   5.3800000000000014E-002     4.6346944060360329E-009
   5.4900000000000004E-002     4.8376134209604515E-009
   5.6000000000000022E-002     6.3459126842246860E-009
   5.7100000000000012E-002     8.7358973388518280E-009
   5.8200000000000002E-002     1.0421297602647428E-008
   5.9300000000000019E-002     1.0706840747332080E-008
   6.0400000000000009E-002     9.7092902606732423E-009
   6.1500000000000027E-002     9.9810586462467654E-009
   6.2600000000000017E-002     1.2825902118152044E-008
   6.3700000000000007E-002     1.6396949575891995E-008
   6.4800000000000024E-002     1.7420378028987216E-008
   6.5900000000000014E-002     1.5288271981717116E-008
   6.7000000000000004E-002     1.2212935551758619E-008
   6.8100000000000022E-002     1.0979351650064473E-008
   6.9200000000000012E-002     1.2340394484056105E-008
   7.0300000000000029E-002     1.5810227793622289E-008
   7.1400000000000019E-002     1.6516155554313627E-008
   7.2500000000000009E-002     1.3477254867666488E-008
   7.3600000000000027E-002     8.4356868157442477E-009
   7.4700000000000016E-002     6.7689369664947208E-009
   7.5800000000000006E-002     8.8481746374213799E-009
   7.6900000000000024E-002     1.1764206497844043E-008
   7.8000000000000014E-002     1.1767797403194891E-008
   7.9100000000000004E-002     7.1084680364208452E-009
   8.0200000000000021E-002     9.5919805431776695E-010
   8.1300000000000011E-002    -3.4484930466760488E-009
   8.2400000000000029E-002    -4.2557632973228010E-009
   8.3500000000000019E-002    -2.0381911713940326E-009
   8.4600000000000009E-002    -1.3002213750112901E-009
   8.5700000000000026E-002    -5.4225863799217677E-009
   8.6800000000000016E-002    -1.2883010214181922E-008
   8.7900000000000006E-002    -1.7668659424430189E-008
   8.9000000000000024E-002    -1.6347682318951229E-008
   9.0100000000000013E-002    -1.1747081529733805E-008
   9.1200000000000003E-002    -9.8653982760765757E-009
   9.2300000000000021E-002    -1.4030581141355469E-008
   9.3400000000000011E-002    -2.1918712178603528E-008
   9.4500000000000028E-002    -2.7189530626969827E-008
   9.5600000000000018E-002    -2.5233653389022948E-008
   9.6700000000000008E-002    -1.8896493259035196E-008
   9.7800000000000026E-002    -1.5008764009394326E-008
   9.8900000000000016E-002    -1.7085666215166384E-008
  0.10000000000000001         -2.1364373381516089E-008
  0.10110000000000002         -2.5492820299177765E-008
  0.10220000000000001         -2.5215685539592414E-008
  0.10330000000000003         -1.7571174737440742E-008
  0.10440000000000002         -8.2407911605741901E-009
  0.10550000000000001         -7.5260730980630797E-009
  0.10660000000000003         -1.3915379959428265E-008
  0.10770000000000002         -1.8903612897247513E-008
  0.10880000000000001         -1.6091107113425096E-008
  0.10990000000000003         -5.5715632107933288E-009
  0.11100000000000002          3.4537530613221179E-009
  0.11210000000000001          4.2815542222740532E-009
  0.11320000000000002          1.4907894918536613E-009
  0.11430000000000001         -3.4525360348425238E-009
  0.11540000000000003         -4.5762575950902828E-009
  0.11650000000000002          9.7723740211108634E-010
  0.11760000000000001          9.8904333611926631E-009
  0.11870000000000003          1.7136761343294893E-008
  0.11980000000000002          1.5121267793460902E-008
  0.12090000000000001          6.4057510407167229E-009
  0.12200000000000003          1.2836037788233057E-009
  0.12310000000000001          6.9016627968210287E-009
  0.12420000000000003          1.6523941326340719E-008
  0.12530000000000002          2.1352553503106719E-008
  0.12640000000000001          1.7100765248301286E-008
  0.12750000000000003          9.8850332364008864E-009
  0.12860000000000002          6.5437220087005699E-009
  0.12970000000000001          6.9787917666985777E-009
  0.13080000000000003          9.5949737044520589E-009
  0.13190000000000002          1.3369811036056944E-008
  0.13300000000000001          1.7590732426242539E-008
  0.13410000000000000          1.6664339241856396E-008
  0.13520000000000004          6.9260930324333003E-009
  0.13630000000000003         -4.0150944791150778E-009
  0.13740000000000002         -3.8264884594241266E-009
  0.13850000000000001          8.9330205454984934E-009
  0.13960000000000000          1.9539733386864100E-008
  0.14070000000000005          1.4371357437426013E-008
  0.14180000000000004         -2.0060573202584919E-009
  0.14290000000000003         -1.1763519935925615E-008
  0.14400000000000002         -6.4171370439680686E-009
  0.14510000000000001          5.1339115181292527E-009
  0.14620000000000000          9.2861700551338799E-009
  0.14730000000000004          4.7645754008840413E-009
  0.14840000000000003         -1.5323219360041662E-009
  0.14950000000000002         -5.8146945036696707E-009
  0.15060000000000001         -9.4163832287108562E-009
  0.15170000000000000         -1.0258756510950207E-008
  0.15280000000000005         -2.1165991181959498E-009
  0.15390000000000004          1.0405774020227909E-008
  0.15500000000000003          1.2373003066556976E-008
  0.15610000000000002         -3.6242830958599370E-009
  0.15720000000000001         -2.2095109741826491E-008
  0.15830000000000000         -1.9892151925660073E-008
  0.15940000000000004          1.6374926969930925E-009
  0.16050000000000003          1.7530778606555941E-008
  0.16160000000000002          9.9679393628093749E-009
  0.16270000000000001         -9.2943075458151725E-009
  0.16380000000000000         -1.7325147538826968E-008
  0.16490000000000005         -8.2685840396834465E-009
  0.16600000000000004          2.7079622988424035E-009
  0.16710000000000003          4.1825427565811424E-009
  0.16820000000000002          1.4234714518224223E-009
  0.16930000000000001          1.0613289136429671E-009
  0.17040000000000000         -9.7930674680668517E-010
  0.17150000000000004         -8.7816385274663844E-009
  0.17260000000000003         -1.3674265275653852E-008
  0.17370000000000002         -3.8511114297534732E-009
  0.17480000000000001          1.3909366103348475E-008
  0.17590000000000000          1.7511117889057459E-008
  0.17700000000000005         -2.7747759645535552E-010
  0.17810000000000004         -1.8599081386128091E-008
  0.17920000000000003         -1.4500624700986009E-008
  0.18030000000000002          5.7998659208635672E-009
  0.18140000000000001          1.5310998691120403E-008
  0.18250000000000000          4.0400940370943772E-009
  0.18360000000000004         -9.5232692842728284E-009
  0.18470000000000003         -7.0219967618356804E-009
  0.18580000000000002          3.9655629890944510E-009
  0.18690000000000001          5.1914765819560671E-009
  0.18800000000000000         -3.2708804553749360E-009
  0.18910000000000005         -4.5827706074419439E-009
  0.19020000000000004          5.5142339583369449E-009
  0.19130000000000003          1.0192972688116697E-008
  0.19240000000000002         -1.5053990276570062E-009
  0.19350000000000001         -1.4701964978769411E-008
  0.19460000000000005         -8.9955163318222731E-009
  0.19570000000000004          9.8042782781249116E-009
  0.19680000000000003          1.6440036887388487E-008
  0.19790000000000002          2.3421193873218726E-009
  0.19900000000000001         -1.1811765787683726E-008
  0.20010000000000000         -7.1446031313371350E-009
  0.20120000000000005          6.0449627525827054E-009
  0.20230000000000004          6.1760716540959493E-009
  0.20340000000000003         -5.7173070722171815E-009
  0.20450000000000002         -8.7264400150388610E-009
  0.20560000000000000          3.8062721863241222E-009
  0.20670000000000005          1.2350666267479937E-008
  0.20780000000000004          1.7173673594328420E-009
  0.20890000000000003         -1.3085656114242283E-008
