 -0.12000000000000000          0.0000000000000000
 -0.11889999999999999          0.0000000000000000
 -0.11780000000000000         -2.8803398555155013E-010
 -0.11670000000000000         -3.7413230846716772E-010
 -0.11559999999999999          3.5014202648397941E-010
 -0.11449999999999999          9.4072993839233732E-010
 -0.11340000000000000          9.4344490553233129E-011
 -0.11230000000000000         -1.0913584480576333E-009
 -0.11119999999999999         -5.3994980708793605E-010
 -0.11009999999999999          4.0800410272545662E-010
 -0.10900000000000000         -1.7057478762794176E-009
 -0.10790000000000000         -5.1608446405282393E-009
 -0.10679999999999999         -2.5409645498797317E-009
 -0.10569999999999999          7.8289552618571179E-009
 -0.10460000000000000          1.4875272569270237E-008
 -0.10349999999999999          7.4609047828744224E-009
 -0.10239999999999999         -7.8668973557682875E-009
 -0.10130000000000000         -1.2319270048521958E-008
 -0.10020000000000000         -5.1224374741920542E-010
  -9.9099999999999994E-002     1.0257091176413269E-008
  -9.7999999999999990E-002     3.9317447075859491E-009
  -9.6899999999999986E-002    -1.0295727825848644E-008
  -9.5799999999999996E-002    -1.0654856552605452E-008
  -9.4699999999999993E-002     4.9942854296602945E-009
  -9.3599999999999989E-002     1.5762218197323818E-008
  -9.2499999999999999E-002     8.8268503617427996E-009
  -9.1399999999999995E-002    -2.6691659993360872E-009
  -9.0299999999999991E-002    -2.5359510047451295E-009
  -8.9200000000000002E-002     1.5045737988828023E-009
  -8.8099999999999984E-002    -9.5546219824882428E-009
  -8.6999999999999994E-002    -3.3973300617162749E-008
  -8.5899999999999990E-002    -5.0856900912776837E-008
  -8.4799999999999986E-002    -5.4565528984085176E-008
  -8.3699999999999997E-002    -6.5483590105941403E-008
  -8.2599999999999993E-002    -9.6673687721704482E-008
  -8.1499999999999989E-002    -1.2998516751849820E-007
  -8.0399999999999999E-002    -1.4490611022210942E-007
  -7.9299999999999995E-002    -1.5748314297070465E-007
  -7.8199999999999992E-002    -2.0287176027977694E-007
  -7.7100000000000002E-002    -2.8166041943222808E-007
  -7.5999999999999984E-002    -3.5502961281963508E-007
  -7.4899999999999994E-002    -4.0535505263505911E-007
  -7.3799999999999991E-002    -4.7338650688288908E-007
  -7.2699999999999987E-002    -6.0896206832694588E-007
  -7.1599999999999997E-002    -8.0216466358251637E-007
  -7.0499999999999993E-002    -9.9894077720819041E-007
  -6.9399999999999989E-002    -1.1834138149424689E-006
  -6.8300000000000000E-002    -1.4076355228098691E-006
  -6.7199999999999996E-002    -1.7256311366509181E-006
  -6.6099999999999992E-002    -2.1305759219103493E-006
  -6.5000000000000002E-002    -2.5860797450150130E-006
  -6.3899999999999985E-002    -3.0978706035966752E-006
  -6.2799999999999995E-002    -3.7149025047256146E-006
  -6.1699999999999991E-002    -4.4657986109086778E-006
  -6.0599999999999994E-002    -5.3391968322102912E-006
  -5.9499999999999990E-002    -6.3407410380023066E-006
  -5.8399999999999994E-002    -7.5280572673364077E-006
  -5.7299999999999990E-002    -8.9556569946580566E-006
  -5.6199999999999986E-002    -1.0613577615004033E-005
  -5.5099999999999996E-002    -1.2469038665585686E-005
  -5.3999999999999992E-002    -1.4561955140379723E-005
  -5.2899999999999989E-002    -1.7006912457873113E-005
  -5.1799999999999985E-002    -1.9883887944160961E-005
  -5.0699999999999995E-002    -2.3173783120000735E-005
  -4.9599999999999991E-002    -2.6839126803679392E-005
  -4.8499999999999988E-002    -3.0936957045923918E-005
  -4.7399999999999998E-002    -3.5597433452494442E-005
  -4.6299999999999994E-002    -4.0901752072386444E-005
  -4.5199999999999990E-002    -4.6839202695991844E-005
  -4.4099999999999986E-002    -5.3402534831548110E-005
  -4.2999999999999997E-002    -6.0669855884043500E-005
  -4.1899999999999993E-002    -6.8749235651921481E-005
  -4.0799999999999989E-002    -7.7678872912656516E-005
  -3.9699999999999985E-002    -8.7439228082075715E-005
  -3.8599999999999995E-002    -9.8054857517126948E-005
  -3.7499999999999992E-002    -1.0961799853248522E-004
  -3.6399999999999988E-002    -1.2218905612826347E-004
  -3.5299999999999984E-002    -1.3572977331932634E-004
  -3.4199999999999994E-002    -1.5017841360531747E-004
  -3.3099999999999991E-002    -1.6555011097807437E-004
  -3.1999999999999987E-002    -1.8190096307080239E-004
  -3.0899999999999997E-002    -1.9919987244065851E-004
  -2.9799999999999993E-002    -2.1730452135670930E-004
  -2.8699999999999989E-002    -2.3608360788784921E-004
  -2.7599999999999986E-002    -2.5549574638716877E-004
  -2.6499999999999996E-002    -2.7549924561753869E-004
  -2.5399999999999992E-002    -2.9592029750347137E-004
  -2.4299999999999988E-002    -3.1648497679270804E-004
  -2.3199999999999985E-002    -3.3696382888592780E-004
  -2.2099999999999995E-002    -3.5721386666409671E-004
  -2.0999999999999991E-002    -3.7705487920902669E-004
  -1.9899999999999987E-002    -3.9616270805709064E-004
  -1.8799999999999983E-002    -4.1414436418563128E-004
  -1.7699999999999994E-002    -4.3067501974292099E-004
  -1.6599999999999990E-002    -4.4549614540301263E-004
  -1.5499999999999986E-002    -4.5828186557628214E-004
  -1.4399999999999996E-002    -4.6860010479576886E-004
  -1.3299999999999992E-002    -4.7602417180314660E-004
  -1.2199999999999989E-002    -4.8021838301792741E-004
  -1.1099999999999985E-002    -4.8088116454891860E-004
  -9.9999999999999950E-003    -4.7762528993189335E-004
  -8.8999999999999913E-003    -4.7001862549223006E-004
  -7.7999999999999875E-003    -4.5772100565955043E-004
  -6.6999999999999837E-003    -4.4053280726075172E-004
  -5.5999999999999939E-003    -4.1826820233836770E-004
  -4.4999999999999901E-003    -3.9066548924893141E-004
  -3.3999999999999864E-003    -3.5747999208979309E-004
  -2.2999999999999826E-003    -3.1863208278082311E-004
  -1.1999999999999927E-003    -2.7419827529229224E-004
  -9.9999999999988987E-005    -2.2426972282119095E-004
   1.0000000000000148E-003    -1.6890653932932764E-004
   2.1000000000000185E-003    -1.0825876961462200E-004
   3.2000000000000084E-003    -4.2664665670599788E-005
   4.3000000000000121E-003     2.7418538593337871E-005
   5.4000000000000159E-003     1.0152892355108634E-004
   6.5000000000000058E-003     1.7919696983881295E-004
   7.6000000000000234E-003     2.5982281658798456E-004
   8.7000000000000133E-003     3.4263008274137974E-004
   9.8000000000000032E-003     4.2678267345763743E-004
   1.0900000000000021E-002     5.1148625789210200E-004
   1.2000000000000011E-002     5.9594062622636557E-004
   1.3100000000000001E-002     6.7923020105808973E-004
   1.4200000000000018E-002     7.6034019002690911E-004
   1.5300000000000008E-002     8.3828094648197293E-004
   1.6400000000000026E-002     9.1215048450976610E-004
   1.7500000000000016E-002     9.8106171935796738E-004
   1.8600000000000005E-002     1.0440803598612547E-003
   1.9700000000000023E-002     1.1002930114045739E-003
   2.0800000000000013E-002     1.1489222524687648E-003
   2.1900000000000003E-002     1.1893241899088025E-003
   2.3000000000000020E-002     1.2208934640511870E-003
   2.4100000000000010E-002     1.2430425267666578E-003
   2.5200000000000000E-002     1.2553043197840452E-003
   2.6300000000000018E-002     1.2574217980727553E-003
   2.7400000000000008E-002     1.2493076501414180E-003
   2.8500000000000025E-002     1.2309415033087134E-003
   2.9600000000000015E-002     1.2023682938888669E-003
   3.0700000000000005E-002     1.1637905845418572E-003
   3.1800000000000023E-002     1.1156055843457580E-003
   3.2900000000000013E-002     1.0583439143374562E-003
   3.4000000000000002E-002     9.9260581191629171E-004
   3.5100000000000020E-002     9.1908377362415195E-004
   3.6200000000000010E-002     8.3860213635489345E-004
   3.7300000000000028E-002     7.5210456270724535E-004
   3.8400000000000017E-002     6.6056934883818030E-004
   3.9500000000000007E-002     5.6498736375942826E-004
   4.0600000000000025E-002     4.6639546053484082E-004
   4.1700000000000015E-002     3.6591105163097382E-004
   4.2800000000000005E-002     2.6467902353033423E-004
   4.3900000000000022E-002     1.6379103180952370E-004
   4.5000000000000012E-002     6.4266401750501245E-005
   4.6100000000000002E-002    -3.2908970752032474E-005
   4.7200000000000020E-002    -1.2677778431680053E-004
   4.8300000000000010E-002    -2.1644395019393414E-004
   4.9400000000000027E-002    -3.0109653016552329E-004
   5.0500000000000017E-002    -3.8002664223313332E-004
   5.1600000000000007E-002    -4.5261724153533578E-004
   5.2700000000000025E-002    -5.1836704369634390E-004
   5.3800000000000014E-002    -5.7690183166414499E-004
   5.4900000000000004E-002    -6.2794593395665288E-004
   5.6000000000000022E-002    -6.7130906973034143E-004
   5.7100000000000012E-002    -7.0690381107851863E-004
   5.8200000000000002E-002    -7.3475716635584831E-004
   5.9300000000000019E-002    -7.5500446837395430E-004
   6.0400000000000009E-002    -7.6787290163338184E-004
   6.1500000000000027E-002    -7.7367003541439772E-004
   6.2600000000000017E-002    -7.7278132084757090E-004
   6.3700000000000007E-002    -7.6564692426472902E-004
   6.4800000000000024E-002    -7.5273343827575445E-004
   6.5900000000000014E-002    -7.3454313678666949E-004
   6.7000000000000004E-002    -7.1163848042488098E-004
   6.8100000000000022E-002    -6.8463664501905441E-004
   6.9200000000000012E-002    -6.5415439894422889E-004
   7.0300000000000029E-002    -6.2075990717858076E-004
   7.1400000000000019E-002    -5.8499420993030071E-004
   7.2500000000000009E-002    -5.4742174688726664E-004
   7.3600000000000027E-002    -5.0862104399129748E-004
   7.4700000000000016E-002    -4.6911922981962562E-004
   7.5800000000000006E-002    -4.2936232057400048E-004
   7.6900000000000024E-002    -3.8976292125880718E-004
   7.8000000000000014E-002    -3.5074565676040947E-004
   7.9100000000000004E-002    -3.1270348699763417E-004
   8.0200000000000021E-002    -2.7592643164098263E-004
   8.1300000000000011E-002    -2.4061613657977432E-004
   8.2400000000000029E-002    -2.0697372383438051E-004
   8.3500000000000019E-002    -1.7523187852930278E-004
   8.4600000000000009E-002    -1.4556811947841197E-004
   8.5700000000000026E-002    -1.1803783854702488E-004
   8.6800000000000016E-002    -9.2629445134662092E-005
   8.7900000000000006E-002    -6.9368506956379861E-005
   8.9000000000000024E-002    -4.8312347644241527E-005
   9.0100000000000013E-002    -2.9450387955876067E-005
   9.1200000000000003E-002    -1.2664654605032410E-005
   9.2300000000000021E-002     2.1728180854552193E-006
   9.3400000000000011E-002     1.5107938452274539E-005
   9.4500000000000028E-002     2.6169762350036763E-005
   9.5600000000000018E-002     3.5490207665134221E-005
   9.6700000000000008E-002     4.3286578147672117E-005
   9.7800000000000026E-002     4.9718044465407729E-005
   9.8900000000000016E-002     5.4828466090839356E-005
  0.10000000000000001          5.8665180404204875E-005
  0.10110000000000002          6.1393358919303864E-005
  0.10220000000000001          6.3233215769287199E-005
  0.10330000000000003          6.4309882873203605E-005
  0.10440000000000002          6.4642728830222040E-005
  0.10550000000000001          6.4290805312339216E-005
  0.10660000000000003          6.3420309743378311E-005
  0.10770000000000002          6.2187944422475994E-005
  0.10880000000000001          6.0625770856859162E-005
  0.10990000000000003          5.8710906159831211E-005
  0.11100000000000002          5.6520661019021645E-005
  0.11210000000000001          5.4226082284003496E-005
  0.11320000000000002          5.1920069381594658E-005
  0.11430000000000001          4.9545295041752979E-005
  0.11540000000000003          4.7038556658662856E-005
  0.11650000000000002          4.4480861106421798E-005
  0.11760000000000001          4.2025207221740857E-005
  0.11870000000000003          3.9709266275167465E-005
  0.11980000000000002          3.7436380807776004E-005
  0.12090000000000001          3.5151464544469491E-005
  0.12200000000000003          3.2942822144832462E-005
  0.12310000000000001          3.0914499802747741E-005
  0.12420000000000003          2.9031700250925496E-005
  0.12530000000000002          2.7183599740965292E-005
  0.12640000000000001          2.5365348847117275E-005
  0.12750000000000003          2.3693419279879890E-005
  0.12860000000000002          2.2225105567486025E-005
  0.12970000000000001          2.0861043594777584E-005
  0.13080000000000003          1.9487000827211887E-005
  0.13190000000000002          1.8143879060517065E-005
  0.13300000000000001          1.6962541849352419E-005
  0.13410000000000000          1.5960744349285960E-005
  0.13520000000000004          1.5011489267635625E-005
  0.13630000000000003          1.4030079000804108E-005
  0.13740000000000002          1.3093301276967395E-005
  0.13850000000000001          1.2309066732996143E-005
  0.13960000000000000          1.1641686796792783E-005
  0.14070000000000005          1.0963039130729157E-005
  0.14180000000000004          1.0248833859805018E-005
  0.14290000000000003          9.6126223070314154E-006
  0.14400000000000002          9.1235388026689179E-006
  0.14510000000000001          8.6892450781306252E-006
  0.14620000000000000          8.1898497228394262E-006
  0.14730000000000004          7.6572241596295498E-006
  0.14840000000000003          7.2248180913447868E-006
  0.14950000000000002          6.9218931457726285E-006
  0.15060000000000001          6.6273623815504834E-006
  0.15170000000000000          6.2508743212674744E-006
  0.15280000000000005          5.8643477132136468E-006
  0.15390000000000004          5.5836230785644148E-006
  0.15500000000000003          5.3876879064773675E-006
  0.15610000000000002          5.1529582378861960E-006
  0.15720000000000001          4.8455885917064734E-006
  0.15830000000000000          4.5716437853116076E-006
  0.15940000000000004          4.4092894313507713E-006
  0.16050000000000003          4.2842743823712226E-006
  0.16160000000000002          4.0827994780556764E-006
  0.16270000000000001          3.8256216612353455E-006
  0.16380000000000000          3.6350152186059859E-006
  0.16490000000000005          3.5461609968479024E-006
  0.16600000000000004          3.4533550206106156E-006
  0.16710000000000003          3.2715652196202427E-006
  0.16820000000000002          3.0639448596048169E-006
  0.16930000000000001          2.9413747597573092E-006
  0.17040000000000000          2.8923670924996259E-006
  0.17150000000000004          2.8041181394655723E-006
  0.17260000000000003          2.6376853838883108E-006
  0.17370000000000002          2.4851785838109208E-006
  0.17480000000000001          2.4243593088613125E-006
  0.17590000000000000          2.3979623620107304E-006
  0.17700000000000005          2.3030086140352068E-006
  0.17810000000000004          2.1491587176569737E-006
  0.17920000000000003          2.0421953195182141E-006
  0.18030000000000002          2.0206455246807309E-006
  0.18140000000000001          1.9986382540082559E-006
  0.18250000000000000          1.8989162526850123E-006
  0.18360000000000004          1.7692229903332191E-006
  0.18470000000000003          1.7055521084330394E-006
  0.18580000000000002          1.7052128669092781E-006
  0.18690000000000001          1.6749046380937216E-006
  0.18800000000000000          1.5754580999782775E-006
  0.18910000000000005          1.4782922335143667E-006
  0.19020000000000004          1.4512662573906709E-006
  0.19130000000000003          1.4547119917551754E-006
  0.19240000000000002          1.4060760804568417E-006
  0.19350000000000001          1.3082446912449086E-006
  0.19460000000000005          1.2428334912328864E-006
  0.19570000000000004          1.2428687341525801E-006
  0.19680000000000003          1.2434353493517847E-006
  0.19790000000000002          1.1832560176117113E-006
  0.19900000000000001          1.0976378916893736E-006
  0.20010000000000000          1.0614835446176585E-006
  0.20120000000000005          1.0744463452283526E-006
  0.20230000000000004          1.0641624612617306E-006
  0.20340000000000003          9.9803310149582103E-007
  0.20450000000000002          9.3009043666825164E-007
  0.20560000000000000          9.1562338866424398E-007
  0.20670000000000005          9.2896249270779663E-007
  0.20780000000000004          9.0774494765355485E-007
  0.20890000000000003          8.4924323573432048E-007
