 -0.12000000000000000          0.0000000000000000
 -0.11889999999999999          0.0000000000000000
 -0.11780000000000000          0.0000000000000000
 -0.11670000000000000          0.0000000000000000
 -0.11559999999999999          0.0000000000000000
 -0.11449999999999999          0.0000000000000000
 -0.11340000000000000          0.0000000000000000
 -0.11230000000000000          4.5173359149350863E-021
 -0.11119999999999999          2.6953102687640040E-021
 -0.11009999999999999         -3.9686141849293848E-020
 -0.10900000000000000         -4.3154348599015303E-020
 -0.10790000000000000          1.2673965702779164E-019
 -0.10679999999999999          1.1275584565515592E-019
 -0.10569999999999999         -2.9436511982467190E-019
 -0.10460000000000000          7.7179926788016565E-019
 -0.10349999999999999          3.4095642454836034E-018
 -0.10239999999999999         -2.6647623433395787E-018
 -0.10130000000000000         -2.4008311783143239E-017
 -0.10020000000000000         -2.3006931896670219E-017
  -9.9099999999999994E-002     5.9794451261735015E-017
  -9.7999999999999990E-002     1.6465781834608704E-016
  -9.6899999999999986E-002     6.5371944843722868E-017
  -9.5799999999999996E-002    -3.2096624764263123E-016
  -9.4699999999999993E-002    -5.9947512762281827E-016
  -9.3599999999999989E-002    -2.6554654949989727E-016
  -9.2499999999999999E-002     5.2617871971894349E-016
  -9.1399999999999995E-002     1.2265286950961709E-015
  -9.0299999999999991E-002     1.9775515165703804E-015
  -8.9200000000000002E-002     2.6896709618101471E-015
  -8.8099999999999984E-002     1.9474014052826431E-016
  -8.6999999999999994E-002    -9.5672566209951092E-015
  -8.5899999999999990E-002    -2.1019371613801956E-014
  -8.4799999999999986E-002    -1.4576932190609945E-014
  -8.3699999999999997E-002     2.3028623550181565E-014
  -8.2599999999999993E-002     6.8656289421015204E-014
  -8.1499999999999989E-002     7.0093941501730983E-014
  -8.0399999999999999E-002     1.8027181987846988E-015
  -7.9299999999999995E-002    -9.8447556259439323E-014
  -7.8199999999999992E-002    -1.7167491657855277E-013
  -7.7100000000000002E-002    -1.9459226710451943E-013
  -7.5999999999999984E-002    -1.4046686177496964E-013
  -7.4899999999999994E-002     9.1882820525256842E-014
  -7.3799999999999991E-002     5.6259554306881121E-013
  -7.2699999999999987E-002     1.0080227668199382E-012
  -7.1599999999999997E-002     8.3523926707254614E-013
  -7.0499999999999993E-002    -2.9889692066895068E-013
  -6.9399999999999989E-002    -1.8545854955920316E-012
  -6.8300000000000000E-002    -2.6645745072190197E-012
  -6.7199999999999996E-002    -2.0365254621568241E-012
  -6.6099999999999992E-002    -3.4666499813991447E-013
  -6.5000000000000002E-002     1.7393214689701009E-012
  -6.3899999999999985E-002     4.1749242951638621E-012
  -6.2799999999999995E-002     6.7709882839439572E-012
  -6.1699999999999991E-002     7.5979630573264068E-012
  -6.0599999999999994E-002     3.6871356662304677E-012
  -5.9499999999999990E-002    -5.3345869388543576E-012
  -5.8399999999999994E-002    -1.5047055615391436E-011
  -5.7299999999999990E-002    -1.9570277690061921E-011
  -5.6199999999999986E-002    -1.7235574079066396E-011
  -5.5099999999999996E-002    -1.0806337595592463E-011
  -5.3999999999999992E-002    -1.1948112855000859E-012
  -5.2899999999999989E-002     1.5830883479117652E-011
  -5.1799999999999985E-002     4.2452263926406886E-011
  -5.0699999999999995E-002     6.8811477349495220E-011
  -4.9599999999999991E-002     7.5453962522509244E-011
  -4.8499999999999988E-002     4.9081003150597269E-011
  -4.7399999999999998E-002    -6.5036591563594204E-012
  -4.6299999999999994E-002    -7.7459164082860354E-011
  -4.5199999999999990E-002    -1.5275578024720460E-010
  -4.4099999999999986E-002    -2.2125673515560607E-010
  -4.2999999999999997E-002    -2.5614363408088536E-010
  -4.1899999999999993E-002    -2.1505915104302886E-010
  -4.0799999999999989E-002    -6.9064164109899906E-011
  -3.9699999999999985E-002     1.6694963467234203E-010
  -3.8599999999999995E-002     4.3755196688088915E-010
  -3.7499999999999992E-002     6.7744559961724349E-010
  -3.6399999999999988E-002     8.2886270069693069E-010
  -3.5299999999999984E-002     8.2946816082341002E-010
  -3.4199999999999994E-002     6.0446758709531423E-010
  -3.3099999999999991E-002     9.7095949336267751E-011
  -3.1999999999999987E-002    -6.8151745358235871E-010
  -3.0899999999999997E-002    -1.6310300887667495E-009
  -2.9799999999999993E-002    -2.5782580514999154E-009
  -2.8699999999999989E-002    -3.2951106287981702E-009
  -2.7599999999999986E-002    -3.5026850309094471E-009
  -2.6499999999999996E-002    -2.8971853804904413E-009
  -2.5399999999999992E-002    -1.2209957489517365E-009
  -2.4299999999999988E-002     1.6695275162348366E-009
  -2.3199999999999985E-002     5.8055054097394532E-009
  -2.2099999999999995E-002     1.1159311696928853E-008
  -2.0999999999999991E-002     1.7666996754428510E-008
  -1.9899999999999987E-002     2.5200618480880621E-008
  -1.8799999999999983E-002     3.3585795478074942E-008
  -1.7699999999999994E-002     4.2738843575307328E-008
  -1.6599999999999990E-002     5.2840025688283276E-008
  -1.5499999999999986E-002     6.4385247355858155E-008
  -1.4399999999999996E-002     7.8097230016282992E-008
  -1.3299999999999992E-002     9.4849141873964982E-008
  -1.2199999999999989E-002     1.1570790547921206E-007
  -1.1099999999999985E-002     1.4199842723883194E-007
  -9.9999999999999950E-003     1.7523106521366572E-007
  -8.8999999999999913E-003     2.1693173835046764E-007
  -7.7999999999999875E-003     2.6858697310672142E-007
  -6.6999999999999837E-003     3.3180498348883702E-007
  -5.5999999999999939E-003     4.0853225868886511E-007
  -4.4999999999999901E-003     5.0113555971620372E-007
  -3.3999999999999864E-003     6.1238233683980070E-007
  -2.2999999999999826E-003     7.4550007411744446E-007
  -1.1999999999999927E-003     9.0435474930927739E-007
  -9.9999999999988987E-005     1.0935973477899097E-006
   1.0000000000000148E-003     1.3186780734031345E-006
   2.1000000000000185E-003     1.5858477127039805E-006
   3.2000000000000084E-003     1.9022518245037645E-006
   4.3000000000000121E-003     2.2760282263334375E-006
   5.4000000000000159E-003     2.7162554943060968E-006
   6.5000000000000058E-003     3.2328564429917606E-006
   7.6000000000000234E-003     3.8367284105333965E-006
   8.7000000000000133E-003     4.5400747694657184E-006
   9.8000000000000032E-003     5.3566286624118220E-006
   1.0900000000000021E-002     6.3015017985890154E-006
   1.2000000000000011E-002     7.3909486673073843E-006
   1.3100000000000001E-002     8.6424161054310389E-006
   1.4200000000000018E-002     1.0074975762108807E-005
   1.5300000000000008E-002     1.1709570571838412E-005
   1.6400000000000026E-002     1.3568751455750316E-005
   1.7500000000000016E-002     1.5676208931836300E-005
   1.8600000000000005E-002     1.8056509361485951E-005
   1.9700000000000023E-002     2.0735027646878734E-005
   2.0800000000000013E-002     2.3737768060527742E-005
   2.1900000000000003E-002     2.7090887670055963E-005
   2.3000000000000020E-002     3.0820152460364625E-005
   2.4100000000000010E-002     3.4950640838360414E-005
   2.5200000000000000E-002     3.9506503526354209E-005
   2.6300000000000018E-002     4.4510343286674470E-005
   2.7400000000000008E-002     4.9982569180428982E-005
   2.8500000000000025E-002     5.5940559832379222E-005
   2.9600000000000015E-002     6.2398146837949753E-005
   3.0700000000000005E-002     6.9364454247988760E-005
   3.1800000000000023E-002     7.6842778071295470E-005
   3.2900000000000013E-002     8.4829509432893246E-005
   3.4000000000000002E-002     9.3312657554633915E-005
   3.5100000000000020E-002     1.0227120947092772E-004
   3.6200000000000010E-002     1.1167446064064279E-004
   3.7300000000000028E-002     1.2148079986218363E-004
   3.8400000000000017E-002     1.3163698895368725E-004
   3.9500000000000007E-002     1.4207691128831357E-004
   4.0600000000000025E-002     1.5272178279701620E-004
   4.1700000000000015E-002     1.6347903874702752E-004
   4.2800000000000005E-002     1.7424250836484134E-004
   4.3900000000000022E-002     1.8489139620214701E-004
   4.5000000000000012E-002     1.9528984557837248E-004
   4.6100000000000002E-002     2.0528829190880060E-004
   4.7200000000000020E-002     2.1472379739861935E-004
   4.8300000000000010E-002     2.2342069132719189E-004
   4.9400000000000027E-002     2.3119268007576466E-004
   5.0500000000000017E-002     2.3784417135175318E-004
   5.1600000000000007E-002     2.4317366478499025E-004
   5.2700000000000025E-002     2.4697568733245134E-004
   5.3800000000000014E-002     2.4904223391786218E-004
   5.4900000000000004E-002     2.4916513939388096E-004
   5.6000000000000022E-002     2.4714446044526994E-004
   5.7100000000000012E-002     2.4278915952891111E-004
   5.8200000000000002E-002     2.3592123761773109E-004
   5.9300000000000019E-002     2.2637892107013613E-004
   6.0400000000000009E-002     2.1402118727564812E-004
   6.1500000000000027E-002     1.9873325072694570E-004
   6.2600000000000017E-002     1.8043088493868709E-004
   6.3700000000000007E-002     1.5906403132248670E-004
   6.4800000000000024E-002     1.3461992784868926E-004
   6.5900000000000014E-002     1.0712705989135429E-004
   6.7000000000000004E-002     7.6657466706819832E-005
   6.8100000000000022E-002     4.3326585000613704E-005
   6.9200000000000012E-002     7.2977304625965189E-006
   7.0300000000000029E-002    -3.1216241040965542E-005
   7.1400000000000019E-002    -7.1953028964344412E-005
   7.2500000000000009E-002    -1.1460471432656050E-004
   7.3600000000000027E-002    -1.5881775470916182E-004
   7.4700000000000016E-002    -2.0419798966031522E-004
   7.5800000000000006E-002    -2.5031689438037574E-004
   7.6900000000000024E-002    -2.9670953517779708E-004
   7.8000000000000014E-002    -3.4288008464500308E-004
   7.9100000000000004E-002    -3.8830903940834105E-004
   8.0200000000000021E-002    -4.3246269342489541E-004
   8.1300000000000011E-002    -4.7480786452069879E-004
   8.2400000000000029E-002    -5.1481433911249042E-004
   8.3500000000000019E-002    -5.5195734603330493E-004
   8.4600000000000009E-002    -5.8572721900418401E-004
   8.5700000000000026E-002    -6.1564077623188496E-004
   8.6800000000000016E-002    -6.4125383505597711E-004
   8.7900000000000006E-002    -6.6216761479154229E-004
   8.9000000000000024E-002    -6.7803851561620831E-004
   9.0100000000000013E-002    -6.8857986479997635E-004
   9.1200000000000003E-002    -6.9356465246528387E-004
   9.2300000000000021E-002    -6.9283111952245235E-004
   9.3400000000000011E-002    -6.8629032466560602E-004
   9.4500000000000028E-002    -6.7393376957625151E-004
   9.5600000000000018E-002    -6.5583339892327785E-004
   9.6700000000000008E-002    -6.3213758403435349E-004
   9.7800000000000026E-002    -6.0306454543024302E-004
   9.8900000000000016E-002    -5.6889734696596861E-004
  0.10000000000000001         -5.2998581668362021E-004
  0.10110000000000002         -4.8675326979719102E-004
  0.10220000000000001         -4.3968023965135217E-004
  0.10330000000000003         -3.8929222500883043E-004
  0.10440000000000002         -3.3615232678130269E-004
  0.10550000000000001         -2.8085432131774724E-004
  0.10660000000000003         -2.2400433954317123E-004
  0.10770000000000002         -1.6622625116724521E-004
  0.10880000000000001         -1.0815280984388664E-004
  0.10990000000000003         -5.0414153520250693E-005
  0.11100000000000002          6.3824545577517711E-006
  0.11210000000000001          6.1666207329835743E-005
  0.11320000000000002          1.1490275937831029E-004
  0.11430000000000001          1.6559103096369654E-004
  0.11540000000000003          2.1326946443878114E-004
  0.11650000000000002          2.5753051158972085E-004
  0.11760000000000001          2.9802473727613688E-004
  0.11870000000000003          3.3447871101088822E-004
  0.11980000000000002          3.6667913082055748E-004
  0.12090000000000001          3.9447195013053715E-004
  0.12200000000000003          4.1776077705435455E-004
  0.12310000000000001          4.3650862062349916E-004
  0.12420000000000003          4.5073582441546023E-004
  0.12530000000000002          4.6053016558289528E-004
  0.12640000000000001          4.6603693044744432E-004
  0.12750000000000003          4.6744759310968220E-004
  0.12860000000000002          4.6498246956616640E-004
  0.12970000000000001          4.5889019384048879E-004
  0.13080000000000003          4.4945240369997919E-004
  0.13190000000000002          4.3699060915969312E-004
  0.13300000000000001          4.2184983612969518E-004
  0.13410000000000000          4.0437659481540322E-004
  0.13520000000000004          3.8491061422973871E-004
  0.13630000000000003          3.6379217635840178E-004
  0.13740000000000002          3.4136409522034228E-004
  0.13850000000000001          3.1796432449482381E-004
  0.13960000000000000          2.9391277348622680E-004
  0.14070000000000005          2.6951014297083020E-004
  0.14180000000000004          2.4503903114236891E-004
  0.14290000000000003          2.2075945162214339E-004
  0.14400000000000002          1.9689944747369736E-004
  0.14510000000000001          1.7365721578244120E-004
  0.14620000000000000          1.5121139585971832E-004
  0.14730000000000004          1.2972531840205193E-004
  0.14840000000000003          1.0933393787126988E-004
  0.14950000000000002          9.0132212790194899E-005
  0.15060000000000001          7.2182396252173930E-005
  0.15170000000000000          5.5533524573547766E-005
  0.15280000000000005          4.0227016143035144E-005
  0.15390000000000004          2.6280624297214672E-005
  0.15500000000000003          1.3680554729944561E-005
  0.15610000000000002          2.3939774109749123E-006
  0.15720000000000001         -7.6133660513733048E-006
  0.15830000000000000         -1.6378298823838122E-005
  0.15940000000000004         -2.3958893507369794E-005
  0.16050000000000003         -3.0434253858402371E-005
  0.16160000000000002         -3.5883502278011292E-005
  0.16270000000000001         -4.0370799979427829E-005
  0.16380000000000000         -4.3960855691693723E-005
  0.16490000000000005         -4.6735847718082368E-005
  0.16600000000000004         -4.8789977881824598E-005
  0.16710000000000003         -5.0206181185785681E-005
  0.16820000000000002         -5.1048631576122716E-005
  0.16930000000000001         -5.1380728109506890E-005
  0.17040000000000000         -5.1277693273732439E-005
  0.17150000000000004         -5.0813589041354135E-005
  0.17260000000000003         -5.0043494411511347E-005
  0.17370000000000002         -4.9010399379767478E-005
  0.17480000000000001         -4.7765635827090591E-005
  0.17590000000000000         -4.6370914787985384E-005
  0.17700000000000005         -4.4872977014165372E-005
  0.17810000000000004         -4.3292289774399251E-005
  0.17920000000000003         -4.1642761061666533E-005
  0.18030000000000002         -3.9958191337063909E-005
  0.18140000000000001         -3.8283658795990050E-005
  0.18250000000000000         -3.6644472857005894E-005
  0.18360000000000004         -3.5038465284742415E-005
  0.18470000000000003         -3.3462438295828179E-005
  0.18580000000000002         -3.1934567232383415E-005
  0.18690000000000001         -3.0479019187623635E-005
  0.18800000000000000         -2.9100137908244506E-005
  0.18910000000000005         -2.7784342819359154E-005
  0.19020000000000004         -2.6527455702307634E-005
  0.19130000000000003         -2.5343861125293188E-005
  0.19240000000000002         -2.4242212020908482E-005
  0.19350000000000001         -2.3207436242955737E-005
  0.19460000000000005         -2.2218086087377742E-005
  0.19570000000000004         -2.1274467144394293E-005
  0.19680000000000003         -2.0393261365825310E-005
  0.19790000000000002         -1.9575367332436144E-005
  0.19900000000000001         -1.8796315998770297E-005
  0.20010000000000000         -1.8034525055554695E-005
  0.20120000000000005         -1.7295706129516475E-005
  0.20230000000000004         -1.6595173292444088E-005
  0.20340000000000003         -1.5925477782730013E-005
  0.20450000000000002         -1.5259831343428232E-005
  0.20560000000000000         -1.4585602002625819E-005
  0.20670000000000005         -1.3917389878770337E-005
  0.20780000000000004         -1.3268868315208238E-005
  0.20890000000000003         -1.2625999261217657E-005
