 -0.12000000000000000          0.0000000000000000
 -0.11889999999999999          0.0000000000000000
 -0.11780000000000000          0.0000000000000000
 -0.11670000000000000          1.2546758770826116E-011
 -0.11559999999999999          1.8168352239333885E-011
 -0.11449999999999999         -2.8160897225237846E-011
 -0.11340000000000000         -7.4961509222148948E-011
 -0.11230000000000000         -7.1864272345456559E-012
 -0.11119999999999999          9.8632796374786835E-011
 -0.11009999999999999          3.4899860779091796E-011
 -0.10900000000000000         -4.0868652212422418E-011
 -0.10790000000000000          3.0829422348332969E-010
 -0.10679999999999999          7.4258371673963097E-010
 -0.10569999999999999         -4.0188973676746897E-011
 -0.10460000000000000         -2.2186259496237426E-009
 -0.10349999999999999         -3.2006586270227899E-009
 -0.10239999999999999         -2.7629024068609453E-010
 -0.10130000000000000          4.7190189533807825E-009
 -0.10020000000000000          6.1720100141826606E-009
  -9.9099999999999994E-002     1.9703489950728681E-009
  -9.7999999999999990E-002    -2.6980151446309719E-009
  -9.6899999999999986E-002    -2.4106310281268861E-009
  -9.5799999999999996E-002    -3.5083366767274526E-010
  -9.4699999999999993E-002    -4.1651695426025981E-009
  -9.3599999999999989E-002    -1.2471414123638169E-008
  -9.2499999999999999E-002    -1.2972210861050826E-008
  -9.1399999999999995E-002     9.2078311642040944E-010
  -9.0299999999999991E-002     1.7741401237003629E-008
  -8.9200000000000002E-002     2.1626496149451668E-008
  -8.8099999999999984E-002     1.6275816250299613E-008
  -8.6999999999999994E-002     2.3412763283658933E-008
  -8.5899999999999990E-002     5.3338812477932152E-008
  -8.4799999999999986E-002     8.8167361411706224E-008
  -8.3699999999999997E-002     1.0448663800843860E-007
  -8.2599999999999993E-002     1.0566871821993118E-007
  -8.1499999999999989E-002     1.1758081797097475E-007
  -8.0399999999999999E-002     1.5362536487373291E-007
  -7.9299999999999995E-002     2.0025744618124008E-007
  -7.8199999999999992E-002     2.4293811407005705E-007
  -7.7100000000000002E-002     2.9085035180287377E-007
  -7.5999999999999984E-002     3.6206083109391329E-007
  -7.4899999999999994E-002     4.5507738377636997E-007
  -7.3799999999999991E-002     5.5578078672624542E-007
  -7.2699999999999987E-002     6.7041474949292024E-007
  -7.1599999999999997E-002     8.2784498545152019E-007
  -7.0499999999999993E-002     1.0399909342595492E-006
  -6.9399999999999989E-002     1.2819212997783325E-006
  -6.8300000000000000E-002     1.5320100601456943E-006
  -6.7199999999999996E-002     1.8184398413723102E-006
  -6.6099999999999992E-002     2.1972257400193485E-006
  -6.5000000000000002E-002     2.6851050733966986E-006
  -6.3899999999999985E-002     3.2458531222800957E-006
  -6.2799999999999995E-002     3.8575440157728735E-006
  -6.1699999999999991E-002     4.5664896788366605E-006
  -6.0599999999999994E-002     5.4460442697745748E-006
  -5.9499999999999990E-002     6.5167319007741753E-006
  -5.8399999999999994E-002     7.7443910413421690E-006
  -5.7299999999999990E-002     9.1200699898763560E-006
  -5.6199999999999986E-002     1.0704552551032975E-005
  -5.5099999999999996E-002     1.2574166248668917E-005
  -5.3999999999999992E-002     1.4752457900613081E-005
  -5.2899999999999989E-002     1.7229807781404816E-005
  -5.1799999999999985E-002     2.0034749468322843E-005
  -5.0699999999999995E-002     2.3242837414727546E-005
  -4.9599999999999991E-002     2.6911920940619893E-005
  -4.8499999999999988E-002     3.1053063139552251E-005
  -4.7399999999999998E-002     3.5688706702785566E-005
  -4.6299999999999994E-002     4.0903109038481489E-005
  -4.5199999999999990E-002     4.6792076318524778E-005
  -4.4099999999999986E-002     5.3380237659439445E-005
  -4.2999999999999997E-002     6.0640541050815955E-005
  -4.1899999999999993E-002     6.8603141698986292E-005
  -4.0799999999999989E-002     7.7392498496919870E-005
  -3.9699999999999985E-002     8.7124040874186903E-005
  -3.8599999999999995E-002     9.7799173090606928E-005
  -3.7499999999999992E-002     1.0935118916677311E-004
  -3.6399999999999988E-002     1.2177714233985171E-004
  -3.5299999999999984E-002     1.3516766193788499E-004
  -3.4199999999999994E-002     1.4959411055315286E-004
  -3.3099999999999991E-002     1.6501896607223898E-004
  -3.1999999999999987E-002     1.8135108985006809E-004
  -3.0899999999999997E-002     1.9854717538692057E-004
  -2.9799999999999993E-002     2.1659937920048833E-004
  -2.8699999999999989E-002     2.3543859424535185E-004
  -2.7599999999999986E-002     2.5491439737379551E-004
  -2.6499999999999996E-002     2.7488201158121228E-004
  -2.5399999999999992E-002     2.9525154968723655E-004
  -2.4299999999999988E-002     3.1590228900313377E-004
  -2.3199999999999985E-002     3.3658888423815370E-004
  -2.2099999999999995E-002     3.5699235741049051E-004
  -2.0999999999999991E-002     3.7685257848352194E-004
  -1.9899999999999987E-002     3.9598598959855735E-004
  -1.8799999999999983E-002     4.1415353189222515E-004
  -1.7699999999999994E-002     4.3097234447486699E-004
  -1.6599999999999990E-002     4.4600636465474963E-004
  -1.5499999999999986E-002     4.5889674220234156E-004
  -1.4399999999999996E-002     4.6935354475863278E-004
  -1.3299999999999992E-002     4.7703093150630593E-004
  -1.2199999999999989E-002     4.8148509813472629E-004
  -1.1099999999999985E-002     4.8228251398541033E-004
  -9.9999999999999950E-003     4.7909794375300407E-004
  -8.8999999999999913E-003     4.7165161231532693E-004
  -7.7999999999999875E-003     4.5959799899719656E-004
  -6.6999999999999837E-003     4.4255831744521856E-004
  -5.5999999999999939E-003     4.2025421862490475E-004
  -4.4999999999999901E-003     3.9255287265405059E-004
  -3.3999999999999864E-003     3.5936853964813054E-004
  -2.2999999999999826E-003     3.2056943746283650E-004
  -1.1999999999999927E-003     2.7605186915025115E-004
  -9.9999999999988987E-005     2.2586942941416055E-004
   1.0000000000000148E-003     1.7022846441250294E-004
   2.1000000000000185E-003     1.0937250044662505E-004
   3.2000000000000084E-003     4.3546402594074607E-005
   4.3000000000000121E-003    -2.6912097382592037E-005
   5.4000000000000159E-003    -1.0149245645152405E-004
   6.5000000000000058E-003    -1.7956660303752869E-004
   7.6000000000000234E-003    -2.6050428277812898E-004
   8.7000000000000133E-003    -3.4367316402494907E-004
   9.8000000000000032E-003    -4.2832162580452859E-004
   1.0900000000000021E-002    -5.1354471361264586E-004
   1.2000000000000011E-002    -5.9838854940608144E-004
   1.3100000000000001E-002    -6.8194558843970299E-004
   1.4200000000000018E-002    -7.6333485776558518E-004
   1.5300000000000008E-002    -8.4160518599674106E-004
   1.6400000000000026E-002    -9.1573828831315041E-004
   1.7500000000000016E-002    -9.8476046696305275E-004
   1.8600000000000005E-002    -1.0478028561919928E-003
   1.9700000000000023E-002    -1.1040521785616875E-003
   2.0800000000000013E-002    -1.1526880552992225E-003
   2.1900000000000003E-002    -1.1929393513128161E-003
   2.3000000000000020E-002    -1.2241873191669583E-003
   2.4100000000000010E-002    -1.2459788704290986E-003
   2.5200000000000000E-002    -1.2579400790855289E-003
   2.6300000000000018E-002    -1.2597414897754788E-003
   2.7400000000000008E-002    -1.2511702952906489E-003
   2.8500000000000025E-002    -1.2322153197601438E-003
   2.9600000000000015E-002    -1.2030486250296235E-003
   3.0700000000000005E-002    -1.1639413423836231E-003
   3.1800000000000023E-002    -1.1152415536344051E-003
   3.2900000000000013E-002    -1.0574263287708163E-003
   3.4000000000000002E-002    -9.9113688338547945E-004
   3.5100000000000020E-002    -9.1713038273155689E-004
   3.6200000000000010E-002    -8.3622743841260672E-004
   3.7300000000000028E-002    -7.4931175913661718E-004
   3.8400000000000017E-002    -6.5737223485484719E-004
   3.9500000000000007E-002    -5.6148954899981618E-004
   4.0600000000000025E-002    -4.6275366912595928E-004
   4.1700000000000015E-002    -3.6222362541593611E-004
   4.2800000000000005E-002    -2.6095571229234338E-004
   4.3900000000000022E-002    -1.6003925702534616E-004
   4.5000000000000012E-002    -6.0567101172637194E-005
   4.6100000000000002E-002     3.6434830690268427E-005
   4.7200000000000020E-002     1.3003035564906895E-004
   4.8300000000000010E-002     2.1937425481155515E-004
   4.9400000000000027E-002     3.0367521685548127E-004
   5.0500000000000017E-002     3.8222715375013649E-004
   5.1600000000000007E-002     4.5443113776855171E-004
   5.2700000000000025E-002     5.1978568080812693E-004
   5.3800000000000014E-002     5.7789648417383432E-004
   5.4900000000000004E-002     6.2848196830600500E-004
   5.6000000000000022E-002     6.7138846497982740E-004
   5.7100000000000012E-002     7.0656847674399614E-004
   5.8200000000000002E-002     7.3405826697126031E-004
   5.9300000000000019E-002     7.5398391345515847E-004
   6.0400000000000009E-002     7.6657522004097700E-004
   6.1500000000000027E-002     7.7213853364810348E-004
   6.2600000000000017E-002     7.7104009687900543E-004
   6.3700000000000007E-002     7.6370890019461513E-004
   6.4800000000000024E-002     7.5064372504130006E-004
   6.5900000000000014E-002     7.3240086203441024E-004
   6.7000000000000004E-002     7.0954061811789870E-004
   6.8100000000000022E-002     6.8260979605838656E-004
   6.9200000000000012E-002     6.5217021619901061E-004
   7.0300000000000029E-002     6.1882461886852980E-004
   7.1400000000000019E-002     5.8318185620009899E-004
   7.2500000000000009E-002     5.4580182768404484E-004
   7.3600000000000027E-002     5.0719152204692364E-004
   7.4700000000000016E-002     4.6785280574113131E-004
   7.5800000000000006E-002     4.2828707955777645E-004
   7.6900000000000024E-002     3.8893902092240751E-004
   7.8000000000000014E-002     3.5016229958273470E-004
   7.9100000000000004E-002     3.1226998544298112E-004
   8.0200000000000021E-002     2.7559351292438805E-004
   8.1300000000000011E-002     2.4045343161560595E-004
   8.2400000000000029E-002     2.0706585200969130E-004
   8.3500000000000019E-002     1.7553307407069951E-004
   8.4600000000000009E-002     1.4593897503800690E-004
   8.5700000000000026E-002     1.1841784726129845E-004
   8.6800000000000016E-002     9.3093913164921105E-005
   8.7900000000000006E-002     6.9981593696866184E-005
   8.9000000000000024E-002     4.9003134336089715E-005
   9.0100000000000013E-002     3.0102128221187741E-005
   9.1200000000000003E-002     1.3281844076118432E-005
   9.2300000000000021E-002    -1.4907993772794725E-006
   9.3400000000000011E-002    -1.4355669918586500E-005
   9.4500000000000028E-002    -2.5482626369921491E-005
   9.5600000000000018E-002    -3.4961107303388417E-005
   9.6700000000000008E-002    -4.2825082346098498E-005
   9.7800000000000026E-002    -4.9182403017766774E-005
   9.8900000000000016E-002    -5.4244286729954183E-005
  0.10000000000000001         -5.8196827012579888E-005
  0.10110000000000002         -6.1107733927201480E-005
  0.10220000000000001         -6.3007988501340151E-005
  0.10330000000000003         -6.4025283791124821E-005
  0.10440000000000002         -6.4360843680333346E-005
  0.10550000000000001         -6.4143037889152765E-005
  0.10660000000000003         -6.3384904933627695E-005
  0.10770000000000002         -6.2115315813571215E-005
  0.10880000000000001         -6.0478159866761416E-005
  0.10990000000000003         -5.8637218899093568E-005
  0.11100000000000002         -5.6629211030667648E-005
  0.11210000000000001         -5.4395663028117269E-005
  0.11320000000000002         -5.1956587412860245E-005
  0.11430000000000001         -4.9463051254861057E-005
  0.11540000000000003         -4.7042318328749388E-005
  0.11650000000000002         -4.4664840970654041E-005
  0.11760000000000001         -4.2236399167450145E-005
  0.11870000000000003         -3.9777187339495867E-005
  0.11980000000000002         -3.7417619751067832E-005
  0.12090000000000001         -3.5223016311647370E-005
  0.12200000000000003         -3.3118711144197732E-005
  0.12310000000000001         -3.1030711397761479E-005
  0.12420000000000003         -2.9016362532274798E-005
  0.12530000000000002         -2.7180138204130344E-005
  0.12640000000000001         -2.5507461032248102E-005
  0.12750000000000003         -2.3880882508819923E-005
  0.12860000000000002         -2.2263026039581746E-005
  0.12970000000000001         -2.0759845938300714E-005
  0.13080000000000003         -1.9459830582491122E-005
  0.13190000000000002         -1.8291037122253329E-005
  0.13300000000000001         -1.7120109987445176E-005
  0.13410000000000000         -1.5946458006510511E-005
  0.13520000000000004         -1.4895753338350914E-005
  0.13630000000000003         -1.4022635696164798E-005
  0.13740000000000002         -1.3222758752817754E-005
  0.13850000000000001         -1.2387648894218728E-005
  0.13960000000000000         -1.1563591215235647E-005
  0.14070000000000005         -1.0870567166421097E-005
  0.14180000000000004         -1.0308305718353949E-005
  0.14290000000000003         -9.7500314950593747E-006
  0.14400000000000002         -9.1330966824898496E-006
  0.14510000000000001         -8.5518122432404198E-006
  0.14620000000000000         -8.1083853729069233E-006
  0.14730000000000004         -7.7521890489151701E-006
  0.14840000000000003         -7.3536284617148340E-006
  0.14950000000000002         -6.8977997216279618E-006
  0.15060000000000001         -6.4988730628101621E-006
  0.15170000000000000         -6.2181638895708602E-006
  0.15280000000000005         -5.9680478443624452E-006
  0.15390000000000004         -5.6497065088478848E-006
  0.15500000000000003         -5.3058879529999103E-006
  0.15610000000000002         -5.0508597269072197E-006
  0.15720000000000001         -4.8872389015741646E-006
  0.15830000000000000         -4.6963414206402376E-006
  0.15940000000000004         -4.4202047320140991E-006
  0.16050000000000003         -4.1529428926878609E-006
  0.16160000000000002         -3.9983478927752003E-006
  0.16270000000000001         -3.9098722481867298E-006
  0.16380000000000000         -3.7583699850074481E-006
  0.16490000000000005         -3.5240946090198122E-006
  0.16600000000000004         -3.3218593671335839E-006
  0.16710000000000003         -3.2254386042041006E-006
  0.16820000000000002         -3.1601866794517264E-006
  0.16930000000000001         -3.0224334750528214E-006
  0.17040000000000000         -2.8357223982311552E-006
  0.17150000000000004         -2.7062676508649020E-006
  0.17260000000000003         -2.6549175800028024E-006
  0.17370000000000002         -2.5880169687297894E-006
  0.17480000000000001         -2.4470566586387577E-006
  0.17590000000000000         -2.3002214675216237E-006
  0.17700000000000005         -2.2339143015415175E-006
  0.17810000000000004         -2.2160882053867681E-006
  0.17920000000000003         -2.1447319795697695E-006
  0.18030000000000002         -2.0053339540027082E-006
  0.18140000000000001         -1.8928186591438134E-006
  0.18250000000000000         -1.8657732425708673E-006
  0.18360000000000004         -1.8579854668132612E-006
  0.18470000000000003         -1.7811181578508695E-006
  0.18580000000000002         -1.6579867860855302E-006
  0.18690000000000001         -1.5839221987334895E-006
  0.18800000000000000         -1.5800294477230636E-006
  0.18910000000000005         -1.5643662436559680E-006
  0.19020000000000004         -1.4803476915403735E-006
  0.19130000000000003         -1.3811910548611195E-006
  0.19240000000000002         -1.3441425608107238E-006
  0.19350000000000001         -1.3516420267478679E-006
  0.19460000000000005         -1.3215570788815967E-006
  0.19570000000000004         -1.2347207984930719E-006
  0.19680000000000003         -1.1615427411015844E-006
  0.19790000000000002         -1.1516285667312331E-006
  0.19900000000000001         -1.1594967190831085E-006
  0.20010000000000000         -1.1175840199939557E-006
  0.20120000000000005         -1.0390161833129241E-006
  0.20230000000000004         -9.9309852430451429E-007
  0.20340000000000003         -9.9742555903503671E-007
  0.20450000000000002         -9.9464443792385282E-007
  0.20560000000000000         -9.4455793941961019E-007
  0.20670000000000005         -8.8443232471036026E-007
  0.20780000000000004         -8.6711332869526814E-007
  0.20890000000000003         -8.7795973513493664E-007
