 -0.12000000000000000          0.0000000000000000
 -0.11889999999999999          0.0000000000000000
 -0.11780000000000000          0.0000000000000000
 -0.11670000000000000          1.2546758770826116E-011
 -0.11559999999999999          1.3697683612368117E-011
 -0.11449999999999999         -3.8519892137101053E-011
 -0.11340000000000000         -6.0436974869126914E-011
 -0.11230000000000000          8.1728186718255103E-011
 -0.11119999999999999          2.1664806060250896E-010
 -0.11009999999999999         -3.4040447544070318E-011
 -0.10900000000000000         -4.8208020908546700E-010
 -0.10790000000000000         -2.7206761843423521E-010
 -0.10679999999999999          7.1667305423517291E-010
 -0.10569999999999999          1.0246075099473728E-009
 -0.10460000000000000         -4.2161263369422386E-010
 -0.10349999999999999         -1.8818466784864540E-009
 -0.10239999999999999         -6.0493432485486665E-010
 -0.10130000000000000          2.4258617337125088E-009
 -0.10020000000000000          2.5024653460548052E-009
  -9.9099999999999994E-002    -1.8537313906108466E-009
  -9.7999999999999990E-002    -4.8300949906376900E-009
  -9.6899999999999986E-002    -6.5602145937759815E-010
  -9.5799999999999996E-002     6.4043992331619393E-009
  -9.4699999999999993E-002     5.8166009786475570E-009
  -9.3599999999999989E-002    -3.7803435937178165E-009
  -9.2499999999999999E-002    -9.8755306154885147E-009
  -9.1399999999999995E-002    -2.5647002299677979E-009
  -9.0299999999999991E-002     9.5434877778188820E-009
  -8.9200000000000002E-002     9.3253857968988996E-009
  -8.8099999999999984E-002    -4.2170698044685651E-009
  -8.6999999999999994E-002    -1.2694460593820622E-008
  -8.5899999999999990E-002    -3.9121923478546705E-009
  -8.4799999999999986E-002     9.9854222668227521E-009
  -8.3699999999999997E-002     9.7387991004893593E-009
  -8.2599999999999993E-002    -2.9503852694290345E-009
  -8.1499999999999989E-002    -8.7991134378739844E-009
  -8.0399999999999999E-002    -8.1167350618471801E-010
  -7.9299999999999995E-002     5.8461679941501643E-009
  -7.8199999999999992E-002    -3.1162764035919110E-010
  -7.7100000000000002E-002    -7.3375208131665204E-009
  -7.5999999999999984E-002     2.7811518279324821E-012
  -7.4899999999999994E-002     1.1606877237113622E-008
  -7.3799999999999991E-002     4.7743693443180746E-009
  -7.2699999999999987E-002    -1.6708007422039373E-008
  -7.1599999999999997E-002    -2.0920555954262454E-008
  -7.0499999999999993E-002     5.0185278155367996E-009
  -6.9399999999999989E-002     2.8316348377188660E-008
  -6.8300000000000000E-002     1.2551127248627836E-008
  -6.7199999999999996E-002    -2.6887319037882662E-008
  -6.6099999999999992E-002    -3.8676848390650775E-008
  -6.5000000000000002E-002    -6.8523662299924126E-009
  -6.3899999999999985E-002     2.4597611059107294E-008
  -6.2799999999999995E-002     1.2646570901608811E-008
  -6.1699999999999991E-002    -2.5251759794286954E-008
  -6.0599999999999994E-002    -3.9287076702976265E-008
  -5.9499999999999990E-002    -1.9396626527168337E-008
  -5.8399999999999994E-002    -3.7942746722308129E-009
  -5.7299999999999990E-002    -1.5918272922021970E-008
  -5.6199999999999986E-002    -3.1359423502408390E-008
  -5.5099999999999996E-002    -2.4932921505183003E-008
  -5.3999999999999992E-002    -1.7676715202696869E-008
  -5.2899999999999989E-002    -4.2297177316186207E-008
  -5.1799999999999985E-002    -8.0365381904812239E-008
  -5.0699999999999995E-002    -7.9855396961647784E-008
  -4.9599999999999991E-002    -3.7824921861329130E-008
  -4.8499999999999988E-002    -1.9365749892585882E-008
  -4.7399999999999998E-002    -6.9027684901357134E-008
  -4.6299999999999994E-002    -1.3945344790045056E-007
  -4.5199999999999990E-002    -1.5010628828804329E-007
  -4.4099999999999986E-002    -1.0024090357774185E-007
  -4.2999999999999997E-002    -7.1681306224036234E-008
  -4.1899999999999993E-002    -1.1482684669772425E-007
  -4.0799999999999989E-002    -1.8239438759337645E-007
  -3.9699999999999985E-002    -2.0366006481253862E-007
  -3.8599999999999995E-002    -1.8444767135861184E-007
  -3.7499999999999992E-002    -1.8535740764491493E-007
  -3.6399999999999988E-002    -2.2248123343615589E-007
  -3.5299999999999984E-002    -2.4830544020915113E-007
  -3.4199999999999994E-002    -2.3914483904263761E-007
  -3.3099999999999991E-002    -2.4074458337963733E-007
  -3.1999999999999987E-002    -2.9322200134629384E-007
  -3.0899999999999997E-002    -3.5273620824227692E-007
  -2.9799999999999993E-002    -3.4697734463406960E-007
  -2.8699999999999989E-002    -2.9014145752626064E-007
  -2.7599999999999986E-002    -2.7481613074087363E-007
  -2.6499999999999996E-002    -3.4242191304656444E-007
  -2.5399999999999992E-002    -4.1606767808843870E-007
  -2.4299999999999988E-002    -4.0594784422864905E-007
  -2.3199999999999985E-002    -3.3498128004794125E-007
  -2.2099999999999995E-002    -3.0198046374607657E-007
  -2.0999999999999991E-002    -3.3715610925355577E-007
  -1.9899999999999987E-002    -3.6719723084388534E-007
  -1.8799999999999983E-002    -3.3346796612931939E-007
  -1.7699999999999994E-002    -2.7567912752601842E-007
  -1.6599999999999990E-002    -2.5708644102451217E-007
  -1.5499999999999986E-002    -2.6074903303197061E-007
  -1.4399999999999996E-002    -2.1690138396479597E-007
  -1.3299999999999992E-002    -1.2229631352056458E-007
  -1.2199999999999989E-002    -5.4660603154843557E-008
  -1.1099999999999985E-002    -5.2924953308775002E-008
  -9.9999999999999950E-003    -4.7165737981913480E-008
  -8.8999999999999913E-003     4.3517697889683404E-008
  -7.7999999999999875E-003     1.8539617485657800E-007
  -6.6999999999999837E-003     2.7567912752601842E-007
  -5.5999999999999939E-003     2.9048879923720961E-007
  -4.4999999999999901E-003     3.1548756851407234E-007
  -3.3999999999999864E-003     4.1654709548311075E-007
  -2.2999999999999826E-003     5.4667731319568702E-007
  -1.1999999999999927E-003     6.2307083226187387E-007
  -9.9999999999988987E-005     6.5400860194131383E-007
   1.0000000000000148E-003     7.1412330271414248E-007
   2.1000000000000185E-003     8.1979112565022660E-007
   3.2000000000000084E-003     9.0323175072626327E-007
   4.3000000000000121E-003     9.1943468305544229E-007
   5.4000000000000159E-003     9.2087520897621289E-007
   6.5000000000000058E-003     9.7834902135218726E-007
   7.6000000000000234E-003     1.0661219675967004E-006
   8.7000000000000133E-003     1.0940524362013093E-006
   9.8000000000000032E-003     1.0430463817101554E-006
   1.0900000000000021E-002     9.9396663699735655E-007
   1.2000000000000011E-002     1.0081147365781362E-006
   1.3100000000000001E-002     1.0368868288423982E-006
   1.4200000000000018E-002     9.9800729458365822E-007
   1.5300000000000008E-002     8.9481210352460039E-007
   1.6400000000000026E-002     8.0825259374250891E-007
   1.7500000000000016E-002     7.7037032042426290E-007
   1.8600000000000005E-002     7.2211429369417601E-007
   1.9700000000000023E-002     6.1015583696644171E-007
   2.0800000000000013E-002     4.7242062350960623E-007
   2.1900000000000003E-002     3.7559303223133611E-007
   2.3000000000000020E-002     3.1070550221556914E-007
   2.4100000000000010E-002     2.1061509869468864E-007
   2.5200000000000000E-002     5.9762932380635903E-008
   2.6300000000000018E-002    -8.0744193553528021E-008
   2.7400000000000008E-002    -1.6491554788444773E-007
   2.8500000000000025E-002    -2.3054789721754787E-007
   2.9600000000000015E-002    -3.4012171568065241E-007
   3.0700000000000005E-002    -4.7922924295562552E-007
   3.1800000000000023E-002    -5.8132320646109292E-007
   3.2900000000000013E-002    -6.2270140688269748E-007
   3.4000000000000002E-002    -6.5810240812425036E-007
   3.5100000000000020E-002    -7.3425570690233144E-007
   3.6200000000000010E-002    -8.1856086353582214E-007
   3.7300000000000028E-002    -8.5733864807480131E-007
   3.8400000000000017E-002    -8.5040989006301970E-007
   3.9500000000000007E-002    -8.4668266708831652E-007
   4.0600000000000025E-002    -8.6771541418784182E-007
   4.1700000000000015E-002    -8.7971199036473990E-007
   4.2800000000000005E-002    -8.4577084180637030E-007
   4.3900000000000022E-002    -7.9065392810662161E-007
   4.5000000000000012E-002    -7.5942858757116483E-007
   4.6100000000000002E-002    -7.4335326871732832E-007
   4.7200000000000020E-002    -6.9093078991500079E-007
   4.8300000000000010E-002    -6.0176813576617860E-007
   4.9400000000000027E-002    -5.2170560138620203E-007
   5.0500000000000017E-002    -4.7829013283262611E-007
   5.1600000000000007E-002    -4.3758271317528852E-007
   5.2700000000000025E-002    -3.6379194057190034E-007
   5.3800000000000014E-002    -2.6985134127244237E-007
   5.4900000000000004E-002    -1.9708515708316554E-007
   5.6000000000000022E-002    -1.4942354198410612E-007
   5.7100000000000012E-002    -9.5840576364025765E-008
   5.8200000000000002E-002    -2.7719925910218990E-008
   5.9300000000000019E-002     2.8732186407864901E-008
   6.0400000000000009E-002     6.3105495939907996E-008
   6.1500000000000027E-002     9.6559134021845239E-008
   6.2600000000000017E-002     1.4710114726312895E-007
   6.3700000000000007E-002     1.9509687376739748E-007
   6.4800000000000024E-002     2.1299224783888349E-007
   6.5900000000000014E-002     2.0876433381999959E-007
   6.7000000000000004E-002     2.1694800977911655E-007
   6.8100000000000022E-002     2.4335744797099323E-007
   6.9200000000000012E-002     2.5821884719334776E-007
   7.0300000000000029E-002     2.4683492938493146E-007
   7.1400000000000019E-002     2.3255707048974728E-007
   7.2500000000000009E-002     2.3621598188583448E-007
   7.3600000000000027E-002     2.3862659759288363E-007
   7.4700000000000016E-002     2.1276051143104269E-007
   7.5800000000000006E-002     1.7381688621753710E-007
   7.6900000000000024E-002     1.5984846868377645E-007
   7.8000000000000014E-002     1.7104744642892911E-007
   7.9100000000000004E-002     1.6590705342878209E-007
   8.0200000000000021E-002     1.2455240039344062E-007
   8.1300000000000011E-002     8.2665387424185610E-008
   8.2400000000000029E-002     7.6922816560909268E-008
   8.3500000000000019E-002     8.6407446531211463E-008
   8.4600000000000009E-002     6.8089413218785921E-008
   8.5700000000000026E-002     2.7470832719700411E-008
   8.6800000000000016E-002     1.2377690872256153E-008
   8.7900000000000006E-002     3.2541549899178790E-008
   8.9000000000000024E-002     3.5161423994622965E-008
   9.0100000000000013E-002    -1.1388740617235271E-008
   9.1200000000000003E-002    -5.9526616524863130E-008
   9.2300000000000021E-002    -4.7626446786352972E-008
   9.3400000000000011E-002     4.0987124805269559E-009
   9.4500000000000028E-002     1.6354158915987682E-008
   9.5600000000000018E-002    -3.2542970984650310E-008
   9.6700000000000008E-002    -7.4879999090171623E-008
   9.7800000000000026E-002    -5.5279098631899615E-008
   9.8900000000000016E-002    -1.2095271451073586E-008
  0.10000000000000001         -1.4162211847690287E-008
  0.10110000000000002         -5.2778958092858375E-008
  0.10220000000000001         -5.9012187136886496E-008
  0.10330000000000003         -1.9318237676202443E-008
  0.10440000000000002         -7.6023265460634093E-010
  0.10550000000000001         -4.0145302193650423E-008
  0.10660000000000003         -7.6563942741358915E-008
  0.10770000000000002         -4.0386755273402741E-008
  0.10880000000000001          2.9368319331979365E-008
  0.10990000000000003          3.4458540909554358E-008
  0.11100000000000002         -3.6276947668056891E-008
  0.11210000000000001         -8.2190929617809161E-008
  0.11320000000000002         -3.7571830091565062E-008
  0.11430000000000001          3.1638776931686152E-008
  0.11540000000000003          2.7657641510359099E-008
  0.11650000000000002         -3.3294604406819417E-008
  0.11760000000000001         -5.0716206345668979E-008
  0.11870000000000003          2.5092277144977970E-009
  0.11980000000000002          4.0445538473932174E-008
  0.12090000000000001          1.4301816397832567E-009
  0.12200000000000003         -5.1071907591904164E-008
  0.12310000000000001         -2.8039508492838650E-008
  0.12420000000000003          4.1872475264881359E-008
  0.12530000000000002          5.1332200712295162E-008
  0.12640000000000001         -1.8638242949009509E-008
  0.12750000000000003         -6.4802044619227672E-008
  0.12860000000000002         -1.6740083097488423E-008
  0.12970000000000001          5.4319905018473946E-008
  0.13080000000000003          4.3179031905538068E-008
  0.13190000000000002         -2.8911845362245003E-008
  0.13300000000000001         -4.8943711306037585E-008
  0.13410000000000000          1.2199624421782573E-008
  0.13520000000000004          5.5242509233721648E-008
  0.13630000000000003          8.9862632890458372E-009
  0.13740000000000002         -5.5852510172371694E-008
  0.13850000000000001         -3.4659358050248557E-008
  0.13960000000000000          4.5956390692936111E-008
  0.14070000000000005          6.4448691716734174E-008
  0.14180000000000004         -1.0247959814080332E-008
  0.14290000000000003         -6.8586942347792501E-008
  0.14400000000000002         -2.5161563499409567E-008
  0.14510000000000001          5.3134151301037491E-008
  0.14620000000000000          5.0110500637856603E-008
  0.14730000000000004         -2.4520828034724218E-008
  0.14840000000000003         -5.4777839153530294E-008
  0.14950000000000002          1.3268993681592178E-009
  0.15060000000000001          5.0642487536833869E-008
  0.15170000000000000          1.4163534345357220E-008
  0.15280000000000005         -4.8566835886276749E-008
  0.15390000000000004         -3.4186168562655439E-008
  0.15500000000000003          3.9589767908410067E-008
  0.15610000000000002          5.8376503631052401E-008
  0.15720000000000001         -1.1547082401364150E-008
  0.15830000000000000         -6.7546046977895458E-008
  0.15940000000000004         -2.5286317040240647E-008
  0.16050000000000003          5.2729301813769780E-008
  0.16160000000000002          5.1875108653121060E-008
  0.16270000000000001         -2.2275081335010327E-008
  0.16380000000000000         -5.6067190001840572E-008
  0.16490000000000005         -2.4054369607284798E-009
  0.16600000000000004          5.1192888150808358E-008
  0.16710000000000003          2.1671677785661814E-008
  0.16820000000000002         -4.1903387426600602E-008
  0.16930000000000001         -3.7796766605424637E-008
  0.17040000000000000          2.8499373527779426E-008
  0.17150000000000004          5.2931486749230316E-008
  0.17260000000000003         -5.0103503568266206E-009
  0.17370000000000002         -5.8334713060048671E-008
  0.17480000000000001         -2.5380126444929374E-008
  0.17590000000000000          4.5679872329174032E-008
  0.17700000000000005          5.0261693473885316E-008
  0.17810000000000004         -1.5292636490471523E-008
  0.17920000000000003         -5.2154582874663902E-008
  0.18030000000000002         -1.0345606149542164E-008
  0.18140000000000001          4.0234436227137849E-008
  0.18250000000000000          2.2321849257878057E-008
  0.18360000000000004         -3.1233145847409105E-008
  0.18470000000000003         -3.3954204781139197E-008
  0.18580000000000002          1.7664904206071697E-008
  0.18690000000000001          4.0971681158907813E-008
  0.18800000000000000         -1.6497346821964243E-009
  0.18910000000000005         -4.3679570183030592E-008
  0.19020000000000004         -1.8201674834017467E-008
  0.19130000000000003          3.7727300394863050E-008
  0.19240000000000002          3.9345408708868490E-008
  0.19350000000000001         -1.6587591744610108E-008
  0.19460000000000005         -4.7459227658919190E-008
  0.19570000000000004         -9.6516146186331753E-009
  0.19680000000000003          3.8518709999380008E-008
  0.19790000000000002          2.7446407813158658E-008
  0.19900000000000001         -2.0954084689606134E-008
  0.20010000000000000         -3.1980675885279197E-008
  0.20120000000000005          7.4531616434114767E-009
  0.20230000000000004          3.3880969141364403E-008
  0.20340000000000003          7.9172037814601026E-009
  0.20450000000000002         -2.8038481758585476E-008
  0.20560000000000000         -1.9165888431871281E-008
  0.20670000000000005          1.7657136197612999E-008
  0.20780000000000004          2.3720476249877720E-008
  0.20890000000000003         -9.2762020287295854E-009
