 -0.12000000000000000          0.0000000000000000
 -0.11889999999999999          0.0000000000000000
 -0.11780000000000000          0.0000000000000000
 -0.11670000000000000          0.0000000000000000
 -0.11559999999999999         -1.2065179777836675E-042
 -0.11449999999999999          1.4284272566454691E-015
 -0.11340000000000000         -2.4924177407018282E-015
 -0.11230000000000000         -1.3384947616685173E-014
 -0.11119999999999999          2.1669288135768919E-014
 -0.11009999999999999          9.6478543470251976E-014
 -0.10900000000000000         -6.4763000734782694E-014
 -0.10790000000000000         -5.1346746949773592E-013
 -0.10679999999999999         -1.4715533208208703E-013
 -0.10569999999999999          1.8767457206358973E-012
 -0.10460000000000000          2.3827211904914325E-012
 -0.10349999999999999         -3.7394432168824654E-012
 -0.10239999999999999         -1.1419126061396057E-011
 -0.10130000000000000         -2.0969827436989608E-012
 -0.10020000000000000          2.8348453792736983E-011
  -9.9099999999999994E-002     3.8769629867596578E-011
  -9.7999999999999990E-002    -2.0811756831773387E-011
  -9.6899999999999986E-002    -1.1168242719516996E-010
  -9.5799999999999996E-002    -9.2686018582366358E-011
  -9.4699999999999993E-002     1.0614278206366734E-010
  -9.3599999999999989E-002     3.0103772252765282E-010
  -9.2499999999999999E-002     1.8590791406314366E-010
  -9.1399999999999995E-002    -2.5472451925523387E-010
  -9.0299999999999991E-002    -5.8175586570285986E-010
  -8.9200000000000002E-002    -3.5416428123546950E-010
  -8.8099999999999984E-002     2.7511021238879607E-010
  -8.6999999999999994E-002     6.7017680294156889E-010
  -8.5899999999999990E-002     5.1441406689889391E-010
  -8.4799999999999986E-002     2.1862076038381417E-010
  -8.3699999999999997E-002     2.5128882308322886E-010
  -8.2599999999999993E-002     2.7846658312569161E-010
  -8.1499999999999989E-002    -5.3182758197323210E-010
  -8.0399999999999999E-002    -2.2713599889812031E-009
  -7.9299999999999995E-002    -3.7994629664694912E-009
  -7.8199999999999992E-002    -3.6941392167477716E-009
  -7.7100000000000002E-002    -1.2695918760741165E-009
  -7.5999999999999984E-002     3.6348433152255666E-009
  -7.4899999999999994E-002     1.1205800731772797E-008
  -7.3799999999999991E-002     2.1071233646807741E-008
  -7.2699999999999987E-002     3.1462839444884594E-008
  -7.1599999999999997E-002     4.0369361187231334E-008
  -7.0499999999999993E-002     4.8108024230941737E-008
  -6.9399999999999989E-002     5.7568271927266323E-008
  -6.8300000000000000E-002     7.0786633443731262E-008
  -6.7199999999999996E-002     8.6315452563212602E-008
  -6.6099999999999992E-002     1.0202897726685478E-007
  -6.5000000000000002E-002     1.2042859509620030E-007
  -6.3899999999999985E-002     1.4856058783152548E-007
  -6.2799999999999995E-002     1.9108958326796710E-007
  -6.1699999999999991E-002     2.4523853880964452E-007
  -6.0599999999999994E-002     3.0510202009281784E-007
  -5.9499999999999990E-002     3.7036281241853430E-007
  -5.8399999999999994E-002     4.4808223265135894E-007
  -5.7299999999999990E-002     5.4581499853156856E-007
  -5.6199999999999986E-002     6.6625722183744074E-007
  -5.5099999999999996E-002     8.1032470689024194E-007
  -5.3999999999999992E-002     9.8234602319280384E-007
  -5.2899999999999989E-002     1.1887327673321124E-006
  -5.1799999999999985E-002     1.4335645346363890E-006
  -5.0699999999999995E-002     1.7206424445248558E-006
  -4.9599999999999991E-002     2.0601553387677995E-006
  -4.8499999999999988E-002     2.4675302938703680E-006
  -4.7399999999999998E-002     2.9524985620810185E-006
  -4.6299999999999994E-002     3.5145053516316693E-006
  -4.5199999999999990E-002     4.1555649659130722E-006
  -4.4099999999999986E-002     4.8957103899738286E-006
  -4.2999999999999997E-002     5.7676638789416756E-006
  -4.1899999999999993E-002     6.7942760324513074E-006
  -4.0799999999999989E-002     7.9788824223214760E-006
  -3.9699999999999985E-002     9.3232702056411654E-006
  -3.8599999999999995E-002     1.0849561476788949E-005
  -3.7499999999999992E-002     1.2595926818903536E-005
  -3.6399999999999988E-002     1.4593529158446472E-005
  -3.5299999999999984E-002     1.6858359231264330E-005
  -3.4199999999999994E-002     1.9407867512200028E-005
  -3.3099999999999991E-002     2.2273750801105052E-005
  -3.1999999999999987E-002     2.5490691768936813E-005
  -3.0899999999999997E-002     2.9080738386255689E-005
  -2.9799999999999993E-002     3.3061678550438955E-005
  -2.8699999999999989E-002     3.7467627407750115E-005
  -2.7599999999999986E-002     4.2344669054728001E-005
  -2.6499999999999996E-002     4.7720863221911713E-005
  -2.5399999999999992E-002     5.3594583732774481E-005
  -2.4299999999999988E-002     5.9963480453006923E-005
  -2.3199999999999985E-002     6.6855383920483291E-005
  -2.2099999999999995E-002     7.4312280048616230E-005
  -2.0999999999999991E-002     8.2345788541715592E-005
  -1.9899999999999987E-002     9.0926972916349769E-005
  -1.8799999999999983E-002     1.0002397903008386E-004
  -1.7699999999999994E-002     1.0963054955936968E-004
  -1.6599999999999990E-002     1.1974044173257425E-004
  -1.5499999999999986E-002     1.3030828267801553E-004
  -1.4399999999999996E-002     1.4125493180472404E-004
  -1.3299999999999992E-002     1.5251175500452518E-004
  -1.2199999999999989E-002     1.6402664186898619E-004
  -1.1099999999999985E-002     1.7571855278220028E-004
  -9.9999999999999950E-003     1.8744845874607563E-004
  -8.8999999999999913E-003     1.9905601220671088E-004
  -7.7999999999999875E-003     2.1041450963821262E-004
  -6.6999999999999837E-003     2.2141664521768689E-004
  -5.5999999999999939E-003     2.3190735373646021E-004
  -4.4999999999999901E-003     2.4166340881492943E-004
  -3.3999999999999864E-003     2.5045222719199955E-004
  -2.2999999999999826E-003     2.5808624923229218E-004
  -1.1999999999999927E-003     2.6439692010171711E-004
  -9.9999999999988987E-005     2.6916860952042043E-004
   1.0000000000000148E-003     2.7214354486204684E-004
   2.1000000000000185E-003     2.7309160213917494E-004
   3.2000000000000084E-003     2.7183297788724303E-004
   4.3000000000000121E-003     2.6818615151569247E-004
   5.4000000000000159E-003     2.6192059158347547E-004
   6.5000000000000058E-003     2.5281359557993710E-004
   7.6000000000000234E-003     2.4073306121863425E-004
   8.7000000000000133E-003     2.2561725927516818E-004
   9.8000000000000032E-003     2.0738740568049252E-004
   1.0900000000000021E-002     1.8591081607155502E-004
   1.2000000000000011E-002     1.6109872376546264E-004
   1.3100000000000001E-002     1.3300073624122888E-004
   1.4200000000000018E-002     1.0175685019930825E-004
   1.5300000000000008E-002     6.7490596848074347E-005
   1.6400000000000026E-002     3.0293704185169190E-005
   1.7500000000000016E-002    -9.6684907475719228E-006
   1.8600000000000005E-002    -5.2095951105002314E-005
   1.9700000000000023E-002    -9.6634314104449004E-005
   2.0800000000000013E-002    -1.4295030268840492E-004
   2.1900000000000003E-002    -1.9070411508437246E-004
   2.3000000000000020E-002    -2.3944480926729739E-004
   2.4100000000000010E-002    -2.8862204635515809E-004
   2.5200000000000000E-002    -3.3770262962207198E-004
   2.6300000000000018E-002    -3.8622898864559829E-004
   2.7400000000000008E-002    -4.3371831998229027E-004
   2.8500000000000025E-002    -4.7956558410078287E-004
   2.9600000000000015E-002    -5.2310939645394683E-004
   3.0700000000000005E-002    -5.6378665613010526E-004
   3.1800000000000023E-002    -6.0115393716841936E-004
   3.2900000000000013E-002    -6.3475966453552246E-004
   3.4000000000000002E-002    -6.6406448604539037E-004
   3.5100000000000020E-002    -6.8855081917718053E-004
   3.6200000000000010E-002    -7.0785911520943046E-004
   3.7300000000000028E-002    -7.2175689274445176E-004
   3.8400000000000017E-002    -7.2999688563868403E-004
   3.9500000000000007E-002    -7.3229637928307056E-004
   4.0600000000000025E-002    -7.2848680429160595E-004
   4.1700000000000015E-002    -7.1860675234347582E-004
   4.2800000000000005E-002    -7.0279062492772937E-004
   4.3900000000000022E-002    -6.8112276494503021E-004
   4.5000000000000012E-002    -6.5368501236662269E-004
   4.6100000000000002E-002    -6.2072562286630273E-004
   4.7200000000000020E-002    -5.8269762666895986E-004
   4.8300000000000010E-002    -5.4008583538234234E-004
   4.9400000000000027E-002    -4.9329653847962618E-004
   5.0500000000000017E-002    -4.4275051914155483E-004
   5.1600000000000007E-002    -3.8903698441572487E-004
   5.2700000000000025E-002    -3.3286714460700750E-004
   5.3800000000000014E-002    -2.7489164494909346E-004
   5.4900000000000004E-002    -2.1564982307609171E-004
   5.6000000000000022E-002    -1.5572155825793743E-004
   5.7100000000000012E-002    -9.5835981483105570E-005
   5.8200000000000002E-002    -3.6741323128808290E-005
   5.9300000000000019E-002     2.0985773517168127E-005
   6.0400000000000009E-002     7.6912205258850008E-005
   6.1500000000000027E-002     1.3054416922386736E-004
   6.2600000000000017E-002     1.8127894145436585E-004
   6.3700000000000007E-002     2.2857394651509821E-004
   6.4800000000000024E-002     2.7211551787331700E-004
   6.5900000000000014E-002     3.1172015587799251E-004
   6.7000000000000004E-002     3.4713966306298971E-004
   6.8100000000000022E-002     3.7806358886882663E-004
   6.9200000000000012E-002     4.0432115201838315E-004
   7.0300000000000029E-002     4.2596287676133215E-004
   7.1400000000000019E-002     4.4308436918072402E-004
   7.2500000000000009E-002     4.5567579218186438E-004
   7.3600000000000027E-002     4.6372422366403043E-004
   7.4700000000000016E-002     4.6741400728933513E-004
   7.5800000000000006E-002     4.6711490722373128E-004
   7.6900000000000024E-002     4.6314264182001352E-004
   7.8000000000000014E-002     4.5565373147837818E-004
   7.9100000000000004E-002     4.4483141391538084E-004
   8.0200000000000021E-002     4.3106704833917320E-004
   8.1300000000000011E-002     4.1486122063361108E-004
   8.2400000000000029E-002     3.9658171590417624E-004
   8.3500000000000019E-002     3.7644340773113072E-004
   8.4600000000000009E-002     3.5472368472255766E-004
   8.5700000000000026E-002     3.3186961081810296E-004
   8.6800000000000016E-002     3.0832368065603077E-004
   8.7900000000000006E-002     2.8433607076294720E-004
   8.9000000000000024E-002     2.6005611289292574E-004
   9.0100000000000013E-002     2.3575771774630994E-004
   9.1200000000000003E-002     2.1184203797020018E-004
   9.2300000000000021E-002     1.8859752162825316E-004
   9.3400000000000011E-002     1.6608483565505594E-004
   9.4500000000000028E-002     1.4432416355703026E-004
   9.5600000000000018E-002     1.2351237819530070E-004
   9.6700000000000008E-002     1.0393274715170264E-004
   9.7800000000000026E-002     8.5699037299491465E-005
   9.8900000000000016E-002     6.8721863499376923E-005
  0.10000000000000001          5.2942879847250879E-005
  0.10110000000000002          3.8478585338452831E-005
  0.10220000000000001          2.5459650714765303E-005
  0.10330000000000003          1.3824777852278203E-005
  0.10440000000000002          3.3926567084563430E-006
  0.10550000000000001         -5.8980963331123348E-006
  0.10660000000000003         -1.3954362657386810E-005
  0.10770000000000002         -2.0755967852892354E-005
  0.10880000000000001         -2.6487603463465348E-005
  0.10990000000000003         -3.1366653274744749E-005
  0.11100000000000002         -3.5421555367065594E-005
  0.11210000000000001         -3.8560570828849450E-005
  0.11320000000000002         -4.0825379983289167E-005
  0.11430000000000001         -4.2443774873390794E-005
  0.11540000000000003         -4.3596191972028464E-005
  0.11650000000000002         -4.4259293645154685E-005
  0.11760000000000001         -4.4358028389979154E-005
  0.11870000000000003         -4.3987132812617347E-005
  0.11980000000000002         -4.3358610128052533E-005
  0.12090000000000001         -4.2563060560496524E-005
  0.12200000000000003         -4.1511291783535853E-005
  0.12310000000000001         -4.0153248846763745E-005
  0.12420000000000003         -3.8629154005320743E-005
  0.12530000000000002         -3.7120393244549632E-005
  0.12640000000000001         -3.5628301702672616E-005
  0.12750000000000003         -3.4020202292595059E-005
  0.12860000000000002         -3.2272415410261601E-005
  0.12970000000000001         -3.0540028092218563E-005
  0.13080000000000003         -2.8949101761099882E-005
  0.13190000000000002         -2.7433576178736985E-005
  0.13300000000000001         -2.5864475901471451E-005
  0.13410000000000000         -2.4266935724881478E-005
  0.13520000000000004         -2.2789308786741458E-005
  0.13630000000000003         -2.1480416762642562E-005
  0.13740000000000002         -2.0221674276399426E-005
  0.13850000000000001         -1.8918064597528428E-005
  0.13960000000000000         -1.7650701920501888E-005
  0.14070000000000005         -1.6553914974792860E-005
  0.14180000000000004         -1.5607078239554539E-005
  0.14290000000000003         -1.4663924048363697E-005
  0.14400000000000002         -1.3672145541931968E-005
  0.14510000000000001         -1.2747304026561324E-005
  0.14620000000000000         -1.1990704479103442E-005
  0.14730000000000004         -1.1334116607031319E-005
  0.14840000000000003         -1.0645203474268783E-005
  0.14950000000000002         -9.9264134405530058E-006
  0.15060000000000001         -9.3007793111610226E-006
  0.15170000000000000         -8.8133419922087342E-006
  0.15280000000000005         -8.3582735896925442E-006
  0.15390000000000004         -7.8412749644485302E-006
  0.15500000000000003         -7.3214855547121260E-006
  0.15610000000000002         -6.9155553319433238E-006
  0.15720000000000001         -6.6145894379587844E-006
  0.15830000000000000         -6.2947315200290177E-006
  0.15940000000000004         -5.9034600781160407E-006
  0.16050000000000003         -5.5329460337816272E-006
  0.16160000000000002         -5.2732470976479817E-006
  0.16270000000000001         -5.0750777518260293E-006
  0.16380000000000000         -4.8287647587130778E-006
  0.16490000000000005         -4.5309516281122342E-006
  0.16600000000000004         -4.2816755012609065E-006
  0.16710000000000003         -4.1242951738240663E-006
  0.16820000000000002         -3.9793530959286727E-006
  0.16930000000000001         -3.7702873214584542E-006
  0.17040000000000000         -3.5411808312346693E-006
  0.17150000000000004         -3.3845433335955022E-006
  0.17260000000000003         -3.2954521884676069E-006
  0.17370000000000002         -3.1787408261152450E-006
  0.17480000000000001         -2.9951656870252918E-006
  0.17590000000000000         -2.8197482606628910E-006
  0.17700000000000005         -2.7250334824202582E-006
  0.17810000000000004         -2.6710927159001585E-006
  0.17920000000000003         -2.5688502773846267E-006
  0.18030000000000002         -2.4140933874150505E-006
  0.18140000000000001         -2.2886804345034761E-006
  0.18250000000000000         -2.2333742890623398E-006
  0.18360000000000004         -2.1898836166656110E-006
  0.18470000000000003         -2.0943307390552945E-006
  0.18580000000000002         -1.9721048829524079E-006
  0.18690000000000001         -1.8919170088338433E-006
  0.18800000000000000         -1.8582368284114636E-006
  0.18910000000000005         -1.8094759752784739E-006
  0.19020000000000004         -1.7172307025248301E-006
  0.19130000000000003         -1.6278745533782057E-006
  0.19240000000000002         -1.5857273183428333E-006
  0.19350000000000001         -1.5628465916961432E-006
  0.19460000000000005         -1.5046715589051018E-006
  0.19570000000000004         -1.4164398862703820E-006
  0.19680000000000003         -1.3546194850277971E-006
  0.19790000000000002         -1.3389092146098847E-006
  0.19900000000000001         -1.3222555708125583E-006
  0.20010000000000000         -1.2628820513782557E-006
  0.20120000000000005         -1.1857264325954020E-006
  0.20230000000000004         -1.1418932217566180E-006
  0.20340000000000003         -1.1324590332151274E-006
  0.20450000000000002         -1.1119572036477621E-006
  0.20560000000000000         -1.0593390697977156E-006
  0.20670000000000005         -1.0053752248495584E-006
  0.20780000000000004         -9.8029420314560411E-007
  0.20890000000000003         -9.6846486030699452E-007
