 -0.12000000000000000          0.0000000000000000
 -0.11889999999999999          0.0000000000000000
 -0.11780000000000000          0.0000000000000000
 -0.11670000000000000          0.0000000000000000
 -0.11559999999999999          0.0000000000000000
 -0.11449999999999999          0.0000000000000000
 -0.11340000000000000          0.0000000000000000
 -0.11230000000000000          0.0000000000000000
 -0.11119999999999999          0.0000000000000000
 -0.11009999999999999          0.0000000000000000
 -0.10900000000000000          0.0000000000000000
 -0.10790000000000000          1.9595432523687732E-030
 -0.10679999999999999         -4.4594328578670361E-030
 -0.10569999999999999         -3.0723162715125408E-029
 -0.10460000000000000          6.4259013706344697E-029
 -0.10349999999999999          2.9027093713307004E-028
 -0.10239999999999999         -4.6664873292389542E-028
 -0.10130000000000000         -2.0752617374501612E-027
 -0.10020000000000000          2.0507623678136000E-027
  -9.9099999999999994E-002     1.1726663104771244E-026
  -9.7999999999999990E-002    -4.6992286197760233E-027
  -9.6899999999999986E-002    -5.2944251742488478E-026
  -9.5799999999999996E-002    -4.7410151365934043E-027
  -9.4699999999999993E-002     1.9614064984092220E-025
  -9.3599999999999989E-002     9.7819528782359041E-026
  -9.2499999999999999E-002    -6.3135841599878188E-025
  -9.1399999999999995E-002    -5.6938234784099831E-025
  -9.0299999999999991E-002     1.8606552543542706E-024
  -8.9200000000000002E-002     2.6774783204369727E-024
  -8.8099999999999984E-002    -4.7387915873021071E-024
  -8.6999999999999994E-002    -1.1244360234147885E-023
  -8.5899999999999990E-002     7.5621500106370754E-024
  -8.4799999999999986E-002     3.8791171629743018E-023
  -8.3699999999999997E-002     7.0801575752688476E-024
  -8.2599999999999993E-002    -9.9121451902738476E-023
  -8.1499999999999989E-002    -9.3908917787414942E-023
  -8.0399999999999999E-002     1.6725492021368310E-022
  -7.9299999999999995E-002     3.3376162163598217E-022
  -7.8199999999999992E-002    -1.3471260295956522E-022
  -7.7100000000000002E-002    -7.7045911533048505E-022
  -7.5999999999999984E-002    -1.3724219589268312E-022
  -7.4899999999999994E-002     1.5122231817307279E-021
  -7.3799999999999991E-002     9.2447540969807258E-022
  -7.2699999999999987E-002    -3.0605307040453394E-021
  -7.1599999999999997E-002    -3.8644779619226406E-021
  -7.0499999999999993E-002     5.0086904884176046E-021
  -6.9399999999999989E-002     1.3157961196087444E-020
  -6.8300000000000000E-002    -6.3028395983573918E-022
  -6.7199999999999996E-002    -2.9443048001776066E-020
  -6.6099999999999992E-002    -2.4788778960340075E-020
  -6.5000000000000002E-002     3.5229312095903741E-020
  -6.3899999999999985E-002     7.4170681201170157E-020
  -6.2799999999999995E-002    -1.9724707356662981E-021
  -6.1699999999999991E-002    -1.1983148399144917E-019
  -6.0599999999999994E-002    -6.7404259779955428E-020
  -5.9499999999999990E-002     1.5570192568556686E-019
  -5.8399999999999994E-002     1.7527930038134807E-019
  -5.7299999999999990E-002    -2.2764054401429363E-019
  -5.6199999999999986E-002    -4.9463963404356744E-019
  -5.5099999999999996E-002     1.4487016358524689E-019
  -5.3999999999999992E-002     1.1741721261710596E-018
  -5.2899999999999989E-002     7.8316426420754969E-019
  -5.1799999999999985E-002    -1.4747873451559997E-018
  -5.0699999999999995E-002    -2.7673722371704035E-018
  -4.9599999999999991E-002    -1.2245272887975021E-019
  -4.8499999999999988E-002     4.1183672473693205E-018
  -4.7399999999999998E-002     3.5006990762667864E-018
  -4.6299999999999994E-002    -3.0219591977649836E-018
  -4.5199999999999990E-002    -6.4422501146370215E-018
  -4.4099999999999986E-002     6.6801912027773142E-019
  -4.2999999999999997E-002     9.3955872359652185E-018
  -4.1899999999999993E-002     2.9376510885772007E-018
  -4.0799999999999989E-002    -1.5047725596429857E-017
  -3.9699999999999985E-002    -1.5277853860287010E-017
  -3.8599999999999995E-002     1.5953753064971440E-017
  -3.7499999999999992E-002     4.0582294797574290E-017
  -3.6399999999999988E-002     8.1805945737452795E-018
  -3.5299999999999984E-002    -5.9321562031705799E-017
  -3.4199999999999994E-002    -6.6170544711750964E-017
  -3.3099999999999991E-002     3.0271835877958072E-017
  -3.1999999999999987E-002     1.2269225918864237E-016
  -3.0899999999999997E-002     6.5907507894404001E-017
  -2.9799999999999993E-002    -1.0320003922140590E-016
  -2.8699999999999989E-002    -1.6215390954466452E-016
  -2.7599999999999986E-002    -6.8088477733265150E-019
  -2.6499999999999996E-002     1.6911732769937272E-016
  -2.5399999999999992E-002     7.0322289937607718E-017
  -2.4299999999999988E-002    -1.8748933997642049E-016
  -2.3199999999999985E-002    -1.6165202928852655E-016
  -2.2099999999999995E-002     2.7200769035177347E-016
  -2.0999999999999991E-002     5.5431111911698216E-016
  -1.9899999999999987E-002     9.0497112581212755E-017
  -1.8799999999999983E-002    -7.8514734369936187E-016
  -1.7699999999999994E-002    -9.7997063904024491E-016
  -1.6599999999999990E-002    -4.5222443853029304E-017
  -1.5499999999999986E-002     1.0112190608929953E-015
  -1.4399999999999996E-002     8.9488924998298424E-016
  -1.3299999999999992E-002    -1.5430510373205916E-016
  -1.2199999999999989E-002    -5.3299283508180832E-016
  -1.1099999999999985E-002     4.2842939707012312E-016
  -9.9999999999999950E-003     1.1796188458069253E-015
  -8.8999999999999913E-003    -8.5415179595482970E-017
  -7.7999999999999875E-003    -2.5302417852032322E-015
  -6.6999999999999837E-003    -3.1040108922449810E-015
  -5.5999999999999939E-003    -3.7243951340498900E-016
  -4.4999999999999901E-003     3.1980525134556528E-015
  -3.3999999999999864E-003     3.9519584233240791E-015
  -2.2999999999999826E-003     1.4794253104546376E-015
  -1.1999999999999927E-003    -1.1476830567174780E-015
  -9.9999999999988987E-005    -1.6265360869096332E-015
   1.0000000000000148E-003    -1.1446029272839061E-015
   2.1000000000000185E-003    -1.7965253291490858E-015
   3.2000000000000084E-003    -2.7307611653561636E-015
   4.3000000000000121E-003    -1.0008760474531915E-015
   5.4000000000000159E-003     3.7824777184903343E-015
   6.5000000000000058E-003     7.7346457824688589E-015
   7.6000000000000234E-003     6.4911425471097118E-015
   8.7000000000000133E-003    -5.3338591130889352E-016
   9.8000000000000032E-003    -1.0278765143721669E-014
   1.0900000000000021E-002    -1.8462302812851522E-014
   1.2000000000000011E-002    -2.0109527785376960E-014
   1.3100000000000001E-002    -9.9654205514779909E-015
   1.4200000000000018E-002     1.2975250485592477E-014
   1.5300000000000008E-002     3.9900103620399419E-014
   1.6400000000000026E-002     5.4872373192547258E-014
   1.7500000000000016E-002     4.6539571377452252E-014
   1.8600000000000005E-002     1.6254894294725347E-014
   1.9700000000000023E-002    -2.6405811673520241E-014
   2.0800000000000013E-002    -7.2523049035339709E-014
   2.1900000000000003E-002    -1.1163963362700174E-013
   2.3000000000000020E-002    -1.2281369226718047E-013
   2.4100000000000010E-002    -8.0360068913879618E-014
   2.5200000000000000E-002     1.9492471059565780E-014
   2.6300000000000018E-002     1.3884047720107845E-013
   2.7400000000000008E-002     2.1456371835509858E-013
   2.8500000000000025E-002     2.0289706601037821E-013
   2.9600000000000015E-002     1.0821743756097776E-013
   3.0700000000000005E-002    -2.6419882584840029E-014
   3.1800000000000023E-002    -1.4914889527421760E-013
   3.2900000000000013E-002    -2.1309082970377702E-013
   3.4000000000000002E-002    -1.7880832990473106E-013
   3.5100000000000020E-002    -3.3077053330490477E-014
   3.6200000000000010E-002     1.7848464134613551E-013
   3.7300000000000028E-002     3.4115950082319602E-013
   3.8400000000000017E-002     3.1545702465149428E-013
   3.9500000000000007E-002     1.9410939056194870E-014
   4.0600000000000025E-002    -5.1176136895911273E-013
   4.1700000000000015E-002    -1.1329108224461537E-012
   4.2800000000000005E-002    -1.6238994740916390E-012
   4.3900000000000022E-002    -1.7684086616939765E-012
   4.5000000000000012E-002    -1.4463753545551628E-012
   4.6100000000000002E-002    -7.0497622496612511E-013
   4.7200000000000020E-002     1.9677042926904281E-013
   4.8300000000000010E-002     8.6271051066844073E-013
   4.9400000000000027E-002     8.6350875451793319E-013
   5.0500000000000017E-002    -5.0023482264013180E-014
   5.1600000000000007E-002    -1.7749594112201339E-012
   5.2700000000000025E-002    -3.9427497725008642E-012
   5.3800000000000014E-002    -5.8615360828961904E-012
   5.4900000000000004E-002    -6.8438531751480181E-012
   5.6000000000000022E-002    -6.7197493229531613E-012
   5.7100000000000012E-002    -5.6674174901683028E-012
   5.8200000000000002E-002    -4.1583667932665325E-012
   5.9300000000000019E-002    -3.1650879833700074E-012
   6.0400000000000009E-002    -3.9922297238870197E-012
   6.1500000000000027E-002    -7.2182711197132932E-012
   6.2600000000000017E-002    -1.2765129231429029E-011
   6.3700000000000007E-002    -2.0275383802448310E-011
   6.4800000000000024E-002    -2.6918583681534436E-011
   6.5900000000000014E-002    -3.1685820633953199E-011
   6.7000000000000004E-002    -3.3215246525442055E-011
   6.8100000000000022E-002    -3.1769923497515506E-011
   6.9200000000000012E-002    -3.0068825901397034E-011
   7.0300000000000029E-002    -2.9786232508266508E-011
   7.1400000000000019E-002    -3.4339475707412248E-011
   7.2500000000000009E-002    -4.3695866369652947E-011
   7.3600000000000027E-002    -5.8839086380935157E-011
   7.4700000000000016E-002    -7.9147501053089542E-011
   7.5800000000000006E-002    -9.9624350435867370E-011
   7.6900000000000024E-002    -1.1825099233142566E-010
   7.8000000000000014E-002    -1.2997310172568888E-010
   7.9100000000000004E-002    -1.3800205422853651E-010
   8.0200000000000021E-002    -1.3775354468226197E-010
   8.1300000000000011E-002    -1.3312401181408973E-010
   8.2400000000000029E-002    -1.4504122902714300E-010
   8.3500000000000019E-002    -1.5395577868115851E-010
   8.4600000000000009E-002    -1.8436895066198389E-010
   8.5700000000000026E-002    -2.3263184434352269E-010
   8.6800000000000016E-002    -2.8000976537434497E-010
   8.7900000000000006E-002    -3.0496369318733230E-010
   8.9000000000000024E-002    -3.3778352337421325E-010
   9.0100000000000013E-002    -3.7163763733083499E-010
   9.1200000000000003E-002    -3.9260539264063254E-010
   9.2300000000000021E-002    -3.6567066041826024E-010
   9.3400000000000011E-002    -2.9645155774637999E-010
   9.4500000000000028E-002    -2.8214275360483043E-010
   9.5600000000000018E-002    -3.5331276793115762E-010
   9.6700000000000008E-002    -4.8585307999005067E-010
   9.7800000000000026E-002    -5.5569060464222275E-010
   9.8900000000000016E-002    -5.7534860209429439E-010
  0.10000000000000001         -4.8812248687468696E-010
  0.10110000000000002         -5.3111648412595969E-010
  0.10220000000000001         -5.9873006552635388E-010
  0.10330000000000003         -5.0806403528724786E-010
  0.10440000000000002         -4.7339449027461455E-010
  0.10550000000000001         -3.4567107509708705E-010
  0.10660000000000003         -2.1244454806446100E-010
  0.10770000000000002         -1.8618892538846410E-010
  0.10880000000000001         -1.6521077561559849E-010
  0.10990000000000003         -1.7164768217892146E-010
  0.11100000000000002         -4.1613187895528370E-010
  0.11210000000000001         -2.6276808506864313E-010
  0.11320000000000002         -1.9302984211044816E-010
  0.11430000000000001         -1.2950993055760307E-010
  0.11540000000000003          2.3149158978608142E-010
  0.11650000000000002          3.5398323161572876E-010
  0.11760000000000001          5.3706156188937371E-010
  0.11870000000000003          9.1900143051049099E-010
  0.11980000000000002          1.2446867980742127E-009
  0.12090000000000001          1.3390654141076652E-009
  0.12200000000000003          1.0560798902048418E-009
  0.12310000000000001          1.1792166132451598E-009
  0.12420000000000003          1.7862400447654636E-009
  0.12530000000000002          2.1697978969115184E-009
  0.12640000000000001          1.3036621782092084E-009
  0.12750000000000003          1.7827789244861947E-009
  0.12860000000000002          2.1441719511017254E-009
  0.12970000000000001          2.7331799046237393E-009
  0.13080000000000003          2.7820938885980695E-009
  0.13190000000000002          2.7308393324432245E-009
  0.13300000000000001          1.9830475039839257E-009
  0.13410000000000000          2.2309640801410069E-009
  0.13520000000000004          2.3539543647643768E-009
  0.13630000000000003          2.6063533553610796E-009
  0.13740000000000002          1.9764685443846020E-009
  0.13850000000000001          1.7962632492540820E-009
  0.13960000000000000          1.0898379976254091E-009
  0.14070000000000005          1.4691071692496394E-009
  0.14180000000000004          1.8722496886169893E-009
  0.14290000000000003          2.4667832221325625E-009
  0.14400000000000002          1.9861912115004543E-009
  0.14510000000000001          7.4006251127300970E-010
  0.14620000000000000         -3.8358757836753909E-010
  0.14730000000000004         -1.1869440985634583E-009
  0.14840000000000003         -1.1563281443471851E-009
  0.14950000000000002         -8.1489287540037481E-010
  0.15060000000000001         -5.4681670302869634E-010
  0.15170000000000000         -5.9564936316647277E-010
  0.15280000000000005         -1.2120587866704113E-009
  0.15390000000000004         -2.0369941289288818E-009
  0.15500000000000003         -2.6121977914073113E-009
  0.15610000000000002         -2.9274136448265153E-009
  0.15720000000000001         -3.0515436844069654E-009
  0.15830000000000000         -3.1435045677596918E-009
  0.15940000000000004         -3.0804827577668448E-009
  0.16050000000000003         -2.9200544204854850E-009
  0.16160000000000002         -3.3613856142977738E-009
  0.16270000000000001         -4.0017962277261176E-009
  0.16380000000000000         -4.1803120964800655E-009
  0.16490000000000005         -4.2814933820523038E-009
  0.16600000000000004         -3.5516298790838619E-009
  0.16710000000000003         -3.0679958573642807E-009
  0.16820000000000002         -2.9018938363378766E-009
  0.16930000000000001         -2.9975604221021968E-009
  0.17040000000000000         -2.4962016897944750E-009
  0.17150000000000004         -2.2871420313208546E-009
  0.17260000000000003         -1.1764929030988469E-009
  0.17370000000000002         -6.0106453148023320E-010
  0.17480000000000001         -1.4520248337035468E-009
  0.17590000000000000         -3.1504339137455872E-009
  0.17700000000000005         -2.3372681567934706E-009
  0.17810000000000004         -5.7383792162468694E-011
  0.17920000000000003          9.1407659219555626E-010
  0.18030000000000002          1.2650962499805019E-009
  0.18140000000000001         -1.8439107879464345E-011
  0.18250000000000000         -7.0201922053314547E-010
  0.18360000000000004         -1.2640737345748221E-009
  0.18470000000000003          9.8729890929405428E-010
  0.18580000000000002          2.2996629045479722E-009
  0.18690000000000001          3.3081006822754944E-009
  0.18800000000000000          2.8846016686401299E-009
  0.18910000000000005          1.8853558714226892E-009
  0.19020000000000004          1.6082405407402689E-009
  0.19130000000000003          2.5328783515021769E-009
  0.19240000000000002          2.8251514461175020E-009
  0.19350000000000001          2.9416924451908244E-009
  0.19460000000000005          1.6061648677734297E-009
  0.19570000000000004          5.2461157640237843E-010
  0.19680000000000003          7.3705913594679373E-010
  0.19790000000000002          1.8998698170236139E-009
  0.19900000000000001          3.0614069057577353E-009
  0.20010000000000000          2.8848512467760656E-009
  0.20120000000000005          1.6725860696453765E-009
  0.20230000000000004          3.3050756576002982E-010
  0.20340000000000003          5.8759656862417131E-011
  0.20450000000000002          7.1734512774312975E-010
  0.20560000000000000          1.4876855303214143E-009
  0.20670000000000005          1.5157711752422642E-009
  0.20780000000000004          9.0240381833694983E-010
  0.20890000000000003          1.2530293469481535E-010
