 -0.12000000000000000          0.0000000000000000
 -0.11889999999999999          0.0000000000000000
 -0.11780000000000000          0.0000000000000000
 -0.11670000000000000          0.0000000000000000
 -0.11559999999999999          0.0000000000000000
 -0.11449999999999999          0.0000000000000000
 -0.11340000000000000          0.0000000000000000
 -0.11230000000000000          0.0000000000000000
 -0.11119999999999999          4.0267353938431076E-037
 -0.11009999999999999          2.4000246988028435E-024
 -0.10900000000000000         -1.4065601354813237E-023
 -0.10790000000000000         -2.0158516862137921E-023
 -0.10679999999999999          2.3609301801783281E-022
 -0.10569999999999999          1.4395323125090305E-022
 -0.10460000000000000         -2.2927546245603678E-021
 -0.10349999999999999         -1.7718408649793698E-021
 -0.10239999999999999          1.5905067592260824E-020
 -0.10130000000000000          2.0831328805623333E-020
 -0.10020000000000000         -7.9272537348941104E-020
  -9.9099999999999994E-002    -1.7510797059697307E-019
  -9.7999999999999990E-002     2.4450916069790472E-019
  -9.6899999999999986E-002     1.0396060739282033E-018
  -9.5799999999999996E-002    -4.3666069667802771E-020
  -9.4699999999999993E-002    -4.2844895161980364E-018
  -9.3599999999999989E-002    -4.3870268249301167E-018
  -9.2499999999999999E-002     1.0761621423676101E-017
  -9.1399999999999995E-002     2.7231449164096939E-017
  -9.0299999999999991E-002    -3.8410057297644210E-018
  -8.9200000000000002E-002    -8.9253774093761788E-017
  -8.8099999999999984E-002    -9.5308842056768505E-017
  -8.6999999999999994E-002     1.3636468121141677E-016
  -8.5899999999999990E-002     4.2458892321749237E-016
  -8.4799999999999986E-002     1.7978722968236835E-016
  -8.3699999999999997E-002    -8.1178123593458809E-016
  -8.2599999999999993E-002    -1.4590216631838208E-015
  -8.1499999999999989E-002    -9.5570833317823924E-017
  -8.0399999999999999E-002     2.9471619897536356E-015
  -7.9299999999999995E-002     4.1579682710411129E-015
  -7.8199999999999992E-002     1.5542725033361255E-016
  -7.7100000000000002E-002    -7.2640410532379350E-015
  -7.5999999999999984E-002    -1.1160696695435790E-014
  -7.4899999999999994E-002    -5.5982406481792419E-015
  -7.3799999999999991E-002     9.6390655331644491E-015
  -7.2699999999999987E-002     2.9311110965679930E-014
  -7.1599999999999997E-002     4.0210727542816528E-014
  -7.0499999999999993E-002     1.6085582572964687E-014
  -6.9399999999999989E-002    -6.4578327223490321E-014
  -6.8300000000000000E-002    -1.6458462739378495E-013
  -6.7199999999999996E-002    -1.5898698644493273E-013
  -6.6099999999999992E-002     6.9541892860554982E-014
  -6.5000000000000002E-002     4.3670790724967187E-013
  -6.3899999999999985E-002     5.9355835134097802E-013
  -6.2799999999999995E-002     1.9792712390928762E-013
  -6.1699999999999991E-002    -6.5364722098490162E-013
  -6.0599999999999994E-002    -1.3335570711939230E-012
  -5.9499999999999990E-002    -1.1716851447407538E-012
  -5.8399999999999994E-002    -7.9709235902268534E-014
  -5.7299999999999990E-002     1.3725818441903614E-012
  -5.6199999999999986E-002     2.4587807918169342E-012
  -5.5099999999999996E-002     2.6846120812495945E-012
  -5.3999999999999992E-002     1.6823727740783542E-012
  -5.2899999999999989E-002    -8.1627635423532281E-013
  -5.1799999999999985E-002    -4.3534772141417913E-012
  -5.0699999999999995E-002    -7.1745430776925997E-012
  -4.9599999999999991E-002    -7.0335508250973934E-012
  -4.8499999999999988E-002    -3.1000983030660511E-012
  -4.7399999999999998E-002     3.2307277512965735E-012
  -4.6299999999999994E-002     9.8256585159827849E-012
  -4.5199999999999990E-002     1.5510934550655432E-011
  -4.4099999999999986E-002     1.9168080317433261E-011
  -4.2999999999999997E-002     1.7401217619617080E-011
  -4.1899999999999993E-002     5.4185948263064855E-012
  -4.0799999999999989E-002    -1.7505748586832261E-011
  -3.9699999999999985E-002    -4.3707065744413763E-011
  -3.8599999999999995E-002    -6.0405909441119147E-011
  -3.7499999999999992E-002    -5.8461430141321296E-011
  -3.6399999999999988E-002    -3.7237435357440425E-011
  -3.5299999999999984E-002    -1.0054246931544542E-012
  -3.4199999999999994E-002     4.6557091515353076E-011
  -3.3099999999999991E-002     1.0134650063609008E-010
  -3.1999999999999987E-002     1.5312322243499220E-010
  -3.0899999999999997E-002     1.8410394042600638E-010
  -2.9799999999999993E-002     1.7434105548108745E-010
  -2.8699999999999989E-002     1.0730489413690726E-010
  -2.7599999999999986E-002    -2.7167115779212687E-011
  -2.6499999999999996E-002    -2.2586353620734792E-010
  -2.5399999999999992E-002    -4.5923628788635504E-010
  -2.4299999999999988E-002    -6.6683480959284318E-010
  -2.3199999999999985E-002    -7.7470219128628328E-010
  -2.2099999999999995E-002    -7.2147254837063181E-010
  -2.0999999999999991E-002    -4.6298540001821767E-010
  -1.9899999999999987E-002     4.8672961494572220E-011
  -1.8799999999999983E-002     8.7558710282209063E-010
  -1.7699999999999994E-002     2.0656976129629344E-009
  -1.6599999999999990E-002     3.6150407112245417E-009
  -1.5499999999999986E-002     5.4777955504903391E-009
  -1.4399999999999996E-002     7.6281576610881745E-009
  -1.3299999999999992E-002     1.0106934844600381E-008
  -1.2199999999999989E-002     1.3000434506693685E-008
  -1.1099999999999985E-002     1.6389771317904041E-008
  -9.9999999999999950E-003     2.0351548002395327E-008
  -8.8999999999999913E-003     2.5020797878028233E-008
  -7.7999999999999875E-003     3.0640254777836281E-008
  -6.6999999999999837E-003     3.7540676345315806E-008
  -5.5999999999999939E-003     4.6092456074120670E-008
  -4.4999999999999901E-003     5.6698191031046220E-008
  -3.3999999999999864E-003     6.9819996895148771E-008
  -2.2999999999999826E-003     8.5982662767492320E-008
  -1.1999999999999927E-003     1.0575472941809534E-007
  -9.9999999999988987E-005     1.2977086782939346E-007
   1.0000000000000148E-003     1.5879980708177815E-007
   2.1000000000000185E-003     1.9377601745418434E-007
   3.2000000000000084E-003     2.3574848739826941E-007
   4.3000000000000121E-003     2.8586367761818221E-007
   5.4000000000000159E-003     3.4549358929325673E-007
   6.5000000000000058E-003     4.1640075210125524E-007
   7.6000000000000234E-003     5.0071048462996461E-007
   8.7000000000000133E-003     6.0067293361498985E-007
   9.8000000000000032E-003     7.1852696237329214E-007
   1.0900000000000021E-002     8.5670774296886870E-007
   1.2000000000000011E-002     1.0182327514485266E-006
   1.3100000000000001E-002     1.2068120440744727E-006
   1.4200000000000018E-002     1.4265586969486381E-006
   1.5300000000000008E-002     1.6816634342831164E-006
   1.6400000000000026E-002     1.9764997887250582E-006
   1.7500000000000016E-002     2.3160093860497097E-006
   1.8600000000000005E-002     2.7058717932959667E-006
   1.9700000000000023E-002     3.1522986319032629E-006
   2.0800000000000013E-002     3.6617614114220644E-006
   2.1900000000000003E-002     4.2409128582221634E-006
   2.3000000000000020E-002     4.8967031034408349E-006
   2.4100000000000010E-002     5.6363815019722342E-006
   2.5200000000000000E-002     6.4675627982069552E-006
   2.6300000000000018E-002     7.3983396760013742E-006
   2.7400000000000008E-002     8.4371740740607865E-006
   2.8500000000000025E-002     9.5923569460865534E-006
   2.9600000000000015E-002     1.0871323866013019E-005
   3.0700000000000005E-002     1.2280650480534004E-005
   3.1800000000000023E-002     1.3826762369717534E-005
   3.2900000000000013E-002     1.5516607163590450E-005
   3.4000000000000002E-002     1.7356480384478423E-005
   3.5100000000000020E-002     1.9350636648596353E-005
   3.6200000000000010E-002     2.1500552975339913E-005
   3.7300000000000028E-002     2.3805698219803270E-005
   3.8400000000000017E-002     2.6264768166584085E-005
   3.9500000000000007E-002     2.8874725103378431E-005
   4.0600000000000025E-002     3.1630021112505496E-005
   4.1700000000000015E-002     3.4520922781666903E-005
   4.2800000000000005E-002     3.7533569411607635E-005
   4.3900000000000022E-002     4.0650662413099977E-005
   4.5000000000000012E-002     4.3851938244188414E-005
   4.6100000000000002E-002     4.7113535401877246E-005
   4.7200000000000020E-002     5.0408267270541063E-005
   4.8300000000000010E-002     5.3703479352407422E-005
   4.9400000000000027E-002     5.6960798247019114E-005
   5.0500000000000017E-002     6.0137102991575673E-005
   5.1600000000000007E-002     6.3184430473484424E-005
   5.2700000000000025E-002     6.6053711634595286E-005
   5.3800000000000014E-002     6.8693501816597188E-005
   5.4900000000000004E-002     7.1048380050342896E-005
   5.6000000000000022E-002     7.3057817644440017E-005
   5.7100000000000012E-002     7.4656403739937043E-005
   5.8200000000000002E-002     7.5778283644467999E-005
   5.9300000000000019E-002     7.6362201070879061E-005
   6.0400000000000009E-002     7.6350013841875318E-005
   6.1500000000000027E-002     7.5680378358811560E-005
   6.2600000000000017E-002     7.4292242061347189E-005
   6.3700000000000007E-002     7.2126225859392841E-005
   6.4800000000000024E-002     6.9134723162278940E-005
   6.5900000000000014E-002     6.5275082306471115E-005
   6.7000000000000004E-002     6.0516351368278638E-005
   6.8100000000000022E-002     5.4833610192872929E-005
   6.9200000000000012E-002     4.8212568799499741E-005
   7.0300000000000029E-002     4.0647439163876982E-005
   7.1400000000000019E-002     3.2143063435796892E-005
   7.2500000000000009E-002     2.2720558263245242E-005
   7.3600000000000027E-002     1.2420794519130293E-005
   7.4700000000000016E-002     1.2997469411858297E-006
   7.5800000000000006E-002    -1.0573739018582233E-005
   7.6900000000000024E-002    -2.3126805899664783E-005
   7.8000000000000014E-002    -3.6271823773859157E-005
   7.9100000000000004E-002    -4.9899314035428851E-005
   8.0200000000000021E-002    -6.3878316723276160E-005
   8.1300000000000011E-002    -7.8069446317386194E-005
   8.2400000000000029E-002    -9.2331822088454312E-005
   8.3500000000000019E-002    -1.0652079072315292E-004
   8.4600000000000009E-002    -1.2048233475070501E-004
   8.5700000000000026E-002    -1.3405097706709119E-004
   8.6800000000000016E-002    -1.4705465582665126E-004
   8.7900000000000006E-002    -1.5932373935356812E-004
   8.9000000000000024E-002    -1.7069678870029832E-004
   9.0100000000000013E-002    -1.8102287140209317E-004
   9.1200000000000003E-002    -1.9016079022549190E-004
   9.2300000000000021E-002    -1.9797644927166505E-004
   9.3400000000000011E-002    -2.0434231555555122E-004
   9.4500000000000028E-002    -2.0914249762427173E-004
   9.5600000000000018E-002    -2.1228440164122844E-004
   9.6700000000000008E-002    -2.1370449394453433E-004
   9.7800000000000026E-002    -2.1336569625418750E-004
   9.8900000000000016E-002    -2.1124754857737688E-004
  0.10000000000000001         -2.0734081044793246E-004
  0.10110000000000002         -2.0165256864857042E-004
  0.10220000000000001         -1.9422378682065866E-004
  0.10330000000000003         -1.8513243412599076E-004
  0.10440000000000002         -1.7448194557800992E-004
  0.10550000000000001         -1.6238515672739693E-004
  0.10660000000000003         -1.4896351785864773E-004
  0.10770000000000002         -1.3435650907922620E-004
  0.10880000000000001         -1.1872366303578096E-004
  0.10990000000000003         -1.0224324068985949E-004
  0.11100000000000002         -8.5105348262005151E-005
  0.11210000000000001         -6.7506865889300162E-005
  0.11320000000000002         -4.9644429964246642E-005
  0.11430000000000001         -3.1701503758086203E-005
  0.11540000000000003         -1.3862275409337814E-005
  0.11650000000000002          3.6878168430119981E-006
  0.11760000000000001          2.0761510313604938E-005
  0.11870000000000003          3.7173893360886797E-005
  0.11980000000000002          5.2771240007132461E-005
  0.12090000000000001          6.7425724409986545E-005
  0.12200000000000003          8.1028279964812439E-005
  0.12310000000000001          9.3472044682130638E-005
  0.12420000000000003          1.0465501691214789E-004
  0.12530000000000002          1.1450312740635182E-004
  0.12640000000000001          1.2297340435907304E-004
  0.12750000000000003          1.3004431093577361E-004
  0.12860000000000002          1.3570625742431801E-004
  0.12970000000000001          1.3997247151564880E-004
  0.13080000000000003          1.4287202793639229E-004
  0.13190000000000002          1.4444961561821480E-004
  0.13300000000000001          1.4475500211119730E-004
  0.13410000000000000          1.4384966925717969E-004
  0.13520000000000004          1.4181976439431388E-004
  0.13630000000000003          1.3877241872251112E-004
  0.13740000000000002          1.3481403584592120E-004
  0.13850000000000001          1.3003736967220978E-004
  0.13960000000000000          1.2453233648557289E-004
  0.14070000000000005          1.1840466322610224E-004
  0.14180000000000004          1.1177629494341157E-004
  0.14290000000000003          1.0476613533683184E-004
  0.14400000000000002          9.7475334769115435E-005
  0.14510000000000001          8.9993547589984333E-005
  0.14620000000000000          8.2410646427888925E-005
  0.14730000000000004          7.4816074629780366E-005
  0.14840000000000003          6.7289045546204272E-005
  0.14950000000000002          5.9896749007748819E-005
  0.15060000000000001          5.2704934205394577E-005
  0.15170000000000000          4.5779062929796360E-005
  0.15280000000000005          3.9171547541627925E-005
  0.15390000000000004          3.2909905712586120E-005
  0.15500000000000003          2.7008043616661064E-005
  0.15610000000000002          2.1488549464265975E-005
  0.15720000000000001          1.6384710761485750E-005
  0.15830000000000000          1.1718873793142946E-005
  0.15940000000000004          7.4857280196739158E-006
  0.16050000000000003          3.6634176012740259E-006
  0.16160000000000002          2.3771339385805698E-007
  0.16270000000000001         -2.7916084945900289E-006
  0.16380000000000000         -5.4273823479889062E-006
  0.16490000000000005         -7.6898304541828365E-006
  0.16600000000000004         -9.6089934231713787E-006
  0.16710000000000003         -1.1208891010028359E-005
  0.16820000000000002         -1.2508408872236090E-005
  0.16930000000000001         -1.3532230696000691E-005
  0.17040000000000000         -1.4311383893073144E-005
  0.17150000000000004         -1.4870809536660166E-005
  0.17260000000000003         -1.5223022273858157E-005
  0.17370000000000002         -1.5382920537376858E-005
  0.17480000000000001         -1.5382305718958463E-005
  0.17590000000000000         -1.5259620340657505E-005
  0.17700000000000005         -1.5035694559628693E-005
  0.17810000000000004         -1.4709909009980119E-005
  0.17920000000000003         -1.4284469216363584E-005
  0.18030000000000002         -1.3784309885522894E-005
  0.18140000000000001         -1.3242903150967399E-005
  0.18250000000000000         -1.2675793186645096E-005
  0.18360000000000004         -1.2078571671736496E-005
  0.18470000000000003         -1.1449414159869841E-005
  0.18580000000000002         -1.0804838893818732E-005
  0.18690000000000001         -1.0165425919694885E-005
  0.18800000000000000         -9.5361010608031042E-006
  0.18910000000000005         -8.9099130491377380E-006
  0.19020000000000004         -8.2891774582095004E-006
  0.19130000000000003         -7.6886744864169034E-006
  0.19240000000000002         -7.1164336077345485E-006
  0.19350000000000001         -6.5638537307677714E-006
  0.19460000000000005         -6.0225556808291359E-006
  0.19570000000000004         -5.5022260312398752E-006
  0.19680000000000003         -5.0205248953716660E-006
  0.19790000000000002         -4.5783240238961569E-006
  0.19900000000000001         -4.1578523450880557E-006
  0.20010000000000000         -3.7496799905057057E-006
  0.20120000000000005         -3.3677704323054262E-006
  0.20230000000000004         -3.0301753213280063E-006
  0.20340000000000003         -2.7329183467372951E-006
  0.20450000000000002         -2.4556863991165449E-006
  0.20560000000000000         -2.1915680008533081E-006
  0.20670000000000005         -1.9559392967494327E-006
  0.20780000000000004         -1.7629951116760024E-006
  0.20890000000000003         -1.6048796851464532E-006
