 -0.12000000000000000          0.0000000000000000
 -0.11889999999999999          0.0000000000000000
 -0.11780000000000000          0.0000000000000000
 -0.11670000000000000          0.0000000000000000
 -0.11559999999999999          0.0000000000000000
 -0.11449999999999999          0.0000000000000000
 -0.11340000000000000          0.0000000000000000
 -0.11230000000000000          0.0000000000000000
 -0.11119999999999999         -1.6967322595143771E-019
 -0.11009999999999999          6.1286105233171277E-018
 -0.10900000000000000          1.1448486561741160E-017
 -0.10790000000000000         -8.6069122117987792E-017
 -0.10679999999999999         -1.0933429814753584E-016
 -0.10569999999999999          1.4264340822414613E-015
 -0.10460000000000000          4.2585466572639830E-015
 -0.10349999999999999         -5.8051703736769749E-015
 -0.10239999999999999         -4.9873089870162285E-014
 -0.10130000000000000         -6.5658605939364345E-014
 -0.10020000000000000          1.8755762459625458E-013
  -9.9099999999999994E-002     7.9052628158826632E-013
  -9.7999999999999990E-002     6.4453244174103586E-013
  -9.6899999999999986E-002    -2.6425886218844896E-012
  -9.5799999999999996E-002    -8.5387755893728823E-012
  -9.4699999999999993E-002    -6.0235653270845901E-012
  -9.3599999999999989E-002     2.3005340687998199E-011
  -9.2499999999999999E-002     7.0316509559464890E-011
  -9.1399999999999995E-002     5.6238722012658116E-011
  -9.0299999999999991E-002    -1.3611972660143579E-010
  -8.9200000000000002E-002    -4.5861750508358057E-010
  -8.8099999999999984E-002    -4.5837544870863667E-010
  -8.6999999999999994E-002     5.3250459597364852E-010
  -8.5899999999999990E-002     2.3913666602481953E-009
  -8.4799999999999986E-002     3.0261162464739755E-009
  -8.3699999999999997E-002    -9.2762347803088119E-010
  -8.2599999999999993E-002    -9.8781844926065787E-009
  -8.1499999999999989E-002    -1.5946346465511851E-008
  -8.0399999999999999E-002    -4.4187835612774506E-009
  -7.9299999999999995E-002     3.1119320453854016E-008
  -7.8199999999999992E-002     6.7095001554662304E-008
  -7.7100000000000002E-002     4.8487859061197014E-008
  -7.5999999999999984E-002    -6.5536802651422477E-008
  -7.4899999999999994E-002    -2.2384634235095291E-007
  -7.3799999999999991E-002    -2.5328361630272411E-007
  -7.2699999999999987E-002     2.8984072031335018E-008
  -7.1599999999999997E-002     5.7334193570568459E-007
  -7.0499999999999993E-002     9.3223843578016385E-007
  -6.9399999999999989E-002     4.6713415713384165E-007
  -6.8300000000000000E-002    -1.0068227993542678E-006
  -6.7199999999999996E-002    -2.5890319648169680E-006
  -6.6099999999999992E-002    -2.4841667709551984E-006
  -6.5000000000000002E-002     5.6028204653557623E-007
  -6.3899999999999985E-002     5.3555186241283081E-006
  -6.2799999999999995E-002     7.8350167314056307E-006
  -6.1699999999999991E-002     3.6273843306844356E-006
  -6.0599999999999994E-002    -7.2775446824380197E-006
  -5.9499999999999990E-002    -1.7686012142803520E-005
  -5.8399999999999994E-002    -1.6481044440297410E-005
  -5.7299999999999990E-002     1.9191109004168538E-006
  -5.6199999999999986E-002     2.8617290809052065E-005
  -5.5099999999999996E-002     4.1611157939769328E-005
  -5.3999999999999992E-002     2.1406853193184361E-005
  -5.2899999999999989E-002    -2.8259775717742741E-005
  -5.1799999999999985E-002    -7.3426446761004627E-005
  -5.0699999999999995E-002    -6.9924950366839767E-005
  -4.9599999999999991E-002    -1.9285494090581778E-006
  -4.8499999999999988E-002     9.1763511591125280E-005
  -4.7399999999999998E-002     1.3447193487081677E-004
  -4.6299999999999994E-002     7.1034170105122030E-005
  -4.5199999999999990E-002    -7.2912233008537441E-005
  -4.4099999999999986E-002    -1.8939915753435344E-004
  -4.2999999999999997E-002    -1.6477328608743846E-004
  -4.1899999999999993E-002     1.4771157111681532E-005
  -4.0799999999999989E-002     2.2159758373163640E-004
  -3.9699999999999985E-002     2.6795367011800408E-004
  -3.8599999999999995E-002     6.7803644924424589E-005
  -3.7499999999999992E-002    -2.5289881159551442E-004
  -3.6399999999999988E-002    -4.1705335024744272E-004
  -3.5299999999999984E-002    -2.1740836382377893E-004
  -3.4199999999999994E-002     2.6781638734973967E-004
  -3.3099999999999991E-002     6.6788814729079604E-004
  -3.1999999999999987E-002     5.8096955763176084E-004
  -3.0899999999999997E-002    -6.8926492531318218E-005
  -2.9799999999999993E-002    -8.7910454021766782E-004
  -2.8699999999999989E-002    -1.2014148524031043E-003
  -2.7599999999999986E-002    -6.3911057077348232E-004
  -2.6499999999999996E-002     5.6858808966353536E-004
  -2.5399999999999992E-002     1.6199592500925064E-003
  -2.4299999999999988E-002     1.6955331666395068E-003
  -2.3199999999999985E-002     5.9576815692707896E-004
  -2.2099999999999995E-002    -1.0315889958292246E-003
  -2.0999999999999991E-002    -2.0998984109610319E-003
  -1.9899999999999987E-002    -1.8630314152687788E-003
  -1.8799999999999983E-002    -4.8315923777408898E-004
  -1.7699999999999994E-002     1.0688508627936244E-003
  -1.6599999999999990E-002     1.7368546687066555E-003
  -1.5499999999999986E-002     1.1879830854013562E-003
  -1.4399999999999996E-002     6.9641821028199047E-005
  -1.3299999999999992E-002    -5.2336556836962700E-004
  -1.2199999999999989E-002     3.7775851069454802E-006
  -1.1099999999999985E-002     1.1283635394647717E-003
  -9.9999999999999950E-003     1.4882764080539346E-003
  -8.8999999999999913E-003    -2.2383128452929668E-005
  -7.7999999999999875E-003    -3.0957921408116817E-003
  -6.6999999999999837E-003    -5.7505490258336067E-003
  -5.5999999999999939E-003    -5.4236669093370438E-003
  -4.4999999999999901E-003    -8.9772383216768503E-004
  -3.3999999999999864E-003     6.2491358257830143E-003
  -2.2999999999999826E-003     1.1946576647460461E-002
  -1.1999999999999927E-003     1.1919265612959862E-002
  -9.9999999999988987E-005     4.7033093869686127E-003
   1.0000000000000148E-003    -6.7163598723709583E-003
   2.1000000000000185E-003    -1.6145594418048859E-002
   3.2000000000000084E-003    -1.7881793901324272E-002
   4.3000000000000121E-003    -1.0515140369534492E-002
   5.4000000000000159E-003     1.9377288408577442E-003
   6.5000000000000058E-003     1.2613643892109394E-002
   7.6000000000000234E-003     1.6379443928599358E-002
   8.7000000000000133E-003     1.3021433725953102E-002
   9.8000000000000032E-003     6.6042724065482616E-003
   1.0900000000000021E-002     1.5801172703504562E-003
   1.2000000000000011E-002    -1.0389698436483741E-003
   1.3100000000000001E-002    -4.0687434375286102E-003
   1.4200000000000018E-002    -1.0612235404551029E-002
   1.5300000000000008E-002    -1.9658662378787994E-002
   1.6400000000000026E-002    -2.5026151910424232E-002
   1.7500000000000016E-002    -1.9334863871335983E-002
   1.8600000000000005E-002    -3.9274289156310260E-004
   1.9700000000000023E-002     2.5131490081548691E-002
   2.0800000000000013E-002     4.4278755784034729E-002
   2.1900000000000003E-002     4.5477636158466339E-002
   2.3000000000000020E-002     2.6110514998435974E-002
   2.4100000000000010E-002    -5.4427958093583584E-003
   2.5200000000000000E-002    -3.4759558737277985E-002
   2.6300000000000018E-002    -4.9780234694480896E-002
   2.7400000000000008E-002    -4.6850338578224182E-002
   2.8500000000000025E-002    -3.0674273148179054E-002
   2.9600000000000015E-002    -9.1442475095391273E-003
   3.0700000000000005E-002     1.2327846139669418E-002
   3.1800000000000023E-002     3.2389473170042038E-002
   3.2900000000000013E-002     5.0266221165657043E-002
   3.4000000000000002E-002     6.0730937868356705E-002
   3.5100000000000020E-002     5.3022820502519608E-002
   3.6200000000000010E-002     1.6919741407036781E-002
   3.7300000000000028E-002    -4.6372015029191971E-002
   3.8400000000000017E-002   -0.11607690155506134
   3.9500000000000007E-002   -0.15478500723838806
   4.0600000000000025E-002   -0.12511274218559265
   4.1700000000000015E-002    -1.3027475215494633E-002
   4.2800000000000005E-002    0.15661612153053284
   4.3900000000000022E-002    0.32532694935798645
   4.5000000000000012E-002    0.42834922671318054
   4.6100000000000002E-002    0.43009755015373230
   4.7200000000000020E-002    0.34559395909309387
   4.8300000000000010E-002    0.23280832171440125
   4.9400000000000027E-002    0.15975371003150940
   5.0500000000000017E-002    0.16803669929504395
   5.1600000000000007E-002    0.25742468237876892
   5.2700000000000025E-002    0.40050902962684631
   5.3800000000000014E-002    0.57386523485183716
   5.4900000000000004E-002    0.77990716695785522
   5.6000000000000022E-002     1.0419716835021973
   5.7100000000000012E-002     1.3777264356613159
   5.8200000000000002E-002     1.7746174335479736
   5.9300000000000019E-002     2.1905605792999268
   6.0400000000000009E-002     2.5833683013916016
   6.1500000000000027E-002     2.9493172168731689
   6.2600000000000017E-002     3.3425076007843018
   6.3700000000000007E-002     3.8594510555267334
   6.4800000000000024E-002     4.5970392227172852
   6.5900000000000014E-002     5.6099348068237305
   6.7000000000000004E-002     6.8931512832641602
   6.8100000000000022E-002     8.3990764617919922
   6.9200000000000012E-002     10.077598571777344
   7.0300000000000029E-002     11.915508270263672
   7.1400000000000019E-002     13.953517913818359
   7.2500000000000009E-002     16.273290634155273
   7.3600000000000027E-002     18.963912963867188
   7.4700000000000016E-002     22.089679718017578
   7.5800000000000006E-002     25.679500579833984
   7.6900000000000024E-002     29.744968414306641
   7.8000000000000014E-002     34.313133239746094
   7.9100000000000004E-002     39.448802947998047
   8.0200000000000021E-002     45.246017456054688
   8.1300000000000011E-002     51.792407989501953
   8.2400000000000029E-002     59.131473541259766
   8.3500000000000019E-002     67.253356933593750
   8.4600000000000009E-002     76.123664855957031
   8.5700000000000026E-002     85.730598449707031
   8.6800000000000016E-002     96.113792419433594
   8.7900000000000006E-002     107.35153961181641
   8.9000000000000024E-002     119.51762390136719
   9.0100000000000013E-002     132.63815307617188
   9.1200000000000003E-002     146.67990112304688
   9.2300000000000021E-002     161.56584167480469
   9.3400000000000011E-002     177.19831848144531
   9.4500000000000028E-002     193.46473693847656
   9.5600000000000018E-002     210.22692871093750
   9.6700000000000008E-002     227.31494140625000
   9.7800000000000026E-002     244.54277038574219
   9.8900000000000016E-002     261.73437500000000
  0.10000000000000001          278.73107910156250
  0.10110000000000002          295.36129760742188
  0.10220000000000001          311.38082885742188
  0.10330000000000003          326.42550659179688
  0.10440000000000002          340.01434326171875
  0.10550000000000001          351.60754394531250
  0.10660000000000003          360.68710327148438
  0.10770000000000002          366.81555175781250
  0.10880000000000001          369.63577270507812
  0.10990000000000003          368.83175659179688
  0.11100000000000002          364.06344604492188
  0.11210000000000001          354.92318725585938
  0.11320000000000002          340.92590332031250
  0.11430000000000001          321.53207397460938
  0.11540000000000003          296.21298217773438
  0.11650000000000002          264.53305053710938
  0.11760000000000001          226.20835876464844
  0.11870000000000003          181.11923217773438
  0.11980000000000002          129.27259826660156
  0.12090000000000001          70.753631591796875
  0.12200000000000003          5.6861305236816406
  0.12310000000000001         -65.747169494628906
  0.12420000000000003         -143.25569152832031
  0.12530000000000002         -226.41210937500000
  0.12640000000000001         -314.66635131835938
  0.12750000000000003         -407.36920166015625
  0.12860000000000002         -503.76736450195312
  0.12970000000000001         -602.96691894531250
  0.13080000000000003         -703.85345458984375
  0.13190000000000002         -805.08563232421875
  0.13300000000000001         -905.17083740234375
  0.13410000000000000         -1002.5965576171875
  0.13520000000000004         -1095.9377441406250
  0.13630000000000003         -1183.8767089843750
  0.13740000000000002         -1265.1287841796875
  0.13850000000000001         -1338.3582763671875
  0.13960000000000000         -1402.1579589843750
  0.14070000000000005         -1455.1065673828125
  0.14180000000000004         -1495.8659667968750
  0.14290000000000003         -1523.2487792968750
  0.14400000000000002         -1536.2454833984375
  0.14510000000000001         -1534.0336914062500
  0.14620000000000000         -1515.9985351562500
  0.14730000000000004         -1481.7904052734375
  0.14840000000000003         -1431.3441162109375
  0.14950000000000002         -1364.8709716796875
  0.15060000000000001         -1282.8142089843750
  0.15170000000000000         -1185.8125000000000
  0.15280000000000005         -1074.7056884765625
  0.15390000000000004         -950.55535888671875
  0.15500000000000003         -814.65551757812500
  0.15610000000000002         -668.50695800781250
  0.15720000000000001         -513.80023193359375
  0.15830000000000000         -352.38824462890625
  0.15940000000000004         -186.29338073730469
  0.16050000000000003         -17.699911117553711
  0.16160000000000002          151.15299987792969
  0.16270000000000001          318.09661865234375
  0.16380000000000000          481.11663818359375
  0.16490000000000005          638.35284423828125
  0.16600000000000004          788.03393554687500
  0.16710000000000003          928.40435791015625
  0.16820000000000002          1057.7923583984375
  0.16930000000000001          1174.7248535156250
  0.17040000000000000          1278.0650634765625
  0.17150000000000004          1367.0184326171875
  0.17260000000000003          1441.0397949218750
  0.17370000000000002          1499.7639160156250
  0.17480000000000001          1543.0079345703125
  0.17590000000000000          1570.8636474609375
  0.17700000000000005          1583.7659912109375
  0.17810000000000004          1582.4670410156250
  0.17920000000000003          1567.9096679687500
  0.18030000000000002          1541.1179199218750
  0.18140000000000001          1503.1834716796875
  0.18250000000000000          1455.3276367187500
  0.18360000000000004          1398.9300537109375
  0.18470000000000003          1335.4577636718750
  0.18580000000000002          1266.3363037109375
  0.18690000000000001          1192.8708496093750
  0.18800000000000000          1116.2851562500000
  0.18910000000000005          1037.8133544921875
  0.19020000000000004          958.72882080078125
  0.19130000000000003          880.24481201171875
  0.19240000000000002          803.33380126953125
  0.19350000000000001          728.66796875000000
  0.19460000000000005          656.64739990234375
  0.19570000000000004          587.54766845703125
  0.19680000000000003          521.58319091796875
  0.19790000000000002          458.88381958007812
  0.19900000000000001          399.39868164062500
  0.20010000000000000          342.89276123046875
  0.20120000000000005          289.04895019531250
  0.20230000000000004          237.56733703613281
  0.20340000000000003          188.18218994140625
  0.20450000000000002          140.55773925781250
  0.20560000000000000          94.187446594238281
  0.20670000000000005          48.434570312500000
  0.20780000000000004          2.6915948390960693
  0.20890000000000003         -43.467758178710938
