 -0.12000000000000000          0.0000000000000000
 -0.11889999999999999          0.0000000000000000
 -0.11780000000000000          0.0000000000000000
 -0.11670000000000000          0.0000000000000000
 -0.11559999999999999         -2.0596352560273081E-016
 -0.11449999999999999          1.3421257166276886E-015
 -0.11340000000000000          1.1817231932852602E-014
 -0.11230000000000000          3.3664829821380970E-014
 -0.11119999999999999          3.9602036114392419E-014
 -0.11009999999999999         -2.5785424414160457E-014
 -0.10900000000000000         -1.6853537879515934E-013
 -0.10790000000000000         -2.4340138194897665E-013
 -0.10679999999999999         -5.8745461837053647E-015
 -0.10569999999999999          5.7835490953686564E-013
 -0.10460000000000000          1.0116828165138148E-012
 -0.10349999999999999          4.4854080844501654E-013
 -0.10239999999999999         -1.4168242317216806E-012
 -0.10130000000000000         -3.4452208880902946E-012
 -0.10020000000000000         -3.3627963694909946E-012
  -9.9099999999999994E-002     2.7402751834153249E-013
  -9.7999999999999990E-002     5.8874064477743016E-012
  -9.6899999999999986E-002     8.9732943298059809E-012
  -9.5799999999999996E-002     5.5146750881085449E-012
  -9.4699999999999993E-002    -3.6681556229989365E-012
  -9.3599999999999989E-002    -1.2061958203080092E-011
  -9.2499999999999999E-002    -1.2261085376163994E-011
  -9.1399999999999995E-002    -3.0707535039059541E-012
  -9.0299999999999991E-002     7.9744249398272515E-012
  -8.9200000000000002E-002     1.0524496205088774E-011
  -8.8099999999999984E-002     1.5256968865368092E-012
  -8.6999999999999994E-002    -1.0219378294984427E-011
  -8.5899999999999990E-002    -1.1058090207405336E-011
  -8.4799999999999986E-002     3.9490693701238477E-012
  -8.3699999999999997E-002     2.3853601385792622E-011
  -8.2599999999999993E-002     2.9673746099190268E-011
  -8.1499999999999989E-002     1.1726070635320607E-011
  -8.0399999999999999E-002    -1.9777990009628432E-011
  -7.9299999999999995E-002    -4.2347191725466971E-011
  -7.8199999999999992E-002    -4.1169782860617232E-011
  -7.7100000000000002E-002    -2.2262854754151462E-011
  -7.5999999999999984E-002    -5.0151315392210627E-012
  -7.4899999999999994E-002    -8.3976152854409181E-013
  -7.3799999999999991E-002    -1.4498275355875195E-013
  -7.2699999999999987E-002     1.6924269277684978E-011
  -7.1599999999999997E-002     5.4850162606312480E-011
  -7.0499999999999993E-002     8.8828680522290426E-011
  -6.9399999999999989E-002     8.0439793714859320E-011
  -6.8300000000000000E-002     1.1737208427398116E-011
  -6.7199999999999996E-002    -9.4152997898167001E-011
  -6.6099999999999992E-002    -1.8761753262097614E-010
  -6.5000000000000002E-002    -2.3070637067412747E-010
  -6.3899999999999985E-002    -2.2359858409259914E-010
  -6.2799999999999995E-002    -1.9516178950684804E-010
  -6.1699999999999991E-002    -1.6927095836116735E-010
  -6.0599999999999994E-002    -1.4285660154822466E-010
  -5.9499999999999990E-002    -9.8486031829825293E-011
  -5.8399999999999994E-002    -3.6563335692463284E-011
  -5.7299999999999990E-002     1.0105410432059703E-011
  -5.6199999999999986E-002    -1.4751239509405711E-012
  -5.5099999999999996E-002    -8.6858568948411374E-011
  -5.3999999999999992E-002    -2.2140732303110866E-010
  -5.2899999999999989E-002    -3.6733599495519798E-010
  -5.1799999999999985E-002    -5.1123161259880590E-010
  -5.0699999999999995E-002    -6.6867683612414908E-010
  -4.9599999999999991E-002    -8.4791657029015255E-010
  -4.8499999999999988E-002    -1.0137901629292401E-009
  -4.7399999999999998E-002    -1.1006995315199219E-009
  -4.6299999999999994E-002    -1.0742929879015151E-009
  -4.5199999999999990E-002    -9.8356056632553646E-010
  -4.4099999999999986E-002    -9.4270657946537995E-010
  -4.2999999999999997E-002    -1.0466579825063604E-009
  -4.1899999999999993E-002    -1.2941607785421638E-009
  -4.0799999999999989E-002    -1.5932198893509053E-009
  -3.9699999999999985E-002    -1.8467311013736776E-009
  -3.8599999999999995E-002    -2.0355945817840393E-009
  -3.7499999999999992E-002    -2.2169757141199398E-009
  -3.6399999999999988E-002    -2.4415847121872503E-009
  -3.5299999999999984E-002    -2.6796878049850648E-009
  -3.4199999999999994E-002    -2.8388502659737469E-009
  -3.3099999999999991E-002    -2.8587430200843755E-009
  -3.1999999999999987E-002    -2.7799302859676800E-009
  -3.0899999999999997E-002    -2.7024555926402627E-009
  -2.9799999999999993E-002    -2.6644426665001220E-009
  -2.8699999999999989E-002    -2.5635169542681524E-009
  -2.7599999999999986E-002    -2.2102832897274993E-009
  -2.6499999999999996E-002    -1.4685413995962904E-009
  -2.5399999999999992E-002    -3.3831520918070623E-010
  -2.4299999999999988E-002     1.1131384702878222E-009
  -2.3199999999999985E-002     2.9101150378352258E-009
  -2.2099999999999995E-002     5.2507527215084338E-009
  -2.0999999999999991E-002     8.4133544575593078E-009
  -1.9899999999999987E-002     1.2568980523042228E-008
  -1.8799999999999983E-002     1.7693087883685621E-008
  -1.7699999999999994E-002     2.3683005778707411E-008
  -1.6599999999999990E-002     3.0579048626577787E-008
  -1.5499999999999986E-002     3.8668126478569320E-008
  -1.4399999999999996E-002     4.8353555825997319E-008
  -1.3299999999999992E-002     5.9911101857323956E-008
  -1.2199999999999989E-002     7.3378018328185135E-008
  -1.1099999999999985E-002     8.8696310740488116E-008
  -9.9999999999999950E-003     1.0596939148399542E-007
  -8.8999999999999913E-003     1.2555889838949952E-007
  -7.7999999999999875E-003     1.4789773672418960E-007
  -6.6999999999999837E-003     1.7318764378160267E-007
  -5.5999999999999939E-003     2.0128500466398691E-007
  -4.4999999999999901E-003     2.3190479225831950E-007
  -3.3999999999999864E-003     2.6494763005757704E-007
  -2.2999999999999826E-003     3.0061303846196097E-007
  -1.1999999999999927E-003     3.3915978292498039E-007
  -9.9999999999988987E-005     3.8052979789426900E-007
   1.0000000000000148E-003     4.2420160184519773E-007
   2.1000000000000185E-003     4.6941704567871056E-007
   3.2000000000000084E-003     5.1554644642237690E-007
   4.3000000000000121E-003     5.6220494570879964E-007
   5.4000000000000159E-003     6.0897599496456678E-007
   6.5000000000000058E-003     6.5500415757924202E-007
   7.6000000000000234E-003     6.9886669962215819E-007
   8.7000000000000133E-003     7.3886161544578499E-007
   9.8000000000000032E-003     7.7342167514871107E-007
   1.0900000000000021E-002     8.0122225654122303E-007
   1.2000000000000011E-002     8.2085352914873511E-007
   1.3100000000000001E-002     8.3038247566946666E-007
   1.4200000000000018E-002     8.2726182881742716E-007
   1.5300000000000008E-002     8.0870847796177259E-007
   1.6400000000000026E-002     7.7219431204866851E-007
   1.7500000000000016E-002     7.1556797820448992E-007
   1.8600000000000005E-002     6.3669540395494550E-007
   1.9700000000000023E-002     5.3300698255043244E-007
   2.0800000000000013E-002     4.0145582147488312E-007
   2.1900000000000003E-002     2.3898851964077039E-007
   2.3000000000000020E-002     4.3109185554612850E-008
   2.4100000000000010E-002    -1.8798347412030125E-007
   2.5200000000000000E-002    -4.5577380092254316E-007
   2.6300000000000018E-002    -7.6187103559277602E-007
   2.7400000000000008E-002    -1.1079814612457994E-006
   2.8500000000000025E-002    -1.4953454865462845E-006
   2.9600000000000015E-002    -1.9241285826865351E-006
   3.0700000000000005E-002    -2.3933164357003989E-006
   3.1800000000000023E-002    -2.9011637252551736E-006
   3.2900000000000013E-002    -3.4456772937119240E-006
   3.4000000000000002E-002    -4.0245686250273138E-006
   3.5100000000000020E-002    -4.6346549424924888E-006
   3.6200000000000010E-002    -5.2712589422299061E-006
   3.7300000000000028E-002    -5.9281910580466501E-006
   3.8400000000000017E-002    -6.5983231252175756E-006
   3.9500000000000007E-002    -7.2741804615361616E-006
   4.0600000000000025E-002    -7.9479550549876876E-006
   4.1700000000000015E-002    -8.6109612311702222E-006
   4.2800000000000005E-002    -9.2531345217139460E-006
   4.3900000000000022E-002    -9.8631589935394004E-006
   4.5000000000000012E-002    -1.0429201211081818E-005
   4.6100000000000002E-002    -1.0939636013063136E-005
   4.7200000000000020E-002    -1.1383166565792635E-005
   4.8300000000000010E-002    -1.1748387805710081E-005
   4.9400000000000027E-002    -1.2023433555441443E-005
   5.0500000000000017E-002    -1.2196266652608756E-005
   5.1600000000000007E-002    -1.2255544788786210E-005
   5.2700000000000025E-002    -1.2191402674943674E-005
   5.3800000000000014E-002    -1.1995594832114875E-005
   5.4900000000000004E-002    -1.1661090866255108E-005
   5.6000000000000022E-002    -1.1181755326106213E-005
   5.7100000000000012E-002    -1.0552659659879282E-005
   5.8200000000000002E-002    -9.7709043984650634E-006
   5.9300000000000019E-002    -8.8362885435344651E-006
   6.0400000000000009E-002    -7.7513241194537841E-006
   6.1500000000000027E-002    -6.5207282204937655E-006
   6.2600000000000017E-002    -5.1510278353816830E-006
   6.3700000000000007E-002    -3.6507246932160342E-006
   6.4800000000000024E-002    -2.0308566490712110E-006
   6.5900000000000014E-002    -3.0533351491612848E-007
   6.7000000000000004E-002     1.5093635283847107E-006
   6.8100000000000022E-002     3.3949143016798189E-006
   6.9200000000000012E-002     5.3317303354560863E-006
   7.0300000000000029E-002     7.2990069384104572E-006
   7.1400000000000019E-002     9.2744849098380655E-006
   7.2500000000000009E-002     1.1234502380830236E-005
   7.3600000000000027E-002     1.3154603948350996E-005
   7.4700000000000016E-002     1.5010436982265674E-005
   7.5800000000000006E-002     1.6778361896285787E-005
   7.6900000000000024E-002     1.8435555830365047E-005
   7.8000000000000014E-002     1.9959934434155002E-005
   7.9100000000000004E-002     2.1330375602701679E-005
   8.0200000000000021E-002     2.2527423425344750E-005
   8.1300000000000011E-002     2.3534092179033905E-005
   8.2400000000000029E-002     2.4336257411050610E-005
   8.3500000000000019E-002     2.4922564989537932E-005
   8.4600000000000009E-002     2.5284216462750919E-005
   8.5700000000000026E-002     2.5415129130124114E-005
   8.6800000000000016E-002     2.5312454454251565E-005
   8.7900000000000006E-002     2.4977041903184727E-005
   8.9000000000000024E-002     2.4413355276919901E-005
   9.0100000000000013E-002     2.3628930648555979E-005
   9.1200000000000003E-002     2.2633856133325025E-005
   9.2300000000000021E-002     2.1440690034069121E-005
   9.3400000000000011E-002     2.0064724594703875E-005
   9.4500000000000028E-002     1.8524058759794571E-005
   9.5600000000000018E-002     1.6839110685396008E-005
   9.6700000000000008E-002     1.5031747352622915E-005
   9.7800000000000026E-002     1.3124572433298454E-005
   9.8900000000000016E-002     1.1140752576466184E-005
  0.10000000000000001          9.1041747509734705E-006
  0.10110000000000002          7.0393489295383915E-006
  0.10220000000000001          4.9707568905432709E-006
  0.10330000000000003          2.9219133921287721E-006
  0.10440000000000002          9.1474305463634664E-007
  0.10550000000000001         -1.0304410125172581E-006
  0.10660000000000003         -2.8946537895535585E-006
  0.10770000000000002         -4.6602422116848174E-006
  0.10880000000000001         -6.3114125623542350E-006
  0.10990000000000003         -7.8349303294089623E-006
  0.11100000000000002         -9.2204018073971383E-006
  0.11210000000000001         -1.0459953955432866E-005
  0.11320000000000002         -1.1547694157343358E-005
  0.11430000000000001         -1.2479535143938847E-005
  0.11540000000000003         -1.3253520592115819E-005
  0.11650000000000002         -1.3870235306967515E-005
  0.11760000000000001         -1.4332748833112419E-005
  0.11870000000000003         -1.4646027011622209E-005
  0.11980000000000002         -1.4816268958384171E-005
  0.12090000000000001         -1.4850681509415153E-005
  0.12200000000000003         -1.4757724784431048E-005
  0.12310000000000001         -1.4547335922543425E-005
  0.12420000000000003         -1.4230648957891390E-005
  0.12530000000000002         -1.3819279956805985E-005
  0.12640000000000001         -1.3324691281013656E-005
  0.12750000000000003         -1.2758103366650175E-005
  0.12860000000000002         -1.2130823051847983E-005
  0.12970000000000001         -1.1454447303549387E-005
  0.13080000000000003         -1.0740545803855639E-005
  0.13190000000000002         -9.9999842859688215E-006
  0.13300000000000001         -9.2424988906714134E-006
  0.13410000000000000         -8.4768498709308915E-006
  0.13520000000000004         -7.7113281804486178E-006
  0.13630000000000003         -6.9539919422823004E-006
  0.13740000000000002         -6.2123253883328289E-006
  0.13850000000000001         -5.4926258599152789E-006
  0.13960000000000000         -4.7997395995480474E-006
  0.14070000000000005         -4.1374219108547550E-006
  0.14180000000000004         -3.5089656194031704E-006
  0.14290000000000003         -2.9174625524319708E-006
  0.14400000000000002         -2.3654597498534713E-006
  0.14510000000000001         -1.8544109252616181E-006
  0.14620000000000000         -1.3845552757629775E-006
  0.14730000000000004         -9.5541236078133807E-007
  0.14840000000000003         -5.6645001222932478E-007
  0.14950000000000002         -2.1729839261297457E-007
  0.15060000000000001          9.2644640403705125E-008
  0.15170000000000000          3.6474304465627938E-007
  0.15280000000000005          6.0118247802165570E-007
  0.15390000000000004          8.0445124694961123E-007
  0.15500000000000003          9.7673603249859298E-007
  0.15610000000000002          1.1198110314580845E-006
  0.15720000000000001          1.2354781802059733E-006
  0.15830000000000000          1.3260489595268155E-006
  0.15940000000000004          1.3943230214863434E-006
  0.16050000000000003          1.4430562487177667E-006
  0.16160000000000002          1.4744415466338978E-006
  0.16270000000000001          1.4901079339324497E-006
  0.16380000000000000          1.4915998463038704E-006
  0.16490000000000005          1.4808113064646022E-006
  0.16600000000000004          1.4599171436202596E-006
  0.16710000000000003          1.4308884601632599E-006
  0.16820000000000002          1.3951106438980787E-006
  0.16930000000000001          1.3535035350287217E-006
  0.17040000000000000          1.3070009572402341E-006
  0.17150000000000004          1.2568747251862078E-006
  0.17260000000000003          1.2045624089296325E-006
  0.17370000000000002          1.1511930324559216E-006
  0.17480000000000001          1.0973188864227268E-006
  0.17590000000000000          1.0431371038066573E-006
  0.17700000000000005          9.8896327926922822E-007
  0.17810000000000004          9.3545872914546635E-007
  0.17920000000000003          8.8338742898486089E-007
  0.18030000000000002          8.3318150245759171E-007
  0.18140000000000001          7.8479308740497800E-007
  0.18250000000000000          7.3799623123704805E-007
  0.18360000000000004          6.9282134518289240E-007
  0.18470000000000003          6.4966775426000822E-007
  0.18580000000000002          6.0898548781551654E-007
  0.18690000000000001          5.7087640925601590E-007
  0.18800000000000000          5.3504004426940810E-007
  0.18910000000000005          5.0111668770114193E-007
  0.19020000000000004          4.6905697104193678E-007
  0.19130000000000003          4.3912564251513686E-007
  0.19240000000000002          4.1154382302011072E-007
  0.19350000000000001          3.8615945641140570E-007
  0.19460000000000005          3.6250213497623918E-007
  0.19570000000000004          3.4016488825727720E-007
  0.19680000000000003          3.1911136488815828E-007
  0.19790000000000002          2.9959090852571535E-007
  0.19900000000000001          2.8176253863421152E-007
  0.20010000000000000          2.6543031594883360E-007
  0.20120000000000005          2.5016325366777892E-007
  0.20230000000000004          2.3565672790937242E-007
  0.20340000000000003          2.2194160465005552E-007
  0.20450000000000002          2.0922124122080277E-007
  0.20560000000000000          1.9752096136471664E-007
  0.20670000000000005          1.8653196320883580E-007
  0.20780000000000004          1.7581682243417163E-007
  0.20890000000000003          1.6515417655682540E-007
