 -0.12000000000000000          0.0000000000000000
 -0.11889999999999999          0.0000000000000000
 -0.11780000000000000          0.0000000000000000
 -0.11670000000000000          0.0000000000000000
 -0.11559999999999999          0.0000000000000000
 -0.11449999999999999          0.0000000000000000
 -0.11340000000000000          0.0000000000000000
 -0.11230000000000000          0.0000000000000000
 -0.11119999999999999          0.0000000000000000
 -0.11009999999999999          0.0000000000000000
 -0.10900000000000000          0.0000000000000000
 -0.10790000000000000          0.0000000000000000
 -0.10679999999999999         -6.1266268249637830E-039
 -0.10569999999999999         -1.6717643140667986E-037
 -0.10460000000000000         -2.3582576964049241E-036
 -0.10349999999999999         -1.6146647513094114E-035
 -0.10239999999999999         -6.9030343259624866E-035
 -0.10130000000000000         -2.2194743018390813E-034
 -0.10020000000000000         -5.0285696823884102E-034
  -9.9099999999999994E-002    -1.3206668699995082E-034
  -9.7999999999999990E-002     4.1118928308297931E-033
  -9.6899999999999986E-002     1.2955693355172579E-032
  -9.5799999999999996E-002     1.9159428341800543E-034
  -9.4699999999999993E-002    -8.4123071844774429E-032
  -9.3599999999999989E-002    -1.1690293669916351E-031
  -9.2499999999999999E-002     4.6250666887058091E-031
  -9.1399999999999995E-002     1.6692320708230293E-030
  -9.0299999999999991E-002    -2.8195224121704660E-031
  -8.9200000000000002E-002    -1.1924495308752713E-029
  -8.8099999999999984E-002    -2.1583592950928404E-029
  -8.6999999999999994E-002     2.8705182347193076E-029
  -8.5899999999999990E-002     1.7746109527335675E-028
  -8.4799999999999986E-002     1.9279625227022935E-028
  -8.3699999999999997E-002    -5.2347921816761981E-028
  -8.2599999999999993E-002    -1.9258977813571646E-027
  -8.1499999999999989E-002    -1.2181565639112571E-027
  -8.0399999999999999E-002     6.2830664133494431E-027
  -7.9299999999999995E-002     1.6888790912610684E-026
  -7.8199999999999992E-002     4.9197214057611182E-027
  -7.7100000000000002E-002    -5.9589492748553841E-026
  -7.5999999999999984E-002    -1.2882994678943647E-025
  -7.4899999999999994E-002    -5.3243673759826429E-027
  -7.3799999999999991E-002     4.7945294420290161E-025
  -7.2699999999999987E-002     9.0479801752430716E-025
  -7.1599999999999997E-002    -7.0397971833826382E-026
  -7.0499999999999993E-002    -3.3598848130811246E-024
  -6.9399999999999989E-002    -6.0275934856373877E-024
  -6.8300000000000000E-002     2.0040709311324525E-025
  -6.7199999999999996E-002     2.0544965620109386E-023
  -6.6099999999999992E-002     3.7974798411591518E-023
  -6.5000000000000002E-002     5.6732864708186855E-024
  -6.3899999999999985E-002    -1.0827282531581570E-022
  -6.2799999999999995E-002    -2.2098447628200140E-022
  -6.1699999999999991E-002    -9.0299317477064296E-023
  -6.0599999999999994E-002     4.7945355280908998E-022
  -5.9499999999999990E-002     1.1562809623851420E-021
  -5.8399999999999994E-002     8.0668118471753308E-022
  -5.7299999999999990E-002    -1.6907244564189272E-021
  -5.6199999999999986E-002    -5.3168423276781001E-021
  -5.5099999999999996E-002    -5.3355613280049471E-021
  -5.3999999999999992E-002     4.0242470086643343E-021
  -5.2899999999999989E-002     2.1020554448680489E-020
  -5.1799999999999985E-002     2.8298999053478408E-020
  -5.0699999999999995E-002    -3.5610743837357535E-022
  -4.9599999999999991E-002    -6.9260246279371284E-020
  -4.8499999999999988E-002    -1.2418625387441701E-019
  -4.7399999999999998E-002    -6.0869151662222911E-020
  -4.6299999999999994E-002     1.7755412461405132E-019
  -4.5199999999999990E-002     4.5489319202008818E-019
  -4.4099999999999986E-002     4.1088025579463698E-019
  -4.2999999999999997E-002    -2.7511616168146838E-019
  -4.1899999999999993E-002    -1.3761926894160839E-018
  -4.0799999999999989E-002    -1.8261054269679903E-018
  -3.9699999999999985E-002    -2.8999047175760864E-019
  -3.8599999999999995E-002     3.2902089073322551E-018
  -3.7499999999999992E-002     6.2962217172484414E-018
  -3.6399999999999988E-002     4.2158843969638094E-018
  -3.5299999999999984E-002    -5.3100536822402716E-018
  -3.4199999999999994E-002    -1.7386987405646144E-017
  -3.3099999999999991E-002    -1.9329943674665826E-017
  -3.1999999999999987E-002     5.1374879866324949E-019
  -3.0899999999999997E-002     3.7457818557002241E-017
  -2.9799999999999993E-002     6.2122474995149156E-017
  -2.8699999999999989E-002     3.5050004981701234E-017
  -2.7599999999999986E-002    -5.4712796208691047E-017
  -2.6499999999999996E-002    -1.5412484453297161E-016
  -2.5399999999999992E-002    -1.5794649837230540E-016
  -2.4299999999999988E-002     1.0406030540409982E-017
  -2.3199999999999985E-002     2.9143240576358072E-016
  -2.2099999999999995E-002     4.5873446244764867E-016
  -2.0999999999999991E-002     2.5257138117650067E-016
  -1.9899999999999987E-002    -3.5967843265901093E-016
  -1.8799999999999983E-002    -9.9907949057206511E-016
  -1.7699999999999994E-002    -1.0159545044637389E-015
  -1.6599999999999990E-002    -6.7879040772045552E-018
  -1.5499999999999986E-002     1.6159073057292494E-015
  -1.4399999999999996E-002     2.5709063546932535E-015
  -1.3299999999999992E-002     1.5240872401809887E-015
  -1.2199999999999989E-002    -1.5883497240650412E-015
  -1.1099999999999985E-002    -4.8125714263052340E-015
  -9.9999999999999950E-003    -5.0693346411887982E-015
  -8.8999999999999913E-003    -6.2446471714918826E-016
  -7.7999999999999875E-003     6.5504539116588260E-015
  -6.6999999999999837E-003     1.0925480728180958E-014
  -5.5999999999999939E-003     7.1012112511060436E-015
  -4.4999999999999901E-003    -4.9556996656004767E-015
  -3.3999999999999864E-003    -1.7537422455546868E-014
  -2.2999999999999826E-003    -1.9212780780382410E-014
  -1.1999999999999927E-003    -4.0627278864518394E-015
  -9.9999999999988987E-005     2.0562011091734313E-014
   1.0000000000000148E-003     3.5729926639973056E-014
   2.1000000000000185E-003     2.4134621574465817E-014
   3.2000000000000084E-003    -1.3267107546030207E-014
   4.3000000000000121E-003    -5.1535273444536234E-014
   5.4000000000000159E-003    -5.6242801350437147E-014
   6.5000000000000058E-003    -1.1832791081060716E-014
   7.6000000000000234E-003     5.7693446916563806E-014
   8.7000000000000133E-003     9.7515149167365367E-014
   9.8000000000000032E-003     6.1919646656121569E-014
   1.0900000000000021E-002    -4.1064824744850917E-014
   1.2000000000000011E-002    -1.3972046989437631E-013
   1.3100000000000001E-002    -1.4348705600422673E-013
   1.4200000000000018E-002    -1.8949029967200472E-014
   1.5300000000000008E-002     1.6231354910307971E-013
   1.6400000000000026E-002     2.5576250644275544E-013
   1.7500000000000016E-002     1.5095621963816946E-013
   1.8600000000000005E-002    -1.2004150928487944E-013
   1.9700000000000023E-002    -3.6904878567174670E-013
   2.0800000000000013E-002    -3.7208891566845037E-013
   2.1900000000000003E-002    -5.5143528767754094E-014
   2.3000000000000020E-002     3.9963873681679585E-013
   2.4100000000000010E-002     6.4160140958793854E-013
   2.5200000000000000E-002     4.0843779638803646E-013
   2.6300000000000018E-002    -2.2601519722616203E-013
   2.7400000000000008E-002    -8.2914415350937576E-013
   2.8500000000000025E-002    -8.8824043606439140E-013
   2.9600000000000015E-002    -2.2613722418067528E-013
   3.0700000000000005E-002     7.6842563345377868E-013
   3.1800000000000023E-002     1.3370733556797298E-012
   3.2900000000000013E-002     9.0875945006965719E-013
   3.4000000000000002E-002    -3.7243092724376092E-013
   3.5100000000000020E-002    -1.6054709645052512E-012
   3.6200000000000010E-002    -1.7259124901816691E-012
   3.7300000000000028E-002    -3.7721613484718863E-013
   3.8400000000000017E-002     1.6180021732148386E-012
   3.9500000000000007E-002     2.6825130658436613E-012
   4.0600000000000025E-002     1.6544270294016616E-012
   4.1700000000000015E-002    -1.1162540076298244E-012
   4.2800000000000005E-002    -3.6927401241004798E-012
   4.3900000000000022E-002    -3.8040668705330294E-012
   4.5000000000000012E-002    -6.8311177027491343E-013
   4.6100000000000002E-002     3.9154612711811421E-012
   4.7200000000000020E-002     6.5589218084527445E-012
   4.8300000000000010E-002     4.5692334464664253E-012
   4.9400000000000027E-002    -1.6047930128867960E-012
   5.0500000000000017E-002    -8.0358688453463500E-012
   5.1600000000000007E-002    -9.7093010714699446E-012
   5.2700000000000025E-002    -4.2933733825079035E-012
   5.3800000000000014E-002     5.4679286272396599E-012
   5.4900000000000004E-002     1.2924643993939000E-011
   5.6000000000000022E-002     1.1991596951532735E-011
   5.7100000000000012E-002     1.9751468256085092E-012
   5.8200000000000002E-002    -1.0986734091944506E-011
   5.9300000000000019E-002    -1.7560574522290651E-011
   6.0400000000000009E-002    -1.1889894450944904E-011
   6.1500000000000027E-002     3.4296389513077674E-012
   6.2600000000000017E-002     1.8165252288482314E-011
   6.3700000000000007E-002     2.1198690372536966E-011
   6.4800000000000024E-002     8.7787589697629898E-012
   6.5900000000000014E-002    -1.1846683356520060E-011
   6.7000000000000004E-002    -2.6656506862954288E-011
   6.8100000000000022E-002    -2.4479607577121421E-011
   6.9200000000000012E-002    -5.2298447690557470E-012
   7.0300000000000029E-002     1.9461541753140743E-011
   7.1400000000000019E-002     3.4002512611097657E-011
   7.2500000000000009E-002     2.9422821817837175E-011
   7.3600000000000027E-002     8.9501340366782145E-012
   7.4700000000000016E-002    -1.5377386863857367E-011
   7.5800000000000006E-002    -3.1857814997149347E-011
   7.6900000000000024E-002    -3.6225116656352085E-011
   7.8000000000000014E-002    -3.0981339022018162E-011
   7.9100000000000004E-002    -1.8631996986928634E-011
   8.0200000000000021E-002     3.1740521669321176E-012
   8.1300000000000011E-002     3.7633257621294547E-011
   8.2400000000000029E-002     7.7736969639197184E-011
   8.3500000000000019E-002     9.9511641982186205E-011
   8.4600000000000009E-002     7.1503400422834318E-011
   8.5700000000000026E-002    -1.9447384674853296E-011
   8.6800000000000016E-002    -1.4321444030684916E-010
   8.7900000000000006E-002    -2.2691540313424241E-010
   8.9000000000000024E-002    -1.9318235899845604E-010
   9.0100000000000013E-002    -1.9767508810386580E-011
   9.1200000000000003E-002     2.2091567464244122E-010
   9.2300000000000021E-002     3.8223033071993484E-010
   9.3400000000000011E-002     3.2838040620042364E-010
   9.4500000000000028E-002     3.8494100268460230E-011
   9.5600000000000018E-002    -3.4467348419831012E-010
   9.6700000000000008E-002    -5.7415716625541791E-010
   9.7800000000000026E-002    -4.5065495779539333E-010
   9.8900000000000016E-002     2.2521436104927517E-011
  0.10000000000000001          5.9448018729924001E-010
  0.10110000000000002          8.8914686724450576E-010
  0.10220000000000001          6.4217819950584953E-010
  0.10330000000000003         -9.4179483656198215E-011
  0.10440000000000002         -9.2955948494122254E-010
  0.10550000000000001         -1.3443587354444730E-009
  0.10660000000000003         -1.0199840971836238E-009
  0.10770000000000002         -7.7931688879928629E-011
  0.10880000000000001          9.5247720821589610E-010
  0.10990000000000003          1.4520487034985763E-009
  0.11100000000000002          1.1293014301472226E-009
  0.11210000000000001          2.5468693820585031E-010
  0.11320000000000002         -4.8141163278003773E-010
  0.11430000000000001         -4.4015155409304896E-010
  0.11540000000000003          4.5281531302343581E-010
  0.11650000000000002          1.5156527144455367E-009
  0.11760000000000001          1.6369652300340931E-009
  0.11870000000000003         -6.6582165128559190E-012
  0.11980000000000002         -3.2543852057642653E-009
  0.12090000000000001         -6.7502385903139839E-009
  0.12200000000000003         -8.4410629597186926E-009
  0.12310000000000001         -6.5979883778766180E-009
  0.12420000000000003         -8.3942958140070800E-010
  0.12530000000000002          7.4193713395231953E-009
  0.12640000000000001          1.5386545371143256E-008
  0.12750000000000003          2.0018978474922733E-008
  0.12860000000000002          1.9305662846136329E-008
  0.12970000000000001          1.3073968574417449E-008
  0.13080000000000003          2.9370652576687917E-009
  0.13190000000000002         -8.5504749947062919E-009
  0.13300000000000001         -1.9065376832827496E-008
  0.13410000000000000         -2.7416708903160725E-008
  0.13520000000000004         -3.3757643791432201E-008
  0.13630000000000003         -3.9081058389456302E-008
  0.13740000000000002         -4.4361023299188673E-008
  0.13850000000000001         -4.9889059994256968E-008
  0.13960000000000000         -5.5242207253058950E-008
  0.14070000000000005         -5.9958445319807652E-008
  0.14180000000000004         -6.4559309009837307E-008
  0.14290000000000003         -7.1279757207776129E-008
  0.14400000000000002         -8.3923410443276225E-008
  0.14510000000000001         -1.0668740202390836E-007
  0.14620000000000000         -1.4241939538806037E-007
  0.14730000000000004         -1.9124486527744011E-007
  0.14840000000000003         -2.5050448471120035E-007
  0.14950000000000002         -3.1634888841836073E-007
  0.15060000000000001         -3.8639075228275033E-007
  0.15170000000000000         -4.6204542059058440E-007
  0.15280000000000005         -5.4914028169150697E-007
  0.15390000000000004         -6.5622663214526256E-007
  0.15500000000000003         -7.9140147590806009E-007
  0.15610000000000002         -9.5952202627813676E-007
  0.15720000000000001         -1.1616970141403726E-006
  0.15830000000000000         -1.3976804211779381E-006
  0.15940000000000004         -1.6699084426363697E-006
  0.16050000000000003         -1.9866010916302912E-006
  0.16160000000000002         -2.3615998543391470E-006
  0.16270000000000001         -2.8105005185352638E-006
  0.16380000000000000         -3.3451490253355587E-006
  0.16490000000000005         -3.9700689740129746E-006
  0.16600000000000004         -4.6836776164127514E-006
  0.16710000000000003         -5.4844040278112516E-006
  0.16820000000000002         -6.3785546444705687E-006
  0.16930000000000001         -7.3850806074915454E-006
  0.17040000000000000         -8.5337260316009633E-006
  0.17150000000000004         -9.8567479653866030E-006
  0.17260000000000003         -1.1378444469301030E-005
  0.17370000000000002         -1.3108557141094934E-005
  0.17480000000000001         -1.5043756320665125E-005
  0.17590000000000000         -1.7176786059280857E-005
  0.17700000000000005         -1.9508119294187054E-005
  0.17810000000000004         -2.2053092834539711E-005
  0.17920000000000003         -2.4839886464178562E-005
  0.18030000000000002         -2.7899090127903037E-005
  0.18140000000000001         -3.1250518077285960E-005
  0.18250000000000000         -3.4894612326752394E-005
  0.18360000000000004         -3.8813228457001969E-005
  0.18470000000000003         -4.2978768760804087E-005
  0.18580000000000002         -4.7365832870127633E-005
  0.18690000000000001         -5.1958260883111507E-005
  0.18800000000000000         -5.6747176131466404E-005
  0.18910000000000005         -6.1721024394501001E-005
  0.19020000000000004         -6.6853433963842690E-005
  0.19130000000000003         -7.2095550422091037E-005
  0.19240000000000002         -7.7376156696118414E-005
  0.19350000000000001         -8.2608778029680252E-005
  0.19460000000000005         -8.7701329903211445E-005
  0.19570000000000004         -9.2562651843763888E-005
  0.19680000000000003         -9.7102507425006479E-005
  0.19790000000000002         -1.0122617095476016E-004
  0.19900000000000001         -1.0482794459676370E-004
  0.20010000000000000         -1.0778760770335793E-004
  0.20120000000000005         -1.0997199569828808E-004
  0.20230000000000004         -1.1124052252853289E-004
  0.20340000000000003         -1.1145144526381046E-004
  0.20450000000000002         -1.1046625149901956E-004
  0.20560000000000000         -1.0815029963850975E-004
  0.20670000000000005         -1.0437141463626176E-004
  0.20780000000000004         -9.9000106274615973E-005
  0.20890000000000003         -9.1912741481792182E-005
