 -0.12000000000000000          0.0000000000000000
 -0.11889999999999999          0.0000000000000000
 -0.11780000000000000          0.0000000000000000
 -0.11670000000000000         -1.1480296234367415E-004
 -0.11559999999999999         -3.0092746601440012E-004
 -0.11449999999999999          1.2022603914374486E-004
 -0.11340000000000000          1.9609245937317610E-003
 -0.11230000000000000          4.3469131924211979E-003
 -0.11119999999999999          3.7432729732245207E-003
 -0.11009999999999999         -3.3235871233046055E-003
 -0.10900000000000000         -1.4751536771655083E-002
 -0.10790000000000000         -2.0622745156288147E-002
 -0.10679999999999999         -9.8670087754726410E-003
 -0.10569999999999999          1.7222203314304352E-002
 -0.10460000000000000          4.3014585971832275E-002
 -0.10349999999999999          4.3478116393089294E-002
 -0.10239999999999999          1.0545609518885612E-002
 -0.10130000000000000         -3.5100191831588745E-002
 -0.10020000000000000         -5.8033499866724014E-002
  -9.9099999999999994E-002    -4.0855396538972855E-002
  -9.7999999999999990E-002    -4.0498464368283749E-003
  -9.6899999999999986E-002     1.2465488165616989E-002
  -9.5799999999999996E-002    -6.1406302265822887E-003
  -9.4699999999999993E-002    -2.5104537606239319E-002
  -9.3599999999999989E-002     8.9908856898546219E-003
  -9.2499999999999999E-002    0.10175554454326630
  -9.1399999999999995E-002    0.17742148041725159
  -9.0299999999999991E-002    0.13028813898563385
  -8.9200000000000002E-002    -6.7391671240329742E-002
  -8.8099999999999984E-002   -0.30179643630981445
  -8.6999999999999994E-002   -0.38055518269538879
  -8.5899999999999990E-002   -0.19337004423141479
  -8.4799999999999986E-002    0.16611243784427643
  -8.3699999999999997E-002    0.44373822212219238
  -8.2599999999999993E-002    0.42121121287345886
  -8.1499999999999989E-002    0.10416100174188614
  -8.0399999999999999E-002   -0.27071839570999146
  -7.9299999999999995E-002   -0.42822706699371338
  -7.8199999999999992E-002   -0.28135734796524048
  -7.7100000000000002E-002     1.0508424602448940E-002
  -7.5999999999999984E-002    0.19987951219081879
  -7.4899999999999994E-002    0.17127385735511780
  -7.3799999999999991E-002     1.5957111492753029E-002
  -7.2699999999999987E-002    -9.5015592873096466E-002
  -7.1599999999999997E-002    -9.3331322073936462E-002
  -7.0499999999999993E-002    -5.8789730072021484E-002
  -6.9399999999999989E-002    -9.1726541519165039E-002
  -6.8300000000000000E-002   -0.16959300637245178
  -6.7199999999999996E-002   -0.16295556724071503
  -6.6099999999999992E-002    -3.5204056184738874E-003
  -6.5000000000000002E-002    0.18957889080047607
  -6.3899999999999985E-002    0.19421933591365814
  -6.2799999999999995E-002    -7.8826338052749634E-002
  -6.1699999999999991E-002   -0.44835937023162842
  -6.0599999999999994E-002   -0.60147881507873535
  -5.9499999999999990E-002   -0.40001490712165833
  -5.8399999999999994E-002    -4.1885405778884888E-002
  -5.7299999999999990E-002    0.11725294589996338
  -5.6199999999999986E-002    -7.2508178651332855E-002
  -5.5099999999999996E-002   -0.38225236535072327
  -5.3999999999999992E-002   -0.43099293112754822
  -5.2899999999999989E-002   -0.10677310079336166
  -5.1799999999999985E-002    0.26038181781768799
  -5.0699999999999995E-002    0.19659900665283203
  -4.9599999999999991E-002   -0.41081151366233826
  -4.8499999999999988E-002    -1.1212824583053589
  -4.7399999999999998E-002    -1.3066341876983643
  -4.6299999999999994E-002   -0.75526690483093262
  -4.5199999999999990E-002     8.4355391561985016E-002
  -4.4099999999999986E-002    0.49596205353736877
  -4.2999999999999997E-002    0.16492389142513275
  -4.1899999999999993E-002   -0.53461360931396484
  -4.0799999999999989E-002   -0.92819440364837646
  -3.9699999999999985E-002   -0.71426874399185181
  -3.8599999999999995E-002   -0.23131297528743744
  -3.7499999999999992E-002    -4.4639080762863159E-002
  -3.6399999999999988E-002   -0.29841834306716919
  -3.5299999999999984E-002   -0.54392546415328979
  -3.4199999999999994E-002   -0.25734791159629822
  -3.3099999999999991E-002    0.50039684772491455
  -3.1999999999999987E-002     1.0354738235473633
  -3.0899999999999997E-002    0.71986943483352661
  -2.9799999999999993E-002   -0.25713154673576355
  -2.8699999999999989E-002   -0.92623758316040039
  -2.7599999999999986E-002   -0.43919801712036133
  -2.6499999999999996E-002     1.0246930122375488
  -2.5399999999999992E-002     2.3143420219421387
  -2.4299999999999988E-002     2.3760454654693604
  -2.3199999999999985E-002     1.3265535831451416
  -2.2099999999999995E-002    0.42342102527618408
  -2.0999999999999991E-002    0.87501949071884155
  -1.9899999999999987E-002     2.6189780235290527
  -1.8799999999999983E-002     4.3076658248901367
  -1.7699999999999994E-002     4.5801892280578613
  -1.6599999999999990E-002     3.4033279418945312
  -1.5499999999999986E-002     2.1392443180084229
  -1.4399999999999996E-002     2.2331910133361816
  -1.3299999999999992E-002     3.8055882453918457
  -1.2199999999999989E-002     5.5547661781311035
  -1.1099999999999985E-002     6.0787630081176758
  -9.9999999999999950E-003     5.2831859588623047
  -8.8999999999999913E-003     4.4435396194458008
  -7.7999999999999875E-003     4.8441333770751953
  -6.6999999999999837E-003     6.3885688781738281
  -5.5999999999999939E-003     7.6359038352966309
  -4.4999999999999901E-003     7.2711868286132812
  -3.3999999999999864E-003     5.5264329910278320
  -2.2999999999999826E-003     4.0534253120422363
  -1.1999999999999927E-003     4.3223414421081543
  -9.9999999999988987E-005     6.1130065917968750
   1.0000000000000148E-003     7.6589426994323730
   2.1000000000000185E-003     7.3327050209045410
   3.2000000000000084E-003     5.2245812416076660
   4.3000000000000121E-003     3.0179159641265869
   5.4000000000000159E-003     2.2943265438079834
   6.5000000000000058E-003     2.9621098041534424
   7.6000000000000234E-003     3.4029841423034668
   8.7000000000000133E-003     2.1631979942321777
   9.8000000000000032E-003   -0.52638143301010132
   1.0900000000000021E-002    -2.9693331718444824
   1.2000000000000011E-002    -3.7254762649536133
   1.3100000000000001E-002    -3.1008589267730713
   1.4200000000000018E-002    -2.8663032054901123
   1.5300000000000008E-002    -4.4877038002014160
   1.6400000000000026E-002    -7.6704406738281250
   1.7500000000000016E-002    -10.675731658935547
   1.8600000000000005E-002    -12.063172340393066
   1.9700000000000023E-002    -12.093446731567383
   2.0800000000000013E-002    -12.356214523315430
   2.1900000000000003E-002    -14.067896842956543
   2.3000000000000020E-002    -16.800193786621094
   2.4100000000000010E-002    -18.939252853393555
   2.5200000000000000E-002    -19.380285263061523
   2.6300000000000018E-002    -18.673067092895508
   2.7400000000000008E-002    -18.438596725463867
   2.8500000000000025E-002    -19.663644790649414
   2.9600000000000015E-002    -21.655717849731445
   3.0700000000000005E-002    -22.729894638061523
   3.1800000000000023E-002    -21.915145874023438
   3.2900000000000013E-002    -19.936492919921875
   3.4000000000000002E-002    -18.412721633911133
   3.5100000000000020E-002    -18.155157089233398
   3.6200000000000010E-002    -18.337219238281250
   3.7300000000000028E-002    -17.359001159667969
   3.8400000000000017E-002    -14.567448616027832
   3.9500000000000007E-002    -10.933621406555176
   4.0600000000000025E-002    -8.1019811630249023
   4.1700000000000015E-002    -6.6651797294616699
   4.2800000000000005E-002    -5.5981130599975586
   4.3900000000000022E-002    -3.2938046455383301
   4.5000000000000012E-002    0.72345501184463501
   4.6100000000000002E-002     5.2643790245056152
   4.7200000000000020E-002     8.6548128128051758
   4.8300000000000010E-002     10.472254753112793
   4.9400000000000027E-002     11.914249420166016
   5.0500000000000017E-002     14.569645881652832
   5.1600000000000007E-002     18.737443923950195
   5.2700000000000025E-002     23.041635513305664
   5.3800000000000014E-002     25.754446029663086
   5.4900000000000004E-002     26.456174850463867
   5.6000000000000022E-002     26.411901473999023
   5.7100000000000012E-002     27.254665374755859
   5.8200000000000002E-002     29.301321029663086
   5.9300000000000019E-002     31.323627471923828
   6.0400000000000009E-002     31.807521820068359
   6.1500000000000027E-002     30.494752883911133
   6.2600000000000017E-002     28.565456390380859
   6.3700000000000007E-002     27.388036727905273
   6.4800000000000024E-002     27.101995468139648
   6.5900000000000014E-002     26.521139144897461
   6.7000000000000004E-002     24.390470504760742
   6.8100000000000022E-002     20.686470031738281
   6.9200000000000012E-002     16.605909347534180
   7.0300000000000029E-002     13.377235412597656
   7.1400000000000019E-002     11.109965324401855
   7.2500000000000009E-002     8.7797021865844727
   7.3600000000000027E-002     5.4425363540649414
   7.4700000000000016E-002     1.2402226924896240
   7.5800000000000006E-002    -2.7518632411956787
   7.6900000000000024E-002    -5.6554012298583984
   7.8000000000000014E-002    -7.6766657829284668
   7.9100000000000004E-002    -9.8356323242187500
   8.0200000000000021E-002    -12.763650894165039
   8.1300000000000011E-002    -16.045183181762695
   8.2400000000000029E-002    -18.647356033325195
   8.3500000000000019E-002    -19.978874206542969
   8.4600000000000009E-002    -20.477277755737305
   8.5700000000000026E-002    -21.069009780883789
   8.6800000000000016E-002    -22.160171508789062
   8.7900000000000006E-002    -23.174343109130859
   8.9000000000000024E-002    -23.164016723632812
   9.0100000000000013E-002    -21.882583618164062
   9.1200000000000003E-002    -20.071191787719727
   9.2300000000000021E-002    -18.707094192504883
   9.3400000000000011E-002    -18.024251937866211
   9.4500000000000028E-002    -17.313194274902344
   9.5600000000000018E-002    -15.703129768371582
   9.6700000000000008E-002    -13.177353858947754
   9.7800000000000026E-002    -10.586682319641113
   9.8900000000000016E-002    -8.7760734558105469
  0.10000000000000001         -7.6505722999572754
  0.10110000000000002         -6.2727212905883789
  0.10220000000000001         -3.8724062442779541
  0.10330000000000003        -0.74043059349060059
  0.10440000000000002          1.9723308086395264
  0.10550000000000001          3.3677279949188232
  0.10660000000000003          3.6800947189331055
  0.10770000000000002          4.0116038322448730
  0.10880000000000001          5.1843509674072266
  0.10990000000000003          6.8977847099304199
  0.11100000000000002          8.0803184509277344
  0.11210000000000001          8.0760307312011719
  0.11320000000000002          7.3832888603210449
  0.11430000000000001          7.1862654685974121
  0.11540000000000003          8.0737581253051758
  0.11650000000000002          9.3674640655517578
  0.11760000000000001          9.7450189590454102
  0.11870000000000003          8.5747804641723633
  0.11980000000000002          6.6236009597778320
  0.12090000000000001          5.3403782844543457
  0.12200000000000003          5.4073104858398438
  0.12310000000000001          6.0834283828735352
  0.12420000000000003          5.9468703269958496
  0.12530000000000002          4.4136443138122559
  0.12640000000000001          2.3966314792633057
  0.12750000000000003          1.4007402658462524
  0.12860000000000002          1.9651834964752197
  0.12970000000000001          3.0472435951232910
  0.13080000000000003          3.0463852882385254
  0.13190000000000002          1.4191032648086548
  0.13300000000000001        -0.74155753850936890
  0.13410000000000000         -1.7385768890380859
  0.13520000000000004         -1.0048004388809204
  0.13630000000000003         0.32266506552696228
  0.13740000000000002         0.53932780027389526
  0.13850000000000001        -0.89635920524597168
  0.13960000000000000         -2.7681062221527100
  0.14070000000000005         -3.3134527206420898
  0.14180000000000004         -2.0189785957336426
  0.14290000000000003        -0.18592628836631775
  0.14400000000000002         0.34507867693901062
  0.14510000000000001        -0.96161019802093506
  0.14620000000000000         -2.7852337360382080
  0.14730000000000004         -3.2698931694030762
  0.14840000000000003         -1.9016460180282593
  0.14950000000000002         -3.6512583494186401E-002
  0.15060000000000001         0.46984702348709106
  0.15170000000000000        -0.84397655725479126
  0.15280000000000005         -2.5530014038085938
  0.15390000000000004         -2.7762680053710938
  0.15500000000000003         -1.0959646701812744
  0.15610000000000002         0.99154347181320190
  0.15720000000000001          1.5606719255447388
  0.15830000000000000         0.20083087682723999
  0.15940000000000004         -1.5650824308395386
  0.16050000000000003         -1.8227252960205078
  0.16160000000000002        -0.20393741130828857
  0.16270000000000001          1.7342610359191895
  0.16380000000000000          2.0895071029663086
  0.16490000000000005         0.54396557807922363
  0.16600000000000004         -1.3118538856506348
  0.16710000000000003         -1.6060434579849243
  0.16820000000000002         -8.1963658332824707E-002
  0.16930000000000001          1.6533168554306030
  0.17040000000000000          1.7968232631683350
  0.17150000000000004         0.20723989605903625
  0.17260000000000003         -1.4455759525299072
  0.17370000000000002         -1.4171704053878784
  0.17480000000000001         0.29814222455024719
  0.17590000000000000          1.9265289306640625
  0.17700000000000005          1.7221139669418335
  0.17810000000000004        -0.23824201524257660
  0.17920000000000003         -2.1094820499420166
  0.18030000000000002         -2.1282629966735840
  0.18140000000000001        -0.38191860914230347
  0.18250000000000000          1.3208620548248291
  0.18360000000000004          1.3217356204986572
  0.18470000000000003        -0.20796771347522736
  0.18580000000000002         -1.4997432231903076
  0.18690000000000001         -1.0724451541900635
  0.18800000000000000         0.70376038551330566
  0.18910000000000005          1.9868071079254150
  0.19020000000000004          1.3910387754440308
  0.19130000000000003        -0.55213260650634766
  0.19240000000000002         -1.9171962738037109
  0.19350000000000001         -1.3556967973709106
  0.19460000000000005         0.53198093175888062
  0.19570000000000004          1.8376811742782593
  0.19680000000000003          1.3157247304916382
  0.19790000000000002        -0.36794060468673706
  0.19900000000000001         -1.3914942741394043
  0.20010000000000000        -0.71454662084579468
  0.20120000000000005         0.84834253787994385
  0.20230000000000004          1.5317535400390625
  0.20340000000000003         0.52285993099212646
  0.20450000000000002         -1.1645798683166504
  0.20560000000000000         -1.7723348140716553
  0.20670000000000005        -0.67736399173736572
  0.20780000000000004         0.93659162521362305
  0.20890000000000003          1.3386880159378052
