 -0.12000000000000000          0.0000000000000000
 -0.11889999999999999          0.0000000000000000
 -0.11780000000000000          0.0000000000000000
 -0.11670000000000000          0.0000000000000000
 -0.11559999999999999          0.0000000000000000
 -0.11449999999999999          0.0000000000000000
 -0.11340000000000000          0.0000000000000000
 -0.11230000000000000          0.0000000000000000
 -0.11119999999999999          0.0000000000000000
 -0.11009999999999999          0.0000000000000000
 -0.10900000000000000          0.0000000000000000
 -0.10790000000000000          0.0000000000000000
 -0.10679999999999999          0.0000000000000000
 -0.10569999999999999         -1.3477688629876091E-041
 -0.10460000000000000         -3.6778759754362014E-040
 -0.10349999999999999         -5.2016451229460788E-039
 -0.10239999999999999         -3.5890412198097153E-038
 -0.10130000000000000         -1.5706839474722094E-037
 -0.10020000000000000         -5.2417477066058807E-037
  -9.9099999999999994E-002    -1.2633537466656649E-036
  -9.7999999999999990E-002    -8.1472147402487397E-037
  -9.6899999999999986E-002     7.7828107740290168E-036
  -9.5799999999999996E-002     2.7687802291050068E-035
  -9.4699999999999993E-002     8.2043177647738531E-036
  -9.3599999999999989E-002    -1.5738295526695022E-034
  -9.2499999999999999E-002    -2.4898214721388990E-034
  -9.1399999999999995E-002     8.6013162435773032E-034
  -9.0299999999999991E-002     3.4233282803944219E-033
  -8.9200000000000002E-002     2.3983682412336654E-034
  -8.8099999999999984E-002    -2.2810561917254555E-032
  -8.6999999999999994E-002    -4.7244067171236024E-032
  -8.5899999999999990E-002     4.0340838475445919E-032
  -8.4799999999999986E-002     3.4317034131578018E-031
  -8.3699999999999997E-002     4.6449259604663411E-031
  -8.2599999999999993E-002    -8.0848394963680261E-031
  -8.1499999999999989E-002    -3.7724826108849133E-030
  -8.0399999999999999E-002    -3.4884286327883705E-030
  -7.9299999999999995E-002     1.0050263041677353E-029
  -7.8199999999999992E-002     3.3666907514669302E-029
  -7.7100000000000002E-002     2.0873648529811428E-029
  -7.5999999999999984E-002    -9.7429967176944443E-029
  -7.4899999999999994E-002    -2.6255223114971979E-028
  -7.3799999999999991E-002    -1.0914358143226698E-028
  -7.2699999999999987E-002     7.9224418635431686E-028
  -7.1599999999999997E-002     1.8814120737227249E-027
  -7.0499999999999993E-002     6.3736874839121873E-028
  -6.9399999999999989E-002    -5.5103344010406966E-027
  -6.8300000000000000E-002    -1.2623336797907076E-026
  -6.7199999999999996E-002    -5.0694389625919043E-027
  -6.6099999999999992E-002     3.2575585835769962E-026
  -6.5000000000000002E-002     7.8475118642384322E-026
  -6.3899999999999985E-002     4.5056822900148281E-026
  -6.2799999999999995E-002    -1.5972509249673848E-025
  -6.1699999999999991E-002    -4.4110897939805019E-025
  -6.0599999999999994E-002    -3.5838360145785150E-025
  -5.9499999999999990E-002     6.1368876988654301E-025
  -5.8399999999999994E-002     2.1854344166296451E-024
  -5.7299999999999990E-002     2.3883872255137968E-024
  -5.6199999999999986E-002    -1.5341593335339089E-024
  -5.5099999999999996E-002    -9.3086659666910494E-024
  -5.3999999999999992E-002    -1.3272393826004460E-023
  -5.2899999999999989E-002    -4.5532247797309608E-025
  -5.1799999999999985E-002     3.2972823893645956E-023
  -5.0699999999999995E-002     6.1802468271537015E-023
  -4.9599999999999991E-002     3.2189387196009244E-023
  -4.8499999999999988E-002    -9.0570067161510631E-023
  -4.7399999999999998E-002    -2.4102035682781365E-022
  -4.6299999999999994E-002    -2.2448219718332998E-022
  -4.5199999999999990E-002     1.4959871116367331E-022
  -4.4099999999999986E-002     7.7628280207718865E-022
  -4.2999999999999997E-002     1.0535352752245392E-021
  -4.1899999999999993E-002     1.7102727830599895E-022
  -4.0799999999999989E-002    -1.9740885442324998E-021
  -3.9699999999999985E-002    -3.8464043886557837E-021
  -3.8599999999999995E-002    -2.6120675455869696E-021
  -3.7499999999999992E-002     3.3920548384750761E-021
  -3.6399999999999988E-002     1.1239620303445435E-020
  -3.5299999999999984E-002     1.2667001229762379E-020
  -3.4199999999999994E-002    -4.4249694663419809E-022
  -3.3099999999999991E-002    -2.5584371613251234E-020
  -3.1999999999999987E-002    -4.2968371901684387E-020
  -3.0899999999999997E-002    -2.4454124625838421E-020
  -2.9799999999999993E-002     3.9438824539663296E-020
  -2.8699999999999989E-002     1.1221530897424666E-019
  -2.7599999999999986E-002     1.1654883065522955E-019
  -2.6499999999999996E-002    -8.1528407513389589E-021
  -2.5399999999999992E-002    -2.2252582779293684E-019
  -2.4299999999999988E-002    -3.5563513742890478E-019
  -2.3199999999999985E-002    -1.9963257036476611E-019
  -2.2099999999999995E-002     2.8551612257733860E-019
  -2.0999999999999991E-002     8.0958322390036285E-019
  -1.9899999999999987E-002     8.4117314809618641E-019
  -1.8799999999999983E-002     1.8290674250322234E-020
  -1.7699999999999994E-002    -1.3568017147014627E-018
  -1.6599999999999990E-002    -2.2168090932612338E-018
  -1.5499999999999986E-002    -1.3717350130950356E-018
  -1.4399999999999996E-002     1.3381868421965693E-018
  -1.3299999999999992E-002     4.2842591463974427E-018
  -1.2199999999999989E-002     4.6911786546240227E-018
  -1.1099999999999985E-002     7.8988955278033551E-019
  -9.9999999999999950E-003    -5.8964784144260652E-018
  -8.8999999999999913E-003    -1.0362646571642801E-017
  -7.7999999999999875E-003    -7.2703013347847613E-018
  -6.6999999999999837E-003     4.0483509580100757E-018
  -5.5999999999999939E-003     1.6765756567645344E-017
  -4.4999999999999901E-003     1.9671016711001041E-017
  -3.3999999999999864E-003     5.8632187227662268E-018
  -2.2999999999999826E-003    -1.8911310875375188E-017
  -1.1999999999999927E-003    -3.6404897046561041E-017
  -9.9999999999988987E-005    -2.7849315031365873E-017
   1.0000000000000148E-003     8.8315228500979582E-018
   2.1000000000000185E-003     5.0756520379025474E-017
   3.2000000000000084E-003     6.1927683887060269E-017
   4.3000000000000121E-003     2.1568880056108006E-017
   5.4000000000000159E-003    -5.1449919416749076E-017
   6.5000000000000058E-003    -1.0216527597977146E-016
   7.6000000000000234E-003    -7.7482047682511505E-017
   8.7000000000000133E-003     2.4760306641098872E-017
   9.8000000000000032E-003     1.3705128082450548E-016
   1.0900000000000021E-002     1.6098353500468570E-016
   1.2000000000000011E-002     4.6708678964272731E-017
   1.3100000000000001E-002    -1.4640149224078849E-016
   1.4200000000000018E-002    -2.6896281866463107E-016
   1.5300000000000008E-002    -1.8808935694043176E-016
   1.6400000000000026E-002     8.8126962193562513E-017
   1.7500000000000016E-002     3.7458814482459754E-016
   1.8600000000000005E-002     4.2023064753629353E-016
   1.9700000000000023E-002     1.1049684425019747E-016
   2.0800000000000013E-002    -3.9167669042831823E-016
   2.1900000000000003E-002    -7.0809879159738735E-016
   2.3000000000000020E-002    -5.1299248137300297E-016
   2.4100000000000010E-002     1.7110637281776264E-016
   2.5200000000000000E-002     8.9853064462323048E-016
   2.6300000000000018E-002     1.0696695223303440E-015
   2.7400000000000008E-002     4.0129721123389377E-016
   2.8500000000000025E-002    -7.5444753449863621E-016
   2.9600000000000015E-002    -1.5528318326416555E-015
   3.0700000000000005E-002    -1.2519495302718117E-015
   3.1800000000000023E-002     1.3770444910595695E-016
   3.2900000000000013E-002     1.6896119835137008E-015
   3.4000000000000002E-002     2.1369753992213749E-015
   3.5100000000000020E-002     8.7026393756349280E-016
   3.6200000000000010E-002    -1.3950607230289909E-015
   3.7300000000000028E-002    -2.9267434135271274E-015
   3.8400000000000017E-002    -2.2249361709037081E-015
   3.9500000000000007E-002     6.3286124887620174E-016
   4.0600000000000025E-002     3.6765926708529160E-015
   4.1700000000000015E-002     4.2726010514413000E-015
   4.2800000000000005E-002     1.2208339867126618E-015
   4.3900000000000022E-002    -3.8514274709462552E-015
   4.5000000000000012E-002    -7.1481135829778823E-015
   4.6100000000000002E-002    -5.3542735600298295E-015
   4.7200000000000020E-002     1.4659009471440650E-015
   4.8300000000000010E-002     9.0753532483054886E-015
   4.9400000000000027E-002     1.1518214055878783E-014
   5.0500000000000017E-002     5.5448089628334744E-015
   5.1600000000000007E-002    -6.1606976302103905E-015
   5.2700000000000025E-002    -1.5815653501465368E-014
   5.3800000000000014E-002    -1.5606119573171283E-014
   5.4900000000000004E-002    -3.7862105926888840E-015
   5.6000000000000022E-002     1.2828097145731882E-014
   5.7100000000000012E-002     2.2595301823156999E-014
   5.8200000000000002E-002     1.7173420210859699E-014
   5.9300000000000019E-002    -1.5755120927164550E-015
   6.0400000000000009E-002    -2.1459843992967242E-014
   6.1500000000000027E-002    -2.7733280014391286E-014
   6.2600000000000017E-002    -1.3914637976184755E-014
   6.3700000000000007E-002     1.2230274844086952E-014
   6.4800000000000024E-002     3.2722478562506249E-014
   6.5900000000000014E-002     3.1543544225199824E-014
   6.7000000000000004E-002     6.6597766425126759E-015
   6.8100000000000022E-002    -2.7100768325424504E-014
   6.9200000000000012E-002    -4.7195361225875476E-014
   7.0300000000000029E-002    -3.8606426811926137E-014
   7.1400000000000019E-002    -4.3799701008023079E-015
   7.2500000000000009E-002     3.6199101577589002E-014
   7.3600000000000027E-002     6.0350243682658067E-014
   7.4700000000000016E-002     5.5889398876051918E-014
   7.5800000000000006E-002     2.6519990020744226E-014
   7.6900000000000024E-002    -1.4197794314188290E-014
   7.8000000000000014E-002    -5.3175268143823909E-014
   7.9100000000000004E-002    -8.2356742410992501E-014
   8.0200000000000021E-002    -9.4165662409533696E-014
   8.1300000000000011E-002    -7.5373829898882361E-014
   8.2400000000000029E-002    -1.1372498130929679E-014
   8.3500000000000019E-002     9.5647502505041837E-014
   8.4600000000000009E-002     2.0755310447748143E-013
   8.5700000000000026E-002     2.5295496491710423E-013
   8.6800000000000016E-002     1.6476886044794470E-013
   8.7900000000000006E-002    -6.2116788492397323E-014
   8.9000000000000024E-002    -3.3444500966393897E-013
   9.0100000000000013E-002    -4.8711799567960345E-013
   9.1200000000000003E-002    -3.7793357852977660E-013
   9.2300000000000021E-002    -1.1035125119796528E-015
   9.3400000000000011E-002     4.6297313855900302E-013
   9.4500000000000028E-002     7.2133336630197942E-013
   9.5600000000000018E-002     5.4766017025184577E-013
   9.6700000000000008E-002    -3.6948258173722173E-014
   9.7800000000000026E-002    -7.1548555925435298E-013
   9.8900000000000016E-002    -1.0283891793694266E-012
  0.10000000000000001         -6.6593844154361204E-013
  0.10110000000000002          2.7946720458638108E-013
  0.10220000000000001          1.2901846474858147E-012
  0.10330000000000003          1.6922592884285881E-012
  0.10440000000000002          1.0829898176162311E-012
  0.10550000000000001         -3.5277152293095027E-013
  0.10660000000000003         -1.8745994340152450E-012
  0.10770000000000002         -2.5967366278079052E-012
  0.10880000000000001         -2.0460490940399367E-012
  0.10990000000000003         -5.0128672914040440E-013
  0.11100000000000002          1.1484580647591613E-012
  0.11210000000000001          1.9831764268979368E-012
  0.11320000000000002          1.7087694106909801E-012
  0.11430000000000001          9.2407104104047511E-013
  0.11540000000000003          7.4043608700932739E-013
  0.11650000000000002          1.9202647284777274E-012
  0.11760000000000001          4.0748719502825548E-012
  0.11870000000000003          5.5215879611603125E-012
  0.11980000000000002          4.0602239452514066E-012
  0.12090000000000001         -1.6380591544642997E-012
  0.12200000000000003         -1.0790300077057058E-011
  0.12310000000000001         -2.0208397455423466E-011
  0.12420000000000003         -2.5305873715963934E-011
  0.12530000000000002         -2.2055142434584951E-011
  0.12640000000000001         -8.9832577140902536E-012
  0.12750000000000003          1.1795258346436466E-011
  0.12860000000000002          3.5058494302075971E-011
  0.12970000000000001          5.4267715321465460E-011
  0.13080000000000003          6.3821226081728355E-011
  0.13190000000000002          6.0729261897041198E-011
  0.13300000000000001          4.5010183080673727E-011
  0.13410000000000000          1.8785433278378783E-011
  0.13520000000000004         -1.5306575451567994E-011
  0.13630000000000003         -5.5481379906963113E-011
  0.13740000000000002         -1.0128490407490531E-010
  0.13850000000000001         -1.5307563550059911E-010
  0.13960000000000000         -2.1104083758327619E-010
  0.14070000000000005         -2.7460850260396796E-010
  0.14180000000000004         -3.4294944661894533E-010
  0.14290000000000003         -4.1663900107735685E-010
  0.14400000000000002         -4.9976489613356989E-010
  0.14510000000000001         -6.0127047785130117E-010
  0.14620000000000000         -7.3447714576957424E-010
  0.14730000000000004         -9.1459312345776311E-010
  0.14840000000000003         -1.1552158118988132E-009
  0.14950000000000002         -1.4657028923892312E-009
  0.15060000000000001         -1.8511833177470294E-009
  0.15170000000000000         -2.3157626927172714E-009
  0.15280000000000005         -2.8676834240570770E-009
  0.15390000000000004         -3.5238714168883689E-009
  0.15500000000000003         -4.3113819181428426E-009
  0.15610000000000002         -5.2649542503502289E-009
  0.15720000000000001         -6.4223302231880552E-009
  0.15830000000000000         -7.8206880971265491E-009
  0.15940000000000004         -9.4972270048288010E-009
  0.16050000000000003         -1.1494486251706348E-008
  0.16160000000000002         -1.3867749615315006E-008
  0.16270000000000001         -1.6690005821828890E-008
  0.16380000000000000         -2.0050849869335252E-008
  0.16490000000000005         -2.4049333191555888E-008
  0.16600000000000004         -2.8785001049413950E-008
  0.16710000000000003         -3.4353423217226009E-008
  0.16820000000000002         -4.0850689941862584E-008
  0.16930000000000001         -4.8386244344555962E-008
  0.17040000000000000         -5.7097867767197386E-008
  0.17150000000000004         -6.7160442540625809E-008
  0.17260000000000003         -7.8782711909752834E-008
  0.17370000000000002         -9.2193019440856006E-008
  0.17480000000000001         -1.0762153834775745E-007
  0.17590000000000000         -1.2528929005384271E-007
  0.17700000000000005         -1.4541048187766137E-007
  0.17810000000000004         -1.6820715131871111E-007
  0.17920000000000003         -1.9392727779177221E-007
  0.18030000000000002         -2.2285490786089213E-007
  0.18140000000000001         -2.5530528091621818E-007
  0.18250000000000000         -2.9160605663491879E-007
  0.18360000000000004         -3.3207345495611662E-007
  0.18470000000000003         -3.7699518884437566E-007
  0.18580000000000002         -4.2662676946747524E-007
  0.18690000000000001         -4.8120006113094860E-007
  0.18800000000000000         -5.4093493417894933E-007
  0.18910000000000005         -6.0604384088946972E-007
  0.19020000000000004         -6.7672124259843258E-007
  0.19130000000000003         -7.5312141234462615E-007
  0.19240000000000002         -8.3533143424574519E-007
  0.19350000000000001         -9.2334892087819753E-007
  0.19460000000000005         -1.0170707582801697E-006
  0.19570000000000004         -1.1162918553964118E-006
  0.19680000000000003         -1.2207085546833696E-006
  0.19790000000000002         -1.3299173815539689E-006
  0.19900000000000001         -1.4434060631174361E-006
  0.20010000000000000         -1.5605387488903943E-006
  0.20120000000000005         -1.6805388440843672E-006
  0.20230000000000004         -1.8024771861746558E-006
  0.20340000000000003         -1.9252681795478566E-006
  0.20450000000000002         -2.0476707049965626E-006
  0.20560000000000000         -2.1682940314349253E-006
  0.20670000000000005         -2.2856013401906239E-006
  0.20780000000000004         -2.3979109755600803E-006
  0.20890000000000003         -2.5034014470293187E-006
