 -0.12000000000000000          0.0000000000000000
 -0.11889999999999999          0.0000000000000000
 -0.11780000000000000          0.0000000000000000
 -0.11670000000000000         -3.5287786581683633E-011
 -0.11559999999999999         -1.4033993411821655E-010
 -0.11449999999999999         -2.2302991398159833E-010
 -0.11340000000000000         -4.8866667656799478E-011
 -0.11230000000000000          4.6716741586294575E-010
 -0.11119999999999999          8.6714319058600609E-010
 -0.11009999999999999          2.8440944044305638E-010
 -0.10900000000000000         -1.5342331849410584E-009
 -0.10790000000000000         -3.0915676685339122E-009
 -0.10679999999999999         -1.6175870642953782E-009
 -0.10569999999999999          3.9676115726194894E-009
 -0.10460000000000000          9.6894918755197068E-009
 -0.10349999999999999          7.3220980389976376E-009
 -0.10239999999999999         -8.0221989051665332E-009
 -0.10130000000000000         -2.8123789519440834E-008
 -0.10020000000000000         -3.1020192636788124E-008
  -9.9099999999999994E-002     2.3725921227679692E-009
  -9.7999999999999990E-002     6.2283767476856156E-008
  -9.6899999999999986E-002     9.9890812066405488E-008
  -9.5799999999999996E-002     5.5838395240925820E-008
  -9.4699999999999993E-002    -8.0535727420283365E-008
  -9.3599999999999989E-002    -2.2909971164608578E-007
  -9.2499999999999999E-002    -2.4942258392002259E-007
  -9.1399999999999995E-002    -4.9746525121463492E-008
  -9.0299999999999991E-002     2.9930779987807909E-007
  -8.9200000000000002E-002     5.5762268402759219E-007
  -8.8099999999999984E-002     4.6546935550395574E-007
  -8.6999999999999994E-002    -3.2958791251758157E-008
  -8.5899999999999990E-002    -6.7325208874535747E-007
  -8.4799999999999986E-002    -9.9752901405736338E-007
  -8.3699999999999997E-002    -6.7697493477680837E-007
  -8.2599999999999993E-002     1.9923984950764861E-007
  -8.1499999999999989E-002     1.1124592447231407E-006
  -8.0399999999999999E-002     1.4305925333246705E-006
  -7.9299999999999995E-002     8.4358890717339818E-007
  -7.8199999999999992E-002    -3.9720924860375817E-007
  -7.7100000000000002E-002    -1.6118442545121070E-006
  -7.5999999999999984E-002    -2.1007849682064261E-006
  -7.4899999999999994E-002    -1.5525599792454159E-006
  -7.3799999999999991E-002    -2.0825528679324634E-007
  -7.2699999999999987E-002     1.2754056797348312E-006
  -7.1599999999999997E-002     2.1642706542479573E-006
  -7.0499999999999993E-002     2.0427701201697346E-006
  -6.9399999999999989E-002     1.1356992217770312E-006
  -6.8300000000000000E-002     4.0124976408151269E-007
  -6.7199999999999996E-002     1.2247844551893650E-006
  -6.6099999999999992E-002     4.6807099352008663E-006
  -6.5000000000000002E-002     1.0661735359462909E-005
  -6.3899999999999985E-002     1.7471664250479080E-005
  -6.2799999999999995E-002     2.2382042516255751E-005
  -6.1699999999999991E-002     2.3057807993609458E-005
  -6.0599999999999994E-002     1.9041268387809396E-005
  -5.9499999999999990E-002     1.2275856533960905E-005
  -5.8399999999999994E-002     6.2485096350428648E-006
  -5.7299999999999990E-002     4.3264635678497143E-006
  -5.6199999999999986E-002     8.4264556790003553E-006
  -5.5099999999999996E-002     1.8773347619571723E-005
  -5.3999999999999992E-002     3.4529010008554906E-005
  -5.2899999999999989E-002     5.4419881053036079E-005
  -5.1799999999999985E-002     7.6781267125625163E-005
  -5.0699999999999995E-002     9.9332261015661061E-005
  -4.9599999999999991E-002     1.1951500346185640E-004
  -4.8499999999999988E-002     1.3574269542004913E-004
  -4.7399999999999998E-002     1.4882450341247022E-004
  -4.6299999999999994E-002     1.6230602341238409E-004
  -4.5199999999999990E-002     1.8115232523996383E-004
  -4.4099999999999986E-002     2.0958037930540740E-004
  -4.2999999999999997E-002     2.4959145230241120E-004
  -4.1899999999999993E-002     3.0111166415736079E-004
  -4.0799999999999989E-002     3.6320512299425900E-004
  -3.9699999999999985E-002     4.3502761400304735E-004
  -3.8599999999999995E-002     5.1580520812422037E-004
  -3.7499999999999992E-002     6.0446310089901090E-004
  -3.6399999999999988E-002     7.0005271118134260E-004
  -3.5299999999999984E-002     8.0315553350374103E-004
  -3.4199999999999994E-002     9.1696984600275755E-004
  -3.3099999999999991E-002     1.0465041268616915E-003
  -3.1999999999999987E-002     1.1958637041971087E-003
  -3.0899999999999997E-002     1.3656385708600283E-003
  -2.9799999999999993E-002     1.5527316136285663E-003
  -2.8699999999999989E-002     1.7531201010569930E-003
  -2.7599999999999986E-002     1.9653446506708860E-003
  -2.6499999999999996E-002     2.1918024867773056E-003
  -2.5399999999999992E-002     2.4368115700781345E-003
  -2.4299999999999988E-002     2.7032697107642889E-003
  -2.3199999999999985E-002     2.9908842407166958E-003
  -2.2099999999999995E-002     3.2970346510410309E-003
  -2.0999999999999991E-002     3.6188543308526278E-003
  -1.9899999999999987E-002     3.9539104327559471E-003
  -1.8799999999999983E-002     4.2989081703126431E-003
  -1.7699999999999994E-002     4.6481941826641560E-003
  -1.6599999999999990E-002     4.9943579360842705E-003
  -1.5499999999999986E-002     5.3309751674532890E-003
  -1.4399999999999996E-002     5.6546721607446671E-003
  -1.3299999999999992E-002     5.9640090912580490E-003
  -1.2199999999999989E-002     6.2553193420171738E-003
  -1.1099999999999985E-002     6.5193027257919312E-003
  -9.9999999999999950E-003     6.7416145466268063E-003
  -8.8999999999999913E-003     6.9075459614396095E-003
  -7.7999999999999875E-003     7.0064030587673187E-003
  -6.6999999999999837E-003     7.0318006910383701E-003
  -5.5999999999999939E-003     6.9776908494532108E-003
  -4.4999999999999901E-003     6.8338690325617790E-003
  -3.3999999999999864E-003     6.5859057940542698E-003
  -2.2999999999999826E-003     6.2192520126700401E-003
  -1.1999999999999927E-003     5.7240854948759079E-003
  -9.9999999999988987E-005     5.0957552157342434E-003
   1.0000000000000148E-003     4.3309316970407963E-003
   2.1000000000000185E-003     3.4233273472636938E-003
   3.2000000000000084E-003     2.3636776022613049E-003
   4.3000000000000121E-003     1.1446292046457529E-003
   5.4000000000000159E-003    -2.3453187895938754E-004
   6.5000000000000058E-003    -1.7670600209385157E-003
   7.6000000000000234E-003    -3.4428585786372423E-003
   8.7000000000000133E-003    -5.2530351094901562E-003
   9.8000000000000032E-003    -7.1900812909007072E-003
   1.0900000000000021E-002    -9.2431465163826942E-003
   1.2000000000000011E-002    -1.1393585242331028E-002
   1.3100000000000001E-002    -1.3614021241664886E-002
   1.4200000000000018E-002    -1.5873234719038010E-002
   1.5300000000000008E-002    -1.8140228465199471E-002
   1.6400000000000026E-002    -2.0385446026921272E-002
   1.7500000000000016E-002    -2.2577699273824692E-002
   1.8600000000000005E-002    -2.4681242182850838E-002
   1.9700000000000023E-002    -2.6656532660126686E-002
   2.0800000000000013E-002    -2.8464308008551598E-002
   2.1900000000000003E-002    -3.0068626627326012E-002
   2.3000000000000020E-002    -3.1437039375305176E-002
   2.4100000000000010E-002    -3.2536391168832779E-002
   2.5200000000000000E-002    -3.3330958336591721E-002
   2.6300000000000018E-002    -3.3785164356231689E-002
   2.7400000000000008E-002    -3.3868629485368729E-002
   2.8500000000000025E-002    -3.3560503274202347E-002
   2.9600000000000015E-002    -3.2848998904228210E-002
   3.0700000000000005E-002    -3.1727980822324753E-002
   3.1800000000000023E-002    -3.0194791033864021E-002
   3.2900000000000013E-002    -2.8252001851797104E-002
   3.4000000000000002E-002    -2.5910938158631325E-002
   3.5100000000000020E-002    -2.3193296045064926E-002
   3.6200000000000010E-002    -2.0128276199102402E-002
   3.7300000000000028E-002    -1.6748828813433647E-002
   3.8400000000000017E-002    -1.3090171851217747E-002
   3.9500000000000007E-002    -9.1926073655486107E-003
   4.0600000000000025E-002    -5.1052845083177090E-003
   4.1700000000000015E-002    -8.8627013610675931E-004
   4.2800000000000005E-002     3.4020009916275740E-003
   4.3900000000000022E-002     7.6981200836598873E-003
   4.5000000000000012E-002     1.1943776160478592E-002
   4.6100000000000002E-002     1.6081685200333595E-002
   4.7200000000000020E-002     2.0052669569849968E-002
   4.8300000000000010E-002     2.3796930909156799E-002
   4.9400000000000027E-002     2.7259172871708870E-002
   5.0500000000000017E-002     3.0394257977604866E-002
   5.1600000000000007E-002     3.3168297260999680E-002
   5.2700000000000025E-002     3.5555057227611542E-002
   5.3800000000000014E-002     3.7532646209001541E-002
   5.4900000000000004E-002     3.9082903414964676E-002
   5.6000000000000022E-002     4.0196090936660767E-002
   5.7100000000000012E-002     4.0873371064662933E-002
   5.8200000000000002E-002     4.1126843541860580E-002
   5.9300000000000019E-002     4.0975417941808701E-002
   6.0400000000000009E-002     4.0441811084747314E-002
   6.1500000000000027E-002     3.9553571492433548E-002
   6.2600000000000017E-002     3.8344893604516983E-002
   6.3700000000000007E-002     3.6858849227428436E-002
   6.4800000000000024E-002     3.5144288092851639E-002
   6.5900000000000014E-002     3.3250223845243454E-002
   6.7000000000000004E-002     3.1221626326441765E-002
   6.8100000000000022E-002     2.9100431129336357E-002
   6.9200000000000012E-002     2.6927553117275238E-002
   7.0300000000000029E-002     2.4743473157286644E-002
   7.1400000000000019E-002     2.2585373371839523E-002
   7.2500000000000009E-002     2.0483052358031273E-002
   7.3600000000000027E-002     1.8458183854818344E-002
   7.4700000000000016E-002     1.6526682302355766E-002
   7.5800000000000006E-002     1.4701925218105316E-002
   7.6900000000000024E-002     1.2994674034416676E-002
   7.8000000000000014E-002     1.1409146711230278E-002
   7.9100000000000004E-002     9.9389320239424706E-003
   8.0200000000000021E-002     8.5685607045888901E-003
   8.1300000000000011E-002     7.2784856893122196E-003
   8.2400000000000029E-002     6.0503846034407616E-003
   8.3500000000000019E-002     4.8674750141799450E-003
   8.4600000000000009E-002     3.7112061399966478E-003
   8.5700000000000026E-002     2.5578562635928392E-003
   8.6800000000000016E-002     1.3804872287437320E-003
   8.7900000000000006E-002     1.5496715786866844E-004
   8.9000000000000024E-002    -1.1352138826623559E-003
   9.0100000000000013E-002    -2.4992241524159908E-003
   9.1200000000000003E-002    -3.9437292143702507E-003
   9.2300000000000021E-002    -5.4763364605605602E-003
   9.3400000000000011E-002    -7.1038668975234032E-003
   9.4500000000000028E-002    -8.8260453194379807E-003
   9.5600000000000018E-002    -1.0631143115460873E-002
   9.6700000000000008E-002    -1.2497592717409134E-002
   9.7800000000000026E-002    -1.4400407671928406E-002
   9.8900000000000016E-002    -1.6316229477524757E-002
  0.10000000000000001         -1.8223555758595467E-002
  0.10110000000000002         -2.0098011940717697E-002
  0.10220000000000001         -2.1909128874540329E-002
  0.10330000000000003         -2.3621710017323494E-002
  0.10440000000000002         -2.5200668722391129E-002
  0.10550000000000001         -2.6615759357810020E-002
  0.10660000000000003         -2.7841936796903610E-002
  0.10770000000000002         -2.8856061398983002E-002
  0.10880000000000001         -2.9635082930326462E-002
  0.10990000000000003         -3.0157105997204781E-002
  0.11100000000000002         -3.0405452474951744E-002
  0.11210000000000001         -3.0371109023690224E-002
  0.11320000000000002         -3.0052669346332550E-002
  0.11430000000000001         -2.9453486204147339E-002
  0.11540000000000003         -2.8580971062183380E-002
  0.11650000000000002         -2.7446407824754715E-002
  0.11760000000000001         -2.6066090911626816E-002
  0.11870000000000003         -2.4460623040795326E-002
  0.11980000000000002         -2.2653762251138687E-002
  0.12090000000000001         -2.0670974627137184E-002
  0.12200000000000003         -1.8539894372224808E-002
  0.12310000000000001         -1.6291547566652298E-002
  0.12420000000000003         -1.3959778472781181E-002
  0.12530000000000002         -1.1578198522329330E-002
  0.12640000000000001         -9.1778980568051338E-003
  0.12750000000000003         -6.7871185019612312E-003
  0.12860000000000002         -4.4336537830531597E-003
  0.12970000000000001         -2.1476859692484140E-003
  0.13080000000000003          4.0177517803385854E-005
  0.13190000000000002          2.1031629294157028E-003
  0.13300000000000001          4.0226043201982975E-003
  0.13410000000000000          5.7873600162565708E-003
  0.13520000000000004          7.3888478800654411E-003
  0.13630000000000003          8.8169015944004059E-003
  0.13740000000000002          1.0060009546577930E-002
  0.13850000000000001          1.1110380291938782E-002
  0.13960000000000000          1.1968145146965981E-002
  0.14070000000000005          1.2640671804547310E-002
  0.14180000000000004          1.3137390837073326E-002
  0.14290000000000003          1.3464679941534996E-002
  0.14400000000000002          1.3626173138618469E-002
  0.14510000000000001          1.3627674430608749E-002
  0.14620000000000000          1.3481527566909790E-002
  0.14730000000000004          1.3206105679273605E-002
  0.14840000000000003          1.2820449657738209E-002
  0.14950000000000002          1.2339523993432522E-002
  0.15060000000000001          1.1774065904319286E-002
  0.15170000000000000          1.1134757660329342E-002
  0.15280000000000005          1.0436079464852810E-002
  0.15390000000000004          9.6958409994840622E-003
  0.15500000000000003          8.9312558993697166E-003
  0.15610000000000002          8.1553850322961807E-003
  0.15720000000000001          7.3774717748165131E-003
  0.15830000000000000          6.6058100201189518E-003
  0.15940000000000004          5.8497525751590729E-003
  0.16050000000000003          5.1186871714890003E-003
  0.16160000000000002          4.4195489026606083E-003
  0.16270000000000001          3.7560472264885902E-003
  0.16380000000000000          3.1308964826166630E-003
  0.16490000000000005          2.5485318619757891E-003
  0.16600000000000004          2.0149985793977976E-003
  0.16710000000000003          1.5349057503044605E-003
  0.16820000000000002          1.1084376601502299E-003
  0.16930000000000001          7.3181075276806951E-004
  0.17040000000000000          4.0079207974486053E-004
  0.17150000000000004          1.1359414202161133E-004
  0.17260000000000003         -1.3002430205233395E-004
  0.17370000000000002         -3.3242627978324890E-004
  0.17480000000000001         -5.0020311027765274E-004
  0.17590000000000000         -6.4181652851402760E-004
  0.17700000000000005         -7.6244940282776952E-004
  0.17810000000000004         -8.6120993364602327E-004
  0.17920000000000003         -9.3380396720021963E-004
  0.18030000000000002         -9.7855809144675732E-004
  0.18140000000000001         -1.0001185582950711E-003
  0.18250000000000000         -1.0072302538901567E-003
  0.18360000000000004         -1.0067170951515436E-003
  0.18470000000000003         -9.9946139380335808E-004
  0.18580000000000002         -9.8212866578251123E-004
  0.18690000000000001         -9.5262192189693451E-004
  0.18800000000000000         -9.1376405907794833E-004
  0.18910000000000005         -8.7158748647198081E-004
  0.19020000000000004         -8.3018199075013399E-004
  0.19130000000000003         -7.8827899415045977E-004
  0.19240000000000002         -7.4094458250328898E-004
  0.19350000000000001         -6.8452907726168633E-004
  0.19460000000000005         -6.2011647969484329E-004
  0.19570000000000004         -5.5248959688469768E-004
  0.19680000000000003         -4.8614549450576305E-004
  0.19790000000000002         -4.2246727389283478E-004
  0.19900000000000001         -3.6047163303010166E-004
  0.20010000000000000         -2.9965757858008146E-004
  0.20120000000000005         -2.4174695136025548E-004
  0.20230000000000004         -1.8974239355884492E-004
  0.20340000000000003         -1.4575191016774625E-004
  0.20450000000000002         -1.1000023368978873E-004
  0.20560000000000000         -8.1714097177609801E-005
  0.20670000000000005         -6.0369871789589524E-005
  0.20780000000000004         -4.5718948967987671E-005
  0.20890000000000003         -3.6897956306347623E-005
