 -0.12000000000000000          0.0000000000000000
 -0.11889999999999999          0.0000000000000000
 -0.11780000000000000          0.0000000000000000
 -0.11670000000000000          0.0000000000000000
 -0.11559999999999999          0.0000000000000000
 -0.11449999999999999          0.0000000000000000
 -0.11340000000000000          0.0000000000000000
 -0.11230000000000000          0.0000000000000000
 -0.11119999999999999          5.9871860579202910E-023
 -0.11009999999999999          1.0027587852450830E-021
 -0.10900000000000000          6.0444211856331583E-021
 -0.10790000000000000          1.4789845565192665E-020
 -0.10679999999999999         -1.3472050721964941E-020
 -0.10569999999999999         -2.0371227684467057E-019
 -0.10460000000000000         -6.0227609766170925E-019
 -0.10349999999999999         -5.1092847466587952E-019
 -0.10239999999999999          2.1276458474682100E-018
 -0.10130000000000000          8.7750015988420958E-018
 -0.10020000000000000          1.3323160725554746E-017
  -9.9099999999999994E-002    -4.4290190623188706E-018
  -9.7999999999999990E-002    -6.5393431687315187E-017
  -9.6899999999999986E-002    -1.4088800920331480E-016
  -9.5799999999999996E-002    -9.8211994543902807E-017
  -9.4699999999999993E-002     2.4546075134255682E-016
  -9.3599999999999989E-002     8.5615088635455105E-016
  -9.2499999999999999E-002     1.1337700111631122E-015
  -9.1399999999999995E-002    -8.9929355662850434E-018
  -9.0299999999999991E-002    -3.0904708588248964E-015
  -8.9200000000000002E-002    -6.3455151371031315E-015
  -8.8099999999999984E-002    -5.1969833533720046E-015
  -8.6999999999999994E-002     4.7235495340989458E-015
  -8.5899999999999990E-002     2.1149801135150993E-014
  -8.4799999999999986E-002     3.0601314939065973E-014
  -8.3699999999999997E-002     1.3840841077683774E-014
  -8.2599999999999993E-002    -3.5962162745319798E-014
  -8.1499999999999989E-002    -9.3805612420569757E-014
  -8.0399999999999999E-002    -1.0477662709888892E-013
  -7.9299999999999995E-002    -2.1312758415731699E-014
  -7.8199999999999992E-002     1.4215007209521394E-013
  -7.7100000000000002E-002     2.8644537371394626E-013
  -7.5999999999999984E-002     2.7828003031251994E-013
  -7.4899999999999994E-002     5.5649139674629427E-014
  -7.3799999999999991E-002    -2.9770283460620895E-013
  -7.2699999999999987E-002    -5.9151441340529505E-013
  -7.1599999999999997E-002    -6.6334101839894207E-013
  -7.0499999999999993E-002    -4.7460391736445668E-013
  -6.9399999999999989E-002    -5.2422245689558266E-014
  -6.8300000000000000E-002     6.4706638484831253E-013
  -6.7199999999999996E-002     1.6936919531794978E-012
  -6.6099999999999992E-002     2.8067929924718439E-012
  -6.5000000000000002E-002     2.9585750082471147E-012
  -6.3899999999999985E-002     6.6602880979439426E-013
  -6.2799999999999995E-002    -4.6213488764946403E-012
  -6.1699999999999991E-002    -1.0779285450347644E-011
  -6.0599999999999994E-002    -1.2781440836273600E-011
  -5.9499999999999990E-002    -5.5216187524996967E-012
  -5.8399999999999994E-002     1.1171313006600745E-011
  -5.7299999999999990E-002     2.9150810237912033E-011
  -5.6199999999999986E-002     3.4579068775017482E-011
  -5.5099999999999996E-002     1.7175087740898634E-011
  -5.3999999999999992E-002    -1.9528196767988998E-011
  -5.2899999999999989E-002    -5.5889508299156500E-011
  -5.1799999999999985E-002    -6.6705370393983422E-011
  -5.0699999999999995E-002    -3.9231198151175015E-011
  -4.9599999999999991E-002     1.5033132724782487E-011
  -4.8499999999999988E-002     6.6151042976684790E-011
  -4.7399999999999998E-002     8.6762041995291877E-011
  -4.6299999999999994E-002     7.1425296233030328E-011
  -4.5199999999999990E-002     3.6535243580491719E-011
  -4.4099999999999986E-002    -8.0700162782207168E-014
  -4.2999999999999997E-002    -3.9440430088488658E-011
  -4.1899999999999993E-002    -9.6960009465784090E-011
  -4.0799999999999989E-002    -1.7103715665991911E-010
  -3.9699999999999985E-002    -2.1473373079677354E-010
  -3.8599999999999995E-002    -1.5035261924370568E-010
  -3.7499999999999992E-002     6.4822508472092554E-011
  -3.6399999999999988E-002     3.6686892412882105E-010
  -3.5299999999999984E-002     5.7971838440814243E-010
  -3.4199999999999994E-002     5.1130349953964262E-010
  -3.3099999999999991E-002     1.0281972495629116E-010
  -3.1999999999999987E-002    -4.8180509582011988E-010
  -3.0899999999999997E-002    -9.1798874057865753E-010
  -2.9799999999999993E-002    -9.1817253800022375E-010
  -2.8699999999999989E-002    -4.3363115875806155E-010
  -2.7599999999999986E-002     2.9384186750489793E-010
  -2.6499999999999996E-002     8.8118795593675922E-010
  -2.5399999999999992E-002     1.0496428171078888E-009
  -2.4299999999999988E-002     7.8317202722972513E-010
  -2.3199999999999985E-002     2.8706573229603917E-010
  -2.2099999999999995E-002    -1.9996031219707663E-010
  -2.0999999999999991E-002    -5.6785237623176601E-010
  -1.9899999999999987E-002    -8.3455120591913049E-010
  -1.8799999999999983E-002    -1.0065486222288355E-009
  -1.7699999999999994E-002    -9.6463881327251237E-010
  -1.6599999999999990E-002    -5.2306348141714810E-010
  -1.5499999999999986E-002     3.5723540792169876E-010
  -1.4399999999999996E-002     1.3913170615612209E-009
  -1.3299999999999992E-002     2.0292065805454304E-009
  -1.2199999999999989E-002     1.7730223955683907E-009
  -1.1099999999999985E-002     5.4893067868972411E-010
  -9.9999999999999950E-003    -1.1483175521581846E-009
  -8.8999999999999913E-003    -2.4767208284265981E-009
  -7.7999999999999875E-003    -2.7139033242919724E-009
  -6.6999999999999837E-003    -1.6751503517649311E-009
  -5.5999999999999939E-003     1.7562139242945515E-010
  -4.4999999999999901E-003     1.9757204761112340E-009
  -3.3999999999999864E-003     2.9123583544787681E-009
  -2.2999999999999826E-003     2.6178255119184365E-009
  -1.1999999999999927E-003     1.3185702529829316E-009
  -9.9999999999988987E-005    -3.1426947155798906E-010
   1.0000000000000148E-003    -1.5273399212032395E-009
   2.1000000000000185E-003    -1.8832737591614656E-009
   3.2000000000000084E-003    -1.4912143742043230E-009
   4.3000000000000121E-003    -9.2800134243703019E-010
   5.4000000000000159E-003    -8.6380935737694574E-010
   6.5000000000000058E-003    -1.5938405040223569E-009
   7.6000000000000234E-003    -2.7692514947832173E-009
   8.7000000000000133E-003    -3.5148035593117303E-009
   9.8000000000000032E-003    -2.8613778013651268E-009
   1.0900000000000021E-002    -2.0191769089982122E-010
   1.2000000000000011E-002     4.5105363888348907E-009
   1.3100000000000001E-002     1.0865708333083303E-008
   1.4200000000000018E-002     1.8196304907288883E-008
   1.5300000000000008E-002     2.5660455094109138E-008
   1.6400000000000026E-002     3.2230079938242904E-008
   1.7500000000000016E-002     3.6840479111787274E-008
   1.8600000000000005E-002     3.8889883313684999E-008
   1.9700000000000023E-002     3.8906001975643963E-008
   2.0800000000000013E-002     3.8860260787027216E-008
   2.1900000000000003E-002     4.1697845176706909E-008
   2.3000000000000020E-002     5.0195129830392646E-008
   2.4100000000000010E-002     6.5830725759491150E-008
   2.5200000000000000E-002     8.8431995948206946E-008
   2.6300000000000018E-002     1.1680690192860445E-007
   2.7400000000000008E-002     1.4983541518630488E-007
   2.8500000000000025E-002     1.8721600270053485E-007
   2.9600000000000015E-002     2.2948263733721967E-007
   3.0700000000000005E-002     2.7761976184590094E-007
   3.1800000000000023E-002     3.3292081980104626E-007
   3.2900000000000013E-002     3.9735814993943134E-007
   3.4000000000000002E-002     4.7404543579428365E-007
   3.5100000000000020E-002     5.6709495765966922E-007
   3.6200000000000010E-002     6.8064554170626329E-007
   3.7300000000000028E-002     8.1766273751774524E-007
   3.8400000000000017E-002     9.7949862265513910E-007
   3.9500000000000007E-002     1.1667316357487713E-006
   4.0600000000000025E-002     1.3808302128380712E-006
   4.1700000000000015E-002     1.6255320360868102E-006
   4.2800000000000005E-002     1.9070369035032986E-006
   4.3900000000000022E-002     2.2329645616989904E-006
   4.5000000000000012E-002     2.6108082238349563E-006
   4.6100000000000002E-002     3.0467842861978150E-006
   4.7200000000000020E-002     3.5455714169071609E-006
   4.8300000000000010E-002     4.1109228732235339E-006
   4.9400000000000027E-002     4.7468242883037740E-006
   5.0500000000000017E-002     5.4587426348002388E-006
   5.1600000000000007E-002     6.2543776948581379E-006
   5.2700000000000025E-002     7.1432868935510547E-006
   5.3800000000000014E-002     8.1352172855978896E-006
   5.4900000000000004E-002     9.2377922555889016E-006
   5.6000000000000022E-002     1.0454992661833751E-005
   5.7100000000000012E-002     1.1787670700867993E-005
   5.8200000000000002E-002     1.3235944607002860E-005
   5.9300000000000019E-002     1.4801788893235899E-005
   6.0400000000000009E-002     1.6489580957566746E-005
   6.1500000000000027E-002     1.8303820979779775E-005
   6.2600000000000017E-002     2.0245386622262200E-005
   6.3700000000000007E-002     2.2308959159998050E-005
   6.4800000000000024E-002     2.4483362722091935E-005
   6.5900000000000014E-002     2.6754161808637315E-005
   6.7000000000000004E-002     2.9106075089655006E-005
   6.8100000000000022E-002     3.1523046345679914E-005
   6.9200000000000012E-002     3.3986227208512492E-005
   7.0300000000000029E-002     3.6471697967496127E-005
   7.1400000000000019E-002     3.8949765439607330E-005
   7.2500000000000009E-002     4.1386047087140278E-005
   7.3600000000000027E-002     4.3742540583476091E-005
   7.4700000000000016E-002     4.5977281843074978E-005
   7.5800000000000006E-002     4.8043038987084469E-005
   7.6900000000000024E-002     4.9886573833641597E-005
   7.8000000000000014E-002     5.1449915190455349E-005
   7.9100000000000004E-002     5.2673323807534478E-005
   8.0200000000000021E-002     5.3498028137250432E-005
   8.1300000000000011E-002     5.3867112001166253E-005
   8.2400000000000029E-002     5.3724728786614284E-005
   8.3500000000000019E-002     5.3015301091358605E-005
   8.4600000000000009E-002     5.1683538913489029E-005
   8.5700000000000026E-002     4.9674847105047552E-005
   8.6800000000000016E-002     4.6935674617993769E-005
   8.7900000000000006E-002     4.3414056563047196E-005
   8.9000000000000024E-002     3.9062233554428333E-005
   9.0100000000000013E-002     3.3842530683610939E-005
   9.1200000000000003E-002     2.7734748073268647E-005
   9.2300000000000021E-002     2.0741013941003601E-005
   9.3400000000000011E-002     1.2884614989160002E-005
   9.4500000000000028E-002     4.2030305849032059E-006
   9.5600000000000018E-002    -5.2600180424631640E-006
   9.6700000000000008E-002    -1.5457502740899839E-005
   9.7800000000000026E-002    -2.6334753783883255E-005
   9.8900000000000016E-002    -3.7821086152686333E-005
  0.10000000000000001         -4.9823083827500565E-005
  0.10110000000000002         -6.2223291024560208E-005
  0.10220000000000001         -7.4882918852374740E-005
  0.10330000000000003         -8.7645341409362429E-005
  0.10440000000000002         -1.0033906437455700E-004
  0.10550000000000001         -1.1278125020907166E-004
  0.10660000000000003         -1.2478421558624855E-004
  0.10770000000000002         -1.3616400246972829E-004
  0.10880000000000001         -1.4674640260635451E-004
  0.10990000000000003         -1.5636651369275938E-004
  0.11100000000000002         -1.6486209642606185E-004
  0.11210000000000001         -1.7206664779221894E-004
  0.11320000000000002         -1.7780980851965221E-004
  0.11430000000000001         -1.8192671996073950E-004
  0.11540000000000003         -1.8427157192489257E-004
  0.11650000000000002         -1.8472854571880887E-004
  0.11760000000000001         -1.8321626703253138E-004
  0.11870000000000003         -1.7968821339307503E-004
  0.11980000000000002         -1.7413271416442662E-004
  0.12090000000000001         -1.6657334344925617E-004
  0.12200000000000003         -1.5706605336161672E-004
  0.12310000000000001         -1.4569098129867090E-004
  0.12420000000000003         -1.3254300574770762E-004
  0.12530000000000002         -1.1772942525566324E-004
  0.12640000000000001         -1.0137970093636692E-004
  0.12750000000000003         -8.3661718235808309E-005
  0.12860000000000002         -6.4792460761957586E-005
  0.12970000000000001         -4.5031880290475431E-005
  0.13080000000000003         -2.4661947463752501E-005
  0.13190000000000002         -3.9648007259519106E-006
  0.13300000000000001          1.6787957065388570E-005
  0.13410000000000000          3.7333367799871515E-005
  0.13520000000000004          5.7410943554709518E-005
  0.13630000000000003          7.6762691605829485E-005
  0.13740000000000002          9.5140509074545391E-005
  0.13850000000000001          1.1231248936382041E-004
  0.13960000000000000          1.2806196173186180E-004
  0.14070000000000005          1.4218123396857269E-004
  0.14180000000000004          1.5447115583809530E-004
  0.14290000000000003          1.6475474694742221E-004
  0.14400000000000002          1.7289833340326571E-004
  0.14510000000000001          1.7882505198938954E-004
  0.14620000000000000          1.8250985885968573E-004
  0.14730000000000004          1.8396051018497095E-004
  0.14840000000000003          1.8320090021005017E-004
  0.14950000000000002          1.8026992620432888E-004
  0.15060000000000001          1.7523269343653873E-004
  0.15170000000000000          1.6818838776087627E-004
  0.15280000000000005          1.5926422202026789E-004
  0.15390000000000004          1.4860050578134547E-004
  0.15500000000000003          1.3634264178107085E-004
  0.15610000000000002          1.2264959514139868E-004
  0.15720000000000001          1.0770992230390052E-004
  0.15830000000000000          9.1745911049647259E-005
  0.15940000000000004          7.4995397881131318E-005
  0.16050000000000003          5.7682285842013925E-005
  0.16160000000000002          3.9998667489267132E-005
  0.16270000000000001          2.2112179067332300E-005
  0.16380000000000000          4.1887137740548407E-006
  0.16490000000000005         -1.3593254152510196E-005
  0.16600000000000004         -3.1050796678753189E-005
  0.16710000000000003         -4.8018078814489630E-005
  0.16820000000000002         -6.4358318923035790E-005
  0.16930000000000001         -7.9953453678165156E-005
  0.17040000000000000         -9.4682734925291548E-005
  0.17150000000000004         -1.0841375478775206E-004
  0.17260000000000003         -1.2101799075024975E-004
  0.17370000000000002         -1.3239680265540919E-004
  0.17480000000000001         -1.4249107334761511E-004
  0.17590000000000000         -1.5126238577066462E-004
  0.17700000000000005         -1.5866174362598383E-004
  0.17810000000000004         -1.6461522318421266E-004
  0.17920000000000003         -1.6903915093278797E-004
  0.18030000000000002         -1.7186830518765628E-004
  0.18140000000000001         -1.7306792142333696E-004
  0.18250000000000000         -1.7261637549380071E-004
  0.18360000000000004         -1.7047657456713039E-004
  0.18470000000000003         -1.6658658569211412E-004
  0.18580000000000002         -1.6088092525022419E-004
  0.18690000000000001         -1.5332283510359379E-004
  0.18800000000000000         -1.4391644799614778E-004
  0.18910000000000005         -1.3268803013487338E-004
  0.19020000000000004         -1.1965525482081540E-004
  0.19130000000000003         -1.0481866047483730E-004
  0.19240000000000002         -8.8185988715840574E-005
  0.19350000000000001         -6.9806090323246836E-005
  0.19460000000000005         -4.9779639084584765E-005
  0.19570000000000004         -2.8236299840496689E-005
  0.19680000000000003         -5.3029498303640330E-006
  0.19790000000000002          1.8900911527452577E-005
  0.19900000000000001          4.4231557694726687E-005
  0.20010000000000000          7.0483125455206712E-005
  0.20120000000000005          9.7380463557775884E-005
  0.20230000000000004          1.2461130972950634E-004
  0.20340000000000003          1.5186809469013132E-004
  0.20450000000000002          1.7886279965749342E-004
  0.20560000000000000          2.0530316396614616E-004
  0.20670000000000005          2.3085923749020156E-004
  0.20780000000000004          2.5515918969174444E-004
  0.20890000000000003          2.7782112010752157E-004
