 -0.12000000000000000          0.0000000000000000
 -0.11889999999999999          0.0000000000000000
 -0.11780000000000000          0.0000000000000000
 -0.11670000000000000          0.0000000000000000
 -0.11559999999999999          0.0000000000000000
 -0.11449999999999999          0.0000000000000000
 -0.11340000000000000          0.0000000000000000
 -0.11230000000000000          0.0000000000000000
 -0.11119999999999999          0.0000000000000000
 -0.11009999999999999          0.0000000000000000
 -0.10900000000000000         -6.0122686792621118E-023
 -0.10790000000000000         -1.7181930727661532E-021
 -0.10679999999999999         -1.1531110996490880E-020
 -0.10569999999999999         -2.4991136095621528E-020
 -0.10460000000000000          6.0972297207199152E-020
 -0.10349999999999999          5.0024486836816818E-019
 -0.10239999999999999          1.1125957673968465E-018
 -0.10130000000000000         -3.4982481401117918E-019
 -0.10020000000000000         -8.1590671983035869E-018
  -9.9099999999999994E-002    -1.9889450295357919E-017
  -9.7999999999999990E-002    -9.4212463785666134E-018
  -9.6899999999999986E-002     6.7637307991374893E-017
  -9.5799999999999996E-002     1.9557786934798862E-016
  -9.4699999999999993E-002     1.7678666840627858E-016
  -9.3599999999999989E-002    -3.0875507656787842E-016
  -9.2499999999999999E-002    -1.1985832782212386E-015
  -9.1399999999999995E-002    -1.3887914086698882E-015
  -9.0299999999999991E-002     8.2553779215182796E-016
  -8.9200000000000002E-002     5.1369227881820079E-015
  -8.8099999999999984E-002     6.3654644570773286E-015
  -8.6999999999999994E-002    -2.7762718220956635E-015
  -8.5899999999999990E-002    -1.9718144353636849E-014
  -8.4799999999999986E-002    -2.1158547597365310E-014
  -8.3699999999999997E-002     2.1902527128124863E-014
  -8.2599999999999993E-002     9.2430871170921108E-014
  -8.1499999999999989E-002     8.5792375807691723E-014
  -8.0399999999999999E-002    -1.2293409291843499E-013
  -7.9299999999999995E-002    -4.6651305865216819E-013
  -7.8199999999999992E-002    -5.1115269785947937E-013
  -7.7100000000000002E-002     3.0861085713838887E-013
  -7.5999999999999984E-002     1.8932128000720416E-012
  -7.4899999999999994E-002     2.7285287744482911E-012
  -7.3799999999999991E-002     4.7660492089388051E-013
  -7.2699999999999987E-002    -5.4061750735800995E-012
  -7.1599999999999997E-002    -1.0722063861767772E-011
  -7.0499999999999993E-002    -7.3339329401123088E-012
  -6.9399999999999989E-002     9.4700766326005770E-012
  -6.8300000000000000E-002     3.0934314138031382E-011
  -6.7199999999999996E-002     3.3618378914024305E-011
  -6.6099999999999992E-002    -3.0361414337515269E-012
  -6.5000000000000002E-002    -6.7221297972430705E-011
  -6.3899999999999985E-002    -1.0234699893141297E-010
  -6.2799999999999995E-002    -4.2318912263361597E-011
  -6.1699999999999991E-002     1.1271396316292481E-010
  -6.0599999999999994E-002     2.4570764867171135E-010
  -5.9499999999999990E-002     1.8065171580872175E-010
  -5.8399999999999994E-002    -1.4357319499946897E-010
  -5.7299999999999990E-002    -5.1695725478140275E-010
  -5.6199999999999986E-002    -5.2562493246810504E-010
  -5.5099999999999996E-002     8.6456529435618990E-011
  -5.3999999999999992E-002     1.0042288112188658E-009
  -5.2899999999999989E-002     1.3423601119555428E-009
  -5.1799999999999985E-002     3.2570082741933959E-010
  -5.0699999999999995E-002    -1.7309261801656817E-009
  -4.9599999999999991E-002    -3.1127731503488576E-009
  -4.8499999999999988E-002    -1.8301034021561691E-009
  -4.7399999999999998E-002     2.2774984120843556E-009
  -4.6299999999999994E-002     6.3030372032812920E-009
  -4.5199999999999990E-002     5.7881464066156241E-009
  -4.4099999999999986E-002    -1.2063394727590548E-009
  -4.2999999999999997E-002    -1.0644428449779753E-008
  -4.1899999999999993E-002    -1.3797466280607296E-008
  -4.0799999999999989E-002    -4.2442933612107936E-009
  -3.9699999999999985E-002     1.4196049669124022E-008
  -3.8599999999999995E-002     2.6670843311649151E-008
  -3.7499999999999992E-002     1.7774212324184191E-008
  -3.6399999999999988E-002    -1.2728290421648580E-008
  -3.5299999999999984E-002    -4.3154056328376100E-008
  -3.4199999999999994E-002    -4.2969261926373292E-008
  -3.3099999999999991E-002    -2.7889615616949470E-010
  -3.1999999999999987E-002     5.8802331892593429E-008
  -3.0899999999999997E-002     8.1905461968290183E-008
  -2.9799999999999993E-002     3.3125896692354218E-008
  -2.8699999999999989E-002    -6.5143495930897188E-008
  -2.7599999999999986E-002    -1.3377498930822185E-007
  -2.6499999999999996E-002    -9.5554014478693716E-008
  -2.5399999999999992E-002     4.8076760350568293E-008
  -2.4299999999999988E-002     1.9238149207012611E-007
  -2.3199999999999985E-002     1.9815975349501969E-007
  -2.2099999999999995E-002     1.6067863484181544E-008
  -2.0999999999999991E-002    -2.3800713222499326E-007
  -1.9899999999999987E-002    -3.4463857900846051E-007
  -1.8799999999999983E-002    -1.6013142101201083E-007
  -1.7699999999999994E-002     2.2564491075627302E-007
  -1.6599999999999990E-002     5.0985477173526306E-007
  -1.5499999999999986E-002     4.0398020928478218E-007
  -1.4399999999999996E-002    -9.3679247470390692E-008
  -1.3299999999999992E-002    -6.2551805513066938E-007
  -1.2199999999999989E-002    -7.1862928052723873E-007
  -1.1099999999999985E-002    -1.9213256052807992E-007
  -9.9999999999999950E-003     6.1303535403567366E-007
  -8.8999999999999913E-003     1.0329251836083131E-006
  -7.7999999999999875E-003     6.1578447230203892E-007
  -6.6999999999999837E-003    -4.2757153551065130E-007
  -5.5999999999999939E-003    -1.2853936368628638E-006
  -4.4999999999999901E-003    -1.1601425740082050E-006
  -3.3999999999999864E-003     1.6816123604712629E-008
  -2.2999999999999826E-003     1.3957544524600962E-006
  -1.1999999999999927E-003     1.8032811794910231E-006
  -9.9999999999988987E-005     7.2047151888909866E-007
   1.0000000000000148E-003    -1.1608121894823853E-006
   2.1000000000000185E-003    -2.3560314730275422E-006
   3.2000000000000084E-003    -1.7541143506605295E-006
   4.3000000000000121E-003     3.8054386664043705E-007
   5.4000000000000159E-003     2.4572184429416666E-006
   6.5000000000000058E-003     2.7449507342680590E-006
   7.6000000000000234E-003     8.1365323012505542E-007
   8.7000000000000133E-003    -1.9651897673611529E-006
   9.8000000000000032E-003    -3.3769374567782506E-006
   1.0900000000000021E-002    -2.1190719508012990E-006
   1.2000000000000011E-002     1.0353858215239597E-006
   1.3100000000000001E-002     3.6792432638321770E-006
   1.4200000000000018E-002     3.5861933156411396E-006
   1.5300000000000008E-002     5.2912866976839723E-007
   1.6400000000000026E-002    -3.3635574254731182E-006
   1.7500000000000016E-002    -5.0983230721612927E-006
   1.8600000000000005E-002    -3.0956368846091209E-006
   1.9700000000000023E-002     1.4750296486454317E-006
   2.0800000000000013E-002     5.3909184316580649E-006
   2.1900000000000003E-002     5.6820113059075084E-006
   2.3000000000000020E-002     1.8859145711758174E-006
   2.4100000000000010E-002    -3.4459499147487804E-006
   2.5200000000000000E-002    -6.4645705606380943E-006
   2.6300000000000018E-002    -4.8151118789974134E-006
   2.7400000000000008E-002     4.9853827022161568E-007
   2.8500000000000025E-002     5.6250105444632936E-006
   2.9600000000000015E-002     6.5593144427111838E-006
   3.0700000000000005E-002     2.1977120923111215E-006
   3.1800000000000023E-002    -4.5129895624995697E-006
   3.2900000000000013E-002    -8.4164930740371346E-006
   3.4000000000000002E-002    -5.9278040680510458E-006
   3.5100000000000020E-002     1.9214685380575247E-006
   3.6200000000000010E-002     9.6529420261504129E-006
   3.7300000000000028E-002     1.1051646652049385E-005
   3.8400000000000017E-002     3.9948622543306556E-006
   3.9500000000000007E-002    -7.2766015364322811E-006
   4.0600000000000025E-002    -1.4622166418121196E-005
   4.1700000000000015E-002    -1.1887910659424961E-005
   4.2800000000000005E-002     4.1751945900614373E-008
   4.3900000000000022E-002     1.3178011613490526E-005
   4.5000000000000012E-002     1.7981006749323569E-005
   4.6100000000000002E-002     1.0681592357286718E-005
   4.7200000000000020E-002    -3.3366500247211661E-006
   4.8300000000000010E-002    -1.3176738320908044E-005
   4.9400000000000027E-002    -1.0744827704911586E-005
   5.0500000000000017E-002     2.6079869712702930E-006
   5.1600000000000007E-002     1.6610531019978225E-005
   5.2700000000000025E-002     1.9831406461889856E-005
   5.3800000000000014E-002     8.8820988821680658E-006
   5.4900000000000004E-002    -8.2447932072682306E-006
   5.6000000000000022E-002    -1.7697559087537229E-005
   5.7100000000000012E-002    -1.0215981092187576E-005
   5.8200000000000002E-002     1.1477765838208143E-005
   5.9300000000000019E-002     3.4197350032627583E-005
   6.0400000000000009E-002     4.3795800593215972E-005
   6.1500000000000027E-002     3.5586966987466440E-005
   6.2600000000000017E-002     1.7869644580059685E-005
   6.3700000000000007E-002     5.9218350543233100E-006
   6.4800000000000024E-002     1.0933446901617572E-005
   6.5900000000000014E-002     3.2018175261327997E-005
   6.7000000000000004E-002     5.7095930969808251E-005
   6.8100000000000022E-002     7.1959861088544130E-005
   6.9200000000000012E-002     7.0999769377522171E-005
   7.0300000000000029E-002     6.1886930780019611E-005
   7.1400000000000019E-002     6.0723246861016378E-005
   7.2500000000000009E-002     8.0768026236910373E-005
   7.3600000000000027E-002     1.2245918333064765E-004
   7.4700000000000016E-002     1.7194759857375175E-004
   7.5800000000000006E-002     2.0986091112717986E-004
   7.6900000000000024E-002     2.2489351977128536E-004
   7.8000000000000014E-002     2.2286137391347438E-004
   7.9100000000000004E-002     2.2417874424718320E-004
   8.0200000000000021E-002     2.5048604584299028E-004
   8.1300000000000011E-002     3.0934455571696162E-004
   8.2400000000000029E-002     3.8832228165119886E-004
   8.3500000000000019E-002     4.6373312943615019E-004
   8.4600000000000009E-002     5.1847606664523482E-004
   8.5700000000000026E-002     5.5571360280737281E-004
   8.6800000000000016E-002     5.9731106739491224E-004
   8.7900000000000006E-002     6.6725828219205141E-004
   8.9000000000000024E-002     7.7235745266079903E-004
   9.0100000000000013E-002     8.9556397870182991E-004
   9.1200000000000003E-002     1.0080328211188316E-003
   9.2300000000000021E-002     1.0911866556853056E-003
   9.3400000000000011E-002     1.1516095837578177E-003
   9.4500000000000028E-002     1.2167273089289665E-003
   9.5600000000000018E-002     1.3142544776201248E-003
   9.6700000000000008E-002     1.4511416666209698E-003
   9.7800000000000026E-002     1.6081590438261628E-003
   9.8900000000000016E-002     1.7540205735713243E-003
  0.10000000000000001          1.8675833707675338E-003
  0.10110000000000002          1.9513687584549189E-003
  0.10220000000000001          2.0269732922315598E-003
  0.10330000000000003          2.1167001686990261E-003
  0.10440000000000002          2.2258046083152294E-003
  0.10550000000000001          2.3377663455903530E-003
  0.10660000000000003          2.4249183479696512E-003
  0.10770000000000002          2.4660613853484392E-003
  0.10880000000000001          2.4590992834419012E-003
  0.10990000000000003          2.4209546390920877E-003
  0.11100000000000002          2.3749934043735266E-003
  0.11210000000000001          2.3340708576142788E-003
  0.11320000000000002          2.2892630659043789E-003
  0.11430000000000001          2.2124401293694973E-003
  0.11540000000000003          2.0721151959151030E-003
  0.11650000000000002          1.8534380942583084E-003
  0.11760000000000001          1.5686335973441601E-003
  0.11870000000000003          1.2488386128097773E-003
  0.11980000000000002          9.2103180941194296E-004
  0.12090000000000001          5.8625073870643973E-004
  0.12200000000000003          2.1680614736396819E-004
  0.12310000000000001         -2.2269118926487863E-004
  0.12420000000000003         -7.4651371687650681E-004
  0.12530000000000002         -1.3329748762771487E-003
  0.12640000000000001         -1.9378496799618006E-003
  0.12750000000000003         -2.5263475254178047E-003
  0.12860000000000002         -3.0983553733676672E-003
  0.12970000000000001         -3.6838408559560776E-003
  0.13080000000000003         -4.3146037496626377E-003
  0.13190000000000002         -4.9922880716621876E-003
  0.13300000000000001         -5.6821266189217567E-003
  0.13410000000000000         -6.3353707082569599E-003
  0.13520000000000004         -6.9219274446368217E-003
  0.13630000000000003         -7.4456324800848961E-003
  0.13740000000000002         -7.9307388514280319E-003
  0.13850000000000001         -8.3924680948257446E-003
  0.13960000000000000         -8.8204005733132362E-003
  0.14070000000000005         -9.1828880831599236E-003
  0.14180000000000004         -9.4479117542505264E-003
  0.14290000000000003         -9.5994975417852402E-003
  0.14400000000000002         -9.6392659470438957E-003
  0.14510000000000001         -9.5759192481637001E-003
  0.14620000000000000         -9.4168195500969887E-003
  0.14730000000000004         -9.1649731621146202E-003
  0.14840000000000003         -8.8212536647915840E-003
  0.14950000000000002         -8.3819087594747543E-003
  0.15060000000000001         -7.8355157747864723E-003
  0.15170000000000000         -7.1676098741590977E-003
  0.15280000000000005         -6.3752317801117897E-003
  0.15390000000000004         -5.4795448668301105E-003
  0.15500000000000003         -4.5207063667476177E-003
  0.15610000000000002         -3.5333381965756416E-003
  0.15720000000000001         -2.5218515656888485E-003
  0.15830000000000000         -1.4603390591219068E-003
  0.15940000000000004         -3.2333933631889522E-004
  0.16050000000000003          8.7719439761713147E-004
  0.16160000000000002          2.0846480038017035E-003
  0.16270000000000001          3.2315887510776520E-003
  0.16380000000000000          4.2871460318565369E-003
  0.16490000000000005          5.2743619307875633E-003
  0.16600000000000004          6.2381494790315628E-003
  0.16710000000000003          7.1919672191143036E-003
  0.16820000000000002          8.0937026068568230E-003
  0.16930000000000001          8.8739767670631409E-003
  0.17040000000000000          9.4919279217720032E-003
  0.17150000000000004          9.9648963660001755E-003
  0.17260000000000003          1.0343530215322971E-002
  0.17370000000000002          1.0654114186763763E-002
  0.17480000000000001          1.0866896249353886E-002
  0.17590000000000000          1.0921640321612358E-002
  0.17700000000000005          1.0785965248942375E-002
  0.17810000000000004          1.0487228631973267E-002
  0.17920000000000003          1.0088319890201092E-002
  0.18030000000000002          9.6294935792684555E-003
  0.18140000000000001          9.0945893898606300E-003
  0.18250000000000000          8.4367115050554276E-003
  0.18360000000000004          7.6372413896024227E-003
  0.18470000000000003          6.7326254211366177E-003
  0.18580000000000002          5.7830461300909519E-003
  0.18690000000000001          4.8140482977032661E-003
  0.18800000000000000          3.7918023299425840E-003
  0.18910000000000005          2.6638468261808157E-003
  0.19020000000000004          1.4232888352125883E-003
  0.19130000000000003          1.2962866458110511E-004
  0.19240000000000002         -1.1411512969061732E-003
  0.19350000000000001         -2.3686552885919809E-003
  0.19460000000000005         -3.6094347015023232E-003
  0.19570000000000004         -4.9394099041819572E-003
  0.19680000000000003         -6.3724168576300144E-003
  0.19790000000000002         -7.8389039263129234E-003
  0.19900000000000001         -9.2498175799846649E-003
  0.20010000000000000         -1.0586929507553577E-002
  0.20120000000000005         -1.1926447041332722E-002
  0.20230000000000004         -1.3367710635066032E-002
  0.20340000000000003         -1.4935342594981194E-002
  0.20450000000000002         -1.6551923006772995E-002
  0.20560000000000000         -1.8111962825059891E-002
  0.20670000000000005         -1.9584972411394119E-002
  0.20780000000000004         -2.1042514592409134E-002
  0.20890000000000003         -2.2576458752155304E-002
