 -0.12000000000000000          0.0000000000000000
 -0.11889999999999999          0.0000000000000000
 -0.11780000000000000          0.0000000000000000
 -0.11670000000000000          0.0000000000000000
 -0.11559999999999999          0.0000000000000000
 -0.11449999999999999          0.0000000000000000
 -0.11340000000000000         -2.4318223271442357E-016
 -0.11230000000000000         -1.5248391936799137E-015
 -0.11119999999999999         -1.7204575353209134E-015
 -0.11009999999999999          1.3494269924022549E-014
 -0.10900000000000000          5.8191881760309705E-014
 -0.10790000000000000          6.1411799582265780E-014
 -0.10679999999999999         -2.1509771503010200E-013
 -0.10569999999999999         -9.0517746293219958E-013
 -0.10460000000000000         -1.1860554855955274E-012
 -0.10349999999999999          1.1631998532782295E-012
 -0.10239999999999999          7.4304130556757109E-012
 -0.10130000000000000          1.2361148563067026E-011
 -0.10020000000000000          1.7007189927198407E-012
  -9.9099999999999994E-002    -3.5433645600990715E-011
  -9.7999999999999990E-002    -7.8369193079463884E-011
  -9.6899999999999986E-002    -5.9686915132584062E-011
  -9.5799999999999996E-002     8.9062673902517986E-011
  -9.4699999999999993E-002     3.2391453408386894E-010
  -9.3599999999999989E-002     4.0614378526981909E-010
  -9.2499999999999999E-002     1.9902701015039881E-011
  -9.1399999999999995E-002    -8.5873524957591485E-010
  -9.0299999999999991E-002    -1.6092113197530011E-009
  -8.9200000000000002E-002    -1.1421883439055591E-009
  -8.8099999999999984E-002     1.1368780361564745E-009
  -8.6999999999999994E-002     4.1450842758194995E-009
  -8.5899999999999990E-002     5.0444315391473538E-009
  -8.4799999999999986E-002     1.2230958468251174E-009
  -8.3699999999999997E-002    -6.5541709837191320E-009
  -8.2599999999999993E-002    -1.2737128685103016E-008
  -8.1499999999999989E-002    -1.0061923738646783E-008
  -8.0399999999999999E-002     3.6729712604710585E-009
  -7.9299999999999995E-002     2.0564579372717162E-008
  -7.8199999999999992E-002     2.5744981257957988E-008
  -7.7100000000000002E-002     9.4105541137423643E-009
  -7.5999999999999984E-002    -2.0941270051366700E-008
  -7.4899999999999994E-002    -4.1017422347522370E-008
  -7.3799999999999991E-002    -2.7962851589791171E-008
  -7.2699999999999987E-002     1.5556461008259248E-008
  -7.1599999999999997E-002     5.4472323540721845E-008
  -7.0499999999999993E-002     4.5730452313819114E-008
  -6.9399999999999989E-002    -1.9403159967623651E-008
  -6.8300000000000000E-002    -9.2498275705565902E-008
  -6.7199999999999996E-002    -9.5748511341753328E-008
  -6.6099999999999992E-002     9.1754666087240366E-009
  -6.5000000000000002E-002     1.6602844254975935E-007
  -6.3899999999999985E-002     2.4255757580249337E-007
  -6.2799999999999995E-002     1.2956651573858835E-007
  -6.1699999999999991E-002    -1.4883744370308705E-007
  -6.0599999999999994E-002    -4.1419627905270318E-007
  -5.9499999999999990E-002    -4.4586042236005596E-007
  -5.8399999999999994E-002    -1.5831118105325004E-007
  -5.7299999999999990E-002     2.9922773592261365E-007
  -5.6199999999999986E-002     6.2325301541932276E-007
  -5.5099999999999996E-002     5.7751987014853512E-007
  -5.3999999999999992E-002     1.8595270034893474E-007
  -5.2899999999999989E-002    -2.7167951088813425E-007
  -5.1799999999999985E-002    -4.7799477442822536E-007
  -5.0699999999999995E-002    -3.4052149544550048E-007
  -4.9599999999999991E-002    -7.2030275077850092E-008
  -4.8499999999999988E-002    -1.3200832649218341E-009
  -4.7399999999999998E-002    -2.5918174628714041E-007
  -4.6299999999999994E-002    -6.1147807173256297E-007
  -4.5199999999999990E-002    -6.1017368579996401E-007
  -4.4099999999999986E-002     2.8319256273334759E-008
  -4.2999999999999997E-002     1.1157906101288972E-006
  -4.1899999999999993E-002     2.0258353288227227E-006
  -4.0799999999999989E-002     2.0830650555581087E-006
  -3.9699999999999985E-002     1.0402690122646163E-006
  -3.8599999999999995E-002    -7.0638714078086196E-007
  -3.7499999999999992E-002    -2.3291149773285724E-006
  -3.6399999999999988E-002    -3.0644873731944244E-006
  -3.5299999999999984E-002    -2.6543384592514485E-006
  -3.4199999999999994E-002    -1.4442298379435670E-006
  -3.3099999999999991E-002    -9.8842136253551871E-008
  -3.1999999999999987E-002     8.5049759945832193E-007
  -3.0899999999999997E-002     1.3168699979360099E-006
  -2.9799999999999993E-002     1.6314169215547736E-006
  -2.8699999999999989E-002     2.2169272142491536E-006
  -2.7599999999999986E-002     3.2030136480898364E-006
  -2.6499999999999996E-002     4.2744773054437246E-006
  -2.5399999999999992E-002     4.8983174565364607E-006
  -2.4299999999999988E-002     4.8030915422714315E-006
  -2.3199999999999985E-002     4.3556601667660289E-006
  -2.2099999999999995E-002     4.4801977310271468E-006
  -2.0999999999999991E-002     6.0574202507268637E-006
  -1.9899999999999987E-002     9.1689353212132119E-006
  -1.8799999999999983E-002     1.2785657418135088E-005
  -1.7699999999999994E-002     1.5283249013009481E-005
  -1.6599999999999990E-002     1.5571245967294089E-005
  -1.5499999999999986E-002     1.4073038073547650E-005
  -1.4399999999999996E-002     1.2775362847605720E-005
  -1.3299999999999992E-002     1.4192193702911027E-005
  -1.2199999999999989E-002     1.9924620573874563E-005
  -1.1099999999999985E-002     2.9861092116334476E-005
  -9.9999999999999950E-003     4.2595027480274439E-005
  -8.8999999999999913E-003     5.6670764024602249E-005
  -7.7999999999999875E-003     7.1604277763981372E-005
  -6.6999999999999837E-003     8.7851556600071490E-005
  -5.5999999999999939E-003     1.0585634299786761E-004
  -4.4999999999999901E-003     1.2517083087004721E-004
  -3.3999999999999864E-003     1.4463077241089195E-004
  -2.2999999999999826E-003     1.6363592294510454E-004
  -1.1999999999999927E-003     1.8353298946749419E-004
  -9.9999999999988987E-005     2.0784100343007594E-004
   1.0000000000000148E-003     2.4088672944344580E-004
   2.1000000000000185E-003     2.8566291439346969E-004
   3.2000000000000084E-003     3.4237786894664168E-004
   4.3000000000000121E-003     4.0869240183383226E-004
   5.4000000000000159E-003     4.8144694301299751E-004
   6.5000000000000058E-003     5.5867357878014445E-004
   7.6000000000000234E-003     6.4062944147735834E-004
   8.7000000000000133E-003     7.2938227094709873E-004
   9.8000000000000032E-003     8.2746602129191160E-004
   1.0900000000000021E-002     9.3663274310529232E-004
   1.2000000000000011E-002     1.0574330808594823E-003
   1.3100000000000001E-002     1.1897381627932191E-003
   1.4200000000000018E-002     1.3336167903617024E-003
   1.5300000000000008E-002     1.4898675726726651E-003
   1.6400000000000026E-002     1.6597117064520717E-003
   1.7500000000000016E-002     1.8437474500387907E-003
   1.8600000000000005E-002     2.0408665295690298E-003
   1.9700000000000023E-002     2.2479351609945297E-003
   2.0800000000000013E-002     2.4606834631413221E-003
   2.1900000000000003E-002     2.6754182763397694E-003
   2.3000000000000020E-002     2.8903561178594828E-003
   2.4100000000000010E-002     3.1055200379341841E-003
   2.5200000000000000E-002     3.3210215624421835E-003
   2.6300000000000018E-002     3.5348504316061735E-003
   2.7400000000000008E-002     3.7418133579194546E-003
   2.8500000000000025E-002     3.9344555698335171E-003
   2.9600000000000015E-002     4.1052326560020447E-003
   3.0700000000000005E-002     4.2481604032218456E-003
   3.1800000000000023E-002     4.3586222454905510E-003
   3.2900000000000013E-002     4.4315224513411522E-003
   3.4000000000000002E-002     4.4595287181437016E-003
   3.5100000000000020E-002     4.4331839308142662E-003
   3.6200000000000010E-002     4.3428051285445690E-003
   3.7300000000000028E-002     4.1807661764323711E-003
   3.8400000000000017E-002     3.9421464316546917E-003
   3.9500000000000007E-002     3.6232280544936657E-003
   4.0600000000000025E-002     3.2192519865930080E-003
   4.1700000000000015E-002     2.7233827859163284E-003
   4.2800000000000005E-002     2.1279586944729090E-003
   4.3900000000000022E-002     1.4272793196141720E-003
   4.5000000000000012E-002     6.1960733728483319E-004
   4.6100000000000002E-002    -2.9252830427139997E-004
   4.7200000000000020E-002    -1.3039598707109690E-003
   4.8300000000000010E-002    -2.4087158963084221E-003
   4.9400000000000027E-002    -3.6010553594678640E-003
   5.0500000000000017E-002    -4.8745851963758469E-003
   5.1600000000000007E-002    -6.2210238538682461E-003
   5.2700000000000025E-002    -7.6287155970931053E-003
   5.3800000000000014E-002    -9.0821934863924980E-003
   5.4900000000000004E-002    -1.0562540031969547E-002
   5.6000000000000022E-002    -1.2048074044287205E-002
   5.7100000000000012E-002    -1.3515149243175983E-002
   5.8200000000000002E-002    -1.4938743785023689E-002
   5.9300000000000019E-002    -1.6292965039610863E-002
   6.0400000000000009E-002    -1.7550738528370857E-002
   6.1500000000000027E-002    -1.8684228882193565E-002
   6.2600000000000017E-002    -1.9665367901325226E-002
   6.3700000000000007E-002    -2.0467277616262436E-002
   6.4800000000000024E-002    -2.1065518260002136E-002
   6.5900000000000014E-002    -2.1438237279653549E-002
   6.7000000000000004E-002    -2.1565543487668037E-002
   6.8100000000000022E-002    -2.1428605541586876E-002
   6.9200000000000012E-002    -2.1009866148233414E-002
   7.0300000000000029E-002    -2.0295156165957451E-002
   7.1400000000000019E-002    -1.9276509061455727E-002
   7.2500000000000009E-002    -1.7953779548406601E-002
   7.3600000000000027E-002    -1.6334475949406624E-002
   7.4700000000000016E-002    -1.4431738294661045E-002
   7.5800000000000006E-002    -1.2262942269444466E-002
   7.6900000000000024E-002    -9.8497467115521431E-003
   7.8000000000000014E-002    -7.2194752283394337E-003
   7.9100000000000004E-002    -4.4059711508452892E-003
   8.0200000000000021E-002    -1.4488431625068188E-003
   8.1300000000000011E-002     1.6086571849882603E-003
   8.2400000000000029E-002     4.7215111553668976E-003
   8.3500000000000019E-002     7.8431982547044754E-003
   8.4600000000000009E-002     1.0924790054559708E-002
   8.5700000000000026E-002     1.3914552517235279E-002
   8.6800000000000016E-002     1.6758685931563377E-002
   8.7900000000000006E-002     1.9403895363211632E-002
   8.9000000000000024E-002     2.1799722686409950E-002
   9.0100000000000013E-002     2.3899603635072708E-002
   9.1200000000000003E-002     2.5661719962954521E-002
   9.2300000000000021E-002     2.7049589902162552E-002
   9.3400000000000011E-002     2.8033705428242683E-002
   9.4500000000000028E-002     2.8592474758625031E-002
   9.5600000000000018E-002     2.8713356703519821E-002
   9.6700000000000008E-002     2.8392188251018524E-002
   9.7800000000000026E-002     2.7632204815745354E-002
   9.8900000000000016E-002     2.6444107294082642E-002
  0.10000000000000001          2.4846766144037247E-002
  0.10110000000000002          2.2867430001497269E-002
  0.10220000000000001          2.0540870726108551E-002
  0.10330000000000003          1.7908662557601929E-002
  0.10440000000000002          1.5018370002508163E-002
  0.10550000000000001          1.1924095451831818E-002
  0.10660000000000003          8.6874160915613174E-003
  0.10770000000000002          5.3753261454403400E-003
  0.10880000000000001          2.0567746832966805E-003
  0.10990000000000003         -1.2013610685244203E-003
  0.11100000000000002         -4.3357261456549168E-003
  0.11210000000000001         -7.2855902835726738E-003
  0.11320000000000002         -9.9901966750621796E-003
  0.11430000000000001         -1.2389656156301498E-002
  0.11540000000000003         -1.4428322203457355E-002
  0.11650000000000002         -1.6059910878539085E-002
  0.11760000000000001         -1.7249215394258499E-002
  0.11870000000000003         -1.7970420420169830E-002
  0.11980000000000002         -1.8203999847173691E-002
  0.12090000000000001         -1.7936246469616890E-002
  0.12200000000000003         -1.7162451520562172E-002
  0.12310000000000001         -1.5890769660472870E-002
  0.12420000000000003         -1.4143210835754871E-002
  0.12530000000000002         -1.1952109634876251E-002
  0.12640000000000001         -9.3557406216859818E-003
  0.12750000000000003         -6.3966847956180573E-003
  0.12860000000000002         -3.1249155290424824E-003
  0.12970000000000001          3.9860286051407456E-004
  0.13080000000000003          4.1016535833477974E-003
  0.13190000000000002          7.9057784751057625E-003
  0.13300000000000001          1.1732279323041439E-002
  0.13410000000000000          1.5505275689065456E-002
  0.13520000000000004          1.9149780273437500E-002
  0.13630000000000003          2.2589134052395821E-002
  0.13740000000000002          2.5744847953319550E-002
  0.13850000000000001          2.8541490435600281E-002
  0.13960000000000000          3.0911507084965706E-002
  0.14070000000000005          3.2797407358884811E-002
  0.14180000000000004          3.4149695187807083E-002
  0.14290000000000003          3.4924417734146118E-002
  0.14400000000000002          3.5084359347820282E-002
  0.14510000000000001          3.4603483974933624E-002
  0.14620000000000000          3.3471677452325821E-002
  0.14730000000000004          3.1694274395704269E-002
  0.14840000000000003          2.9288578778505325E-002
  0.14950000000000002          2.6280190795660019E-002
  0.15060000000000001          2.2703384980559349E-002
  0.15170000000000000          1.8605057150125504E-002
  0.15280000000000005          1.4047483913600445E-002
  0.15390000000000004          9.1059608384966850E-003
  0.15500000000000003          3.8629970513284206E-003
  0.15610000000000002         -1.5967229846864939E-003
  0.15720000000000001         -7.1859196759760380E-003
  0.15830000000000000         -1.2812231667339802E-002
  0.15940000000000004         -1.8376894295215607E-002
  0.16050000000000003         -2.3779178038239479E-002
  0.16160000000000002         -2.8923252597451210E-002
  0.16270000000000001         -3.3722221851348877E-002
  0.16380000000000000         -3.8097977638244629E-002
  0.16490000000000005         -4.1976466774940491E-002
  0.16600000000000004         -4.5287109911441803E-002
  0.16710000000000003         -4.7967515885829926E-002
  0.16820000000000002         -4.9970712512731552E-002
  0.16930000000000001         -5.1268678158521652E-002
  0.17040000000000000         -5.1849927753210068E-002
  0.17150000000000004         -5.1712479442358017E-002
  0.17260000000000003         -5.0861902534961700E-002
  0.17370000000000002         -4.9314159899950027E-002
  0.17480000000000001         -4.7101352363824844E-002
  0.17590000000000000         -4.4273301959037781E-002
  0.17700000000000005         -4.0892928838729858E-002
  0.17810000000000004         -3.7029188126325607E-002
  0.17920000000000003         -3.2753247767686844E-002
  0.18030000000000002         -2.8140084818005562E-002
  0.18140000000000001         -2.3272365331649780E-002
  0.18250000000000000         -1.8240224570035934E-002
  0.18360000000000004         -1.3135775923728943E-002
  0.18470000000000003         -8.0454079434275627E-003
  0.18580000000000002         -3.0477212276309729E-003
  0.18690000000000001          1.7841418739408255E-003
  0.18800000000000000          6.3782571814954281E-003
  0.18910000000000005          1.0664346627891064E-002
  0.19020000000000004          1.4578955247998238E-002
  0.19130000000000003          1.8071843311190605E-002
  0.19240000000000002          2.1107494831085205E-002
  0.19350000000000001          2.3661868646740913E-002
  0.19460000000000005          2.5717863813042641E-002
  0.19570000000000004          2.7265414595603943E-002
  0.19680000000000003          2.8304735198616982E-002
  0.19790000000000002          2.8849400579929352E-002
  0.19900000000000001          2.8924359008669853E-002
  0.20010000000000000          2.8560655191540718E-002
  0.20120000000000005          2.7791138738393784E-002
  0.20230000000000004          2.6650989428162575E-002
  0.20340000000000003          2.5181926786899567E-002
  0.20450000000000002          2.3434231057763100E-002
  0.20560000000000000          2.1464047953486443E-002
  0.20670000000000005          1.9326936453580856E-002
  0.20780000000000004          1.7073733732104301E-002
  0.20890000000000003          1.4751682989299297E-002
