 -0.12000000000000000          0.0000000000000000
 -0.11889999999999999          0.0000000000000000
 -0.11780000000000000          0.0000000000000000
 -0.11670000000000000          9.6713609343268558E-013
 -0.11559999999999999          4.3042353535527322E-012
 -0.11449999999999999          5.7529063977879158E-012
 -0.11340000000000000         -7.4186056603364747E-012
 -0.11230000000000000         -3.9413187991055310E-011
 -0.11119999999999999         -5.8520639723003143E-011
 -0.11009999999999999         -6.4593868448481473E-012
 -0.10900000000000000          1.2747554400949213E-010
 -0.10790000000000000          2.3236615409594208E-010
 -0.10679999999999999          1.2907787338978238E-010
 -0.10569999999999999         -2.2109478137188887E-010
 -0.10460000000000000         -5.4600779453295445E-010
 -0.10349999999999999         -4.0939665546524395E-010
 -0.10239999999999999          3.1210267703585259E-010
 -0.10130000000000000          1.0607675848817166E-009
 -0.10020000000000000          8.9784046863883304E-010
  -9.9099999999999994E-002    -5.2554610663335666E-010
  -9.7999999999999990E-002    -2.1844523967473606E-009
  -9.6899999999999986E-002    -2.1595241150862421E-009
  -9.5799999999999996E-002     5.4691540185558551E-010
  -9.4699999999999993E-002     4.3474246425034835E-009
  -9.3599999999999989E-002     5.5573101676031911E-009
  -9.2499999999999999E-002     1.4586726271303974E-009
  -9.1399999999999995E-002    -6.3249552262334419E-009
  -9.0299999999999991E-002    -1.1639811781094522E-008
  -8.9200000000000002E-002    -8.2081266228328786E-009
  -8.8099999999999984E-002     4.2426591129185454E-009
  -8.6999999999999994E-002     1.7673778884841340E-008
  -8.5899999999999990E-002     2.0645321896495261E-008
  -8.4799999999999986E-002     7.7263759834522716E-009
  -8.3699999999999997E-002    -1.4287076410823829E-008
  -8.2599999999999993E-002    -2.9741988427645083E-008
  -8.1499999999999989E-002    -2.5852457952169061E-008
  -8.0399999999999999E-002    -3.6786582668923984E-009
  -7.9299999999999995E-002     2.1430333063676699E-008
  -7.8199999999999992E-002     3.1481121709475701E-008
  -7.7100000000000002E-002     2.0420674928800508E-008
  -7.5999999999999984E-002    -9.8359664857383677E-010
  -7.4899999999999994E-002    -1.4864554920279716E-008
  -7.3799999999999991E-002    -1.2560843920539355E-008
  -7.2699999999999987E-002    -2.9482922769830111E-009
  -7.1599999999999997E-002    -4.6703023670602306E-009
  -7.0499999999999993E-002    -2.8536835117165538E-008
  -6.9399999999999989E-002    -6.5870850107785373E-008
  -6.8300000000000000E-002    -9.4044395382297807E-008
  -6.7199999999999996E-002    -9.5273961164821230E-008
  -6.6099999999999992E-002    -7.2461929789824353E-008
  -6.5000000000000002E-002    -4.7942886993723732E-008
  -6.3899999999999985E-002    -4.5973333584470311E-008
  -6.2799999999999995E-002    -7.4223116541816125E-008
  -6.1699999999999991E-002    -1.2018507788980060E-007
  -6.0599999999999994E-002    -1.6475702580009965E-007
  -5.9499999999999990E-002    -1.9998745415250596E-007
  -5.8399999999999994E-002    -2.3515906377724605E-007
  -5.7299999999999990E-002    -2.8711113486679096E-007
  -5.6199999999999986E-002    -3.6533845104713691E-007
  -5.5099999999999996E-002    -4.6604927206317370E-007
  -5.3999999999999992E-002    -5.7933306152335717E-007
  -5.2899999999999989E-002    -7.0063106250017881E-007
  -5.1799999999999985E-002    -8.3485036839192617E-007
  -5.0699999999999995E-002    -9.9075725756847532E-007
  -4.9599999999999991E-002    -1.1740689842554275E-006
  -4.8499999999999988E-002    -1.3880994629289489E-006
  -4.7399999999999998E-002    -1.6406880831709714E-006
  -4.6299999999999994E-002    -1.9472759049676824E-006
  -4.5199999999999990E-002    -2.3233358206198318E-006
  -4.4099999999999986E-002    -2.7723281164071523E-006
  -4.2999999999999997E-002    -3.2834864214237314E-006
  -4.1899999999999993E-002    -3.8460843825305346E-006
  -4.0799999999999989E-002    -4.4691114453598857E-006
  -3.9699999999999985E-002    -5.1860279199900106E-006
  -3.8599999999999995E-002    -6.0358183873177040E-006
  -3.7499999999999992E-002    -7.0352020884456579E-006
  -3.6399999999999988E-002    -8.1691177911125124E-006
  -3.5299999999999984E-002    -9.4123797680367716E-006
  -3.4199999999999994E-002    -1.0765301340143196E-005
  -3.3099999999999991E-002    -1.2269343642401509E-005
  -3.1999999999999987E-002    -1.3984547877043951E-005
  -3.0899999999999997E-002    -1.5946427083690651E-005
  -2.9799999999999993E-002    -1.8142312910640612E-005
  -2.8699999999999989E-002    -2.0531777408905327E-005
  -2.7599999999999986E-002    -2.3094311472959816E-005
  -2.6499999999999996E-002    -2.5859393645077944E-005
  -2.5399999999999992E-002    -2.8888298402307555E-005
  -2.4299999999999988E-002    -3.2222342269960791E-005
  -2.3199999999999985E-002    -3.5845940146828070E-005
  -2.2099999999999995E-002    -3.9700440538581461E-005
  -2.0999999999999991E-002    -4.3736508814617991E-005
  -1.9899999999999987E-002    -4.7954566980479285E-005
  -1.8799999999999983E-002    -5.2392893849173561E-005
  -1.7699999999999994E-002    -5.7073499192483723E-005
  -1.6599999999999990E-002    -6.1958111473359168E-005
  -1.5499999999999986E-002    -6.6957501985598356E-005
  -1.4399999999999996E-002    -7.1984875830821693E-005
  -1.3299999999999992E-002    -7.7000055171083659E-005
  -1.2199999999999989E-002    -8.1998921814374626E-005
  -1.1099999999999985E-002    -8.6957479652483016E-005
  -9.9999999999999950E-003    -9.1786467237398028E-005
  -8.8999999999999913E-003    -9.6343181212432683E-005
  -7.7999999999999875E-003    -1.0049086995422840E-004
  -6.6999999999999837E-003    -1.0414655844215304E-004
  -5.5999999999999939E-003    -1.0726772597990930E-004
  -4.4999999999999901E-003    -1.0978941281791776E-004
  -3.3999999999999864E-003    -1.1157518019899726E-004
  -2.2999999999999826E-003    -1.1243348853895441E-004
  -1.1999999999999927E-003    -1.1218745930818841E-004
  -9.9999999999988987E-005    -1.1073140194639564E-004
   1.0000000000000148E-003    -1.0801738972077146E-004
   2.1000000000000185E-003    -1.0398498852737248E-004
   3.2000000000000084E-003    -9.8505086498335004E-005
   4.3000000000000121E-003    -9.1397290816530585E-005
   5.4000000000000159E-003    -8.2508959167171270E-005
   6.5000000000000058E-003    -7.1781367296352983E-005
   7.6000000000000234E-003    -5.9238449466647580E-005
   8.7000000000000133E-003    -4.4909709686180577E-005
   9.8000000000000032E-003    -2.8764758098986931E-005
   1.0900000000000021E-002    -1.0726478649303317E-005
   1.2000000000000011E-002     9.2456975835375488E-006
   1.3100000000000001E-002     3.1081974157132208E-005
   1.4200000000000018E-002     5.4609517974313349E-005
   1.5300000000000008E-002     7.9632802226115018E-005
   1.6400000000000026E-002     1.0600735549814999E-004
   1.7500000000000016E-002     1.3363298785407096E-004
   1.8600000000000005E-002     1.6237256932072341E-004
   1.9700000000000023E-002     1.9197577785234898E-004
   2.0800000000000013E-002     2.2208313748706132E-004
   2.1900000000000003E-002     2.5230794562958181E-004
   2.3000000000000020E-002     2.8231675969436765E-004
   2.4100000000000010E-002     3.1183255487121642E-004
   2.5200000000000000E-002     3.4056248841807246E-004
   2.6300000000000018E-002     3.6812655162066221E-004
   2.7400000000000008E-002     3.9406146970577538E-004
   2.8500000000000025E-002     4.1789904935285449E-004
   2.9600000000000015E-002     4.3924455530941486E-004
   3.0700000000000005E-002     4.5778258936479688E-004
   3.1800000000000023E-002     4.7321146121248603E-004
   3.2900000000000013E-002     4.8517805407755077E-004
   3.4000000000000002E-002     4.9328396562486887E-004
   3.5100000000000020E-002     4.9716111971065402E-004
   3.6200000000000010E-002     4.9654586473479867E-004
   3.7300000000000028E-002     4.9128476530313492E-004
   3.8400000000000017E-002     4.8127325135283172E-004
   3.9500000000000007E-002     4.6639522770419717E-004
   4.0600000000000025E-002     4.4652767246589065E-004
   4.1700000000000015E-002     4.2160737211816013E-004
   4.2800000000000005E-002     3.9169515366666019E-004
   4.3900000000000022E-002     3.5697518615052104E-004
   4.5000000000000012E-002     3.1769421184435487E-004
   4.6100000000000002E-002     2.7410412440076470E-004
   4.7200000000000020E-002     2.2646541765425354E-004
   4.8300000000000010E-002     1.7510530597064644E-004
   4.9400000000000027E-002     1.2046796473441646E-004
   5.0500000000000017E-002     6.3104773289524019E-005
   5.1600000000000007E-002     3.6126443774264771E-006
   5.2700000000000025E-002    -5.7422548707108945E-005
   5.3800000000000014E-002    -1.1942793207708746E-004
   5.4900000000000004E-002    -1.8179339531343430E-004
   5.6000000000000022E-002    -2.4382917035836726E-004
   5.7100000000000012E-002    -3.0478159897029400E-004
   5.8200000000000002E-002    -3.6389735760167241E-004
   5.9300000000000019E-002    -4.2048361501656473E-004
   6.0400000000000009E-002    -4.7391554107889533E-004
   6.1500000000000027E-002    -5.2359630353748798E-004
   6.2600000000000017E-002    -5.6891777785494924E-004
   6.3700000000000007E-002    -6.0926860896870494E-004
   6.4800000000000024E-002    -6.4408767502754927E-004
   6.5900000000000014E-002    -6.7291880259290338E-004
   6.7000000000000004E-002    -6.9542427081614733E-004
   6.8100000000000022E-002    -7.1135343750938773E-004
   6.9200000000000012E-002    -7.2050432208925486E-004
   7.0300000000000029E-002    -7.2271865792572498E-004
   7.1400000000000019E-002    -7.1791553637012839E-004
   7.2500000000000009E-002    -7.0613308344036341E-004
   7.3600000000000027E-002    -6.8754330277442932E-004
   7.4700000000000016E-002    -6.6243013134226203E-004
   7.5800000000000006E-002    -6.3115207012742758E-004
   7.6900000000000024E-002    -5.9411721304059029E-004
   7.8000000000000014E-002    -5.5178557522594929E-004
   7.9100000000000004E-002    -5.0468865083530545E-004
   8.0200000000000021E-002    -4.5344245154410601E-004
   8.1300000000000011E-002    -3.9873862988315523E-004
   8.2400000000000029E-002    -3.4131575375795364E-004
   8.3500000000000019E-002    -2.8192432364448905E-004
   8.4600000000000009E-002    -2.2130309662315995E-004
   8.5700000000000026E-002    -1.6017736925277859E-004
   8.6800000000000016E-002    -9.9270138889551163E-005
   8.7900000000000006E-002    -3.9310616557486355E-005
   8.9000000000000024E-002     1.8976656065206043E-005
   9.0100000000000013E-002     7.4906041845679283E-005
   9.1200000000000003E-002     1.2786744628101587E-004
   9.2300000000000021E-002     1.7734206630848348E-004
   9.3400000000000011E-002     2.2289066691882908E-004
   9.4500000000000028E-002     2.6412834995426238E-004
   9.5600000000000018E-002     3.0071416404098272E-004
   9.6700000000000008E-002     3.3237150637432933E-004
   9.7800000000000026E-002     3.5892325104214251E-004
   9.8900000000000016E-002     3.8030932773835957E-004
  0.10000000000000001          3.9656751323491335E-004
  0.10110000000000002          4.0779088158160448E-004
  0.10220000000000001          4.1409998084418476E-004
  0.10330000000000003          4.1565470746718347E-004
  0.10440000000000002          4.1268931818194687E-004
  0.10550000000000001          4.0553096914663911E-004
  0.10660000000000003          3.9457625825889409E-004
  0.10770000000000002          3.8023956585675478E-004
  0.10880000000000001          3.6291801370680332E-004
  0.10990000000000003          3.4300031256861985E-004
  0.11100000000000002          3.2090145396068692E-004
  0.11210000000000001          2.9708025977015495E-004
  0.11320000000000002          2.7201249031350017E-004
  0.11430000000000001          2.4613866116851568E-004
  0.11540000000000003          2.1983328042551875E-004
  0.11650000000000002          1.9342171435710043E-004
  0.11760000000000001          1.6722430882509798E-004
  0.11870000000000003          1.4157734403852373E-004
  0.11980000000000002          1.1680532770697027E-004
  0.12090000000000001          9.3169212050270289E-005
  0.12200000000000003          7.0841582783032209E-005
  0.12310000000000001          4.9935359129449353E-005
  0.12420000000000003          3.0557541322195902E-005
  0.12530000000000002          1.2833677828893997E-005
  0.12640000000000001         -3.1226275041262852E-006
  0.12750000000000003         -1.7264119378523901E-005
  0.12860000000000002         -2.9630782591993921E-005
  0.12970000000000001         -4.0312184864887968E-005
  0.13080000000000003         -4.9385071179131046E-005
  0.13190000000000002         -5.6885579397203401E-005
  0.13300000000000001         -6.2841594626661390E-005
  0.13410000000000000         -6.7329885496292263E-005
  0.13520000000000004         -7.0497080741915852E-005
  0.13630000000000003         -7.2519804234616458E-005
  0.13740000000000002         -7.3540293669793755E-005
  0.13850000000000001         -7.3638810135889798E-005
  0.13960000000000000         -7.2868417191784829E-005
  0.14070000000000005         -7.1316455432679504E-005
  0.14180000000000004         -6.9130270276218653E-005
  0.14290000000000003         -6.6480941313784570E-005
  0.14400000000000002         -6.3500025134999305E-005
  0.14510000000000001         -6.0250036767683923E-005
  0.14620000000000000         -5.6755325203994289E-005
  0.14730000000000004         -5.3060532081872225E-005
  0.14840000000000003         -4.9258542276220396E-005
  0.14950000000000002         -4.5462140406016260E-005
  0.15060000000000001         -4.1749681258806959E-005
  0.15170000000000000         -3.8139223761390895E-005
  0.15280000000000005         -3.4615164622664452E-005
  0.15390000000000004         -3.1179130019154400E-005
  0.15500000000000003         -2.7874984880327247E-005
  0.15610000000000002         -2.4765884518274106E-005
  0.15720000000000001         -2.1889261915930547E-005
  0.15830000000000000         -1.9235216313973069E-005
  0.15940000000000004         -1.6767855413490906E-005
  0.16050000000000003         -1.4466138054558542E-005
  0.16160000000000002         -1.2343617527221795E-005
  0.16270000000000001         -1.0430228030600119E-005
  0.16380000000000000         -8.7373118731193244E-006
  0.16490000000000005         -7.2414372880302835E-006
  0.16600000000000004         -5.9013559621234890E-006
  0.16710000000000003         -4.6892996579117607E-006
  0.16820000000000002         -3.6058115711057326E-006
  0.16930000000000001         -2.6659572540665977E-006
  0.17040000000000000         -1.8731180944087100E-006
  0.17150000000000004         -1.2064771226505400E-006
  0.17260000000000003         -6.3256788962462451E-007
  0.17370000000000002         -1.2755923251006607E-007
  0.17480000000000001          3.1140916689764708E-007
  0.17590000000000000          6.7481397536539589E-007
  0.17700000000000005          9.5914674602681771E-007
  0.17810000000000004          1.1778587349908776E-006
  0.17920000000000003          1.3564317669079173E-006
  0.18030000000000002          1.5175232874753419E-006
  0.18140000000000001          1.6690651136741508E-006
  0.18250000000000000          1.8036896562989568E-006
  0.18360000000000004          1.9084352516074432E-006
  0.18470000000000003          1.9770957351283869E-006
  0.18580000000000002          2.0167526599834673E-006
  0.18690000000000001          2.0441086689970689E-006
  0.18800000000000000          2.0736235910590040E-006
  0.18910000000000005          2.1055875549791381E-006
  0.19020000000000004          2.1240218757156981E-006
  0.19130000000000003          2.1082389594084816E-006
  0.19240000000000002          2.0504885469563305E-006
  0.19350000000000001          1.9645137854240602E-006
  0.19460000000000005          1.8751696870822343E-006
  0.19570000000000004          1.7958112721316866E-006
  0.19680000000000003          1.7136334236056427E-006
  0.19790000000000002          1.5987905044312356E-006
  0.19900000000000001          1.4318601415652665E-006
  0.20010000000000000          1.2249806786712725E-006
  0.20120000000000005          1.0149807394554955E-006
  0.20230000000000004          8.3216303892186261E-007
  0.20340000000000003          6.7304006279300665E-007
  0.20450000000000002          5.0412734253768576E-007
  0.20560000000000000          2.9543770097006927E-007
  0.20670000000000005          5.2867349609186931E-008
  0.20780000000000004         -1.8229557952054165E-007
  0.20890000000000003         -3.6806130765398848E-007
