 -0.12000000000000000          0.0000000000000000
 -0.11889999999999999          0.0000000000000000
 -0.11780000000000000          0.0000000000000000
 -0.11670000000000000         -2.2956391561995693E-012
 -0.11559999999999999         -1.2002682701905965E-011
 -0.11449999999999999         -2.5395080135992565E-011
 -0.11340000000000000         -1.5842577250069212E-011
 -0.11230000000000000          5.0085841724056834E-011
 -0.11119999999999999          1.5850364076808177E-010
 -0.11009999999999999          2.1156672247446551E-010
 -0.10900000000000000          8.0557831239058686E-011
 -0.10790000000000000         -2.6326466007198235E-010
 -0.10679999999999999         -6.5942401539231810E-010
 -0.10569999999999999         -8.1949796948421749E-010
 -0.10460000000000000         -5.0382747973642950E-010
 -0.10349999999999999          3.3166228097236683E-010
 -0.10239999999999999          1.4920857882572136E-009
 -0.10130000000000000          2.5268336312223028E-009
 -0.10020000000000000          2.6986664014572170E-009
  -9.9099999999999994E-002     1.1537941713157807E-009
  -9.7999999999999990E-002    -2.4100932360937577E-009
  -9.6899999999999986E-002    -6.7775269840808505E-009
  -9.5799999999999996E-002    -8.9469009978415670E-009
  -9.4699999999999993E-002    -5.6394564573736261E-009
  -9.3599999999999989E-002     3.6899565625247988E-009
  -9.2499999999999999E-002     1.4631341471726955E-008
  -9.1399999999999995E-002     1.9233130643669938E-008
  -9.0299999999999991E-002     1.1511296804656013E-008
  -8.9200000000000002E-002    -6.5371614788034549E-009
  -8.8099999999999984E-002    -2.3993544928657684E-008
  -8.6999999999999994E-002    -2.7733490171044650E-008
  -8.5899999999999990E-002    -1.2825712936148648E-008
  -8.4799999999999986E-002     1.1890156415006459E-008
  -8.3699999999999997E-002     2.9002574564174211E-008
  -8.2599999999999993E-002     2.5714211204785897E-008
  -8.1499999999999989E-002     4.5307100293712210E-009
  -8.0399999999999999E-002    -1.8115450473032979E-008
  -7.9299999999999995E-002    -2.4989727620550184E-008
  -7.8199999999999992E-002    -1.2069032884198805E-008
  -7.7100000000000002E-002     8.7206091237135297E-009
  -7.5999999999999984E-002     2.0361415664638116E-008
  -7.4899999999999994E-002     1.5239857376059263E-008
  -7.3799999999999991E-002     2.1551306572664686E-010
  -7.2699999999999987E-002    -1.1568026536679099E-008
  -7.1599999999999997E-002    -1.3247325902909779E-008
  -7.0499999999999993E-002    -8.6562090828579130E-009
  -6.9399999999999989E-002    -5.1431663372625280E-009
  -6.8300000000000000E-002    -3.7506944217113869E-009
  -6.7199999999999996E-002     1.6299654959084364E-009
  -6.6099999999999992E-002     1.4765490163881623E-008
  -6.5000000000000002E-002     2.8296623710843960E-008
  -6.3899999999999985E-002     2.7428455950939679E-008
  -6.2799999999999995E-002     4.8657571305454894E-009
  -6.1699999999999991E-002    -2.7832788518367124E-008
  -6.0599999999999994E-002    -4.6243929574529830E-008
  -5.9499999999999990E-002    -3.3614853123253852E-008
  -5.8399999999999994E-002     2.8293161147274759E-009
  -5.7299999999999990E-002     3.6646373047233283E-008
  -5.6199999999999986E-002     4.5052054531424801E-008
  -5.5099999999999996E-002     2.8423034592606200E-008
  -5.3999999999999992E-002     7.2375931914336888E-009
  -5.2899999999999989E-002    -4.2768411034899145E-010
  -5.1799999999999985E-002     2.5375057610688145E-009
  -5.0699999999999995E-002    -2.3130455328868038E-009
  -4.9599999999999991E-002    -2.4573321155685335E-008
  -4.8499999999999988E-002    -4.7998483410083281E-008
  -4.7399999999999998E-002    -4.1826684338275300E-008
  -4.6299999999999994E-002     7.6302644202996817E-009
  -4.5199999999999990E-002     7.6529175885298173E-008
  -4.4099999999999986E-002     1.1783986053615081E-007
  -4.2999999999999997E-002     1.0061615540735147E-007
  -4.1899999999999993E-002     3.7917754269756188E-008
  -4.0799999999999989E-002    -2.4160611289403278E-008
  -3.9699999999999985E-002    -4.6777078210880063E-008
  -3.8599999999999995E-002    -2.9402961843061348E-008
  -3.7499999999999992E-002    -2.2579924596755063E-009
  -3.6399999999999988E-002     1.0171487652144151E-008
  -3.5299999999999984E-002     1.5343776027521017E-008
  -3.4199999999999994E-002     4.0505543807967115E-008
  -3.3099999999999991E-002     9.5255629162238620E-008
  -3.1999999999999987E-002     1.5045628742882400E-007
  -3.0899999999999997E-002     1.5986874757345504E-007
  -2.9799999999999993E-002     1.0594831678645278E-007
  -2.8699999999999989E-002     2.3072104227139789E-008
  -2.7599999999999986E-002    -2.8624416614775328E-008
  -2.6499999999999996E-002    -1.5914073614453628E-008
  -2.5399999999999992E-002     3.9873928159295247E-008
  -2.4299999999999988E-002     8.8020058797155798E-008
  -2.3199999999999985E-002     1.0061377508918667E-007
  -2.2099999999999995E-002     9.7576119628683955E-008
  -2.0999999999999991E-002     1.1803799537801751E-007
  -1.9899999999999987E-002     1.6853621787049633E-007
  -1.8799999999999983E-002     2.0532273481421726E-007
  -1.7699999999999994E-002     1.7453344014484173E-007
  -1.6599999999999990E-002     7.2519974025908596E-008
  -1.5499999999999986E-002    -3.6791714563833011E-008
  -1.4399999999999996E-002    -7.1219425024082739E-008
  -1.3299999999999992E-002    -2.9249842548040306E-009
  -1.2199999999999989E-002     1.1546981681931356E-007
  -1.1099999999999985E-002     1.9737301215627667E-007
  -9.9999999999999950E-003     1.9662901706851699E-007
  -8.8999999999999913E-003     1.3829597378389735E-007
  -7.7999999999999875E-003     7.9772945582590182E-008
  -6.6999999999999837E-003     4.7355413812510960E-008
  -5.5999999999999939E-003     1.6280656822686979E-008
  -4.4999999999999901E-003    -4.6614839988023959E-008
  -3.3999999999999864E-003    -1.2791130643563520E-007
  -2.2999999999999826E-003    -1.6599632601810299E-007
  -1.1999999999999927E-003    -1.1180796377630031E-007
  -9.9999999999988987E-005     9.3539487266980359E-009
   1.0000000000000148E-003     1.0408013650931025E-007
   2.1000000000000185E-003     8.8074280313321651E-008
   3.2000000000000084E-003    -3.7567513544445319E-008
   4.3000000000000121E-003    -1.8720815830874926E-007
   5.4000000000000159E-003    -2.6973799549523392E-007
   6.5000000000000058E-003    -2.6869957991948468E-007
   7.6000000000000234E-003    -2.4501702000634396E-007
   8.7000000000000133E-003    -2.6251683493683231E-007
   9.8000000000000032E-003    -3.1606265338268713E-007
   1.0900000000000021E-002    -3.3885797279253893E-007
   1.2000000000000011E-002    -2.8138927632426203E-007
   1.3100000000000001E-002    -1.7747751712704485E-007
   1.4200000000000018E-002    -1.2343684829829726E-007
   1.5300000000000008E-002    -1.8625451048137620E-007
   1.6400000000000026E-002    -3.3350167427670385E-007
   1.7500000000000016E-002    -4.5895836819909164E-007
   1.8600000000000005E-002    -4.8195710178333684E-007
   1.9700000000000023E-002    -4.2129360622311651E-007
   2.0800000000000013E-002    -3.6859722740700818E-007
   2.1900000000000003E-002    -3.8873884022905258E-007
   2.3000000000000020E-002    -4.5058598630021152E-007
   2.4100000000000010E-002    -4.6070749704085756E-007
   2.5200000000000000E-002    -3.6693614902105764E-007
   2.6300000000000018E-002    -2.2352396911173855E-007
   2.7400000000000008E-002    -1.4691626404328417E-007
   2.8500000000000025E-002    -2.0460578298298060E-007
   2.9600000000000015E-002    -3.4872613241532235E-007
   3.0700000000000005E-002    -4.6208404569370032E-007
   3.1800000000000023E-002    -4.6946036036388250E-007
   3.2900000000000013E-002    -4.0197556927523692E-007
   3.4000000000000002E-002    -3.5046082302869763E-007
   3.5100000000000020E-002    -3.5930921171711816E-007
   3.6200000000000010E-002    -3.7594767832160869E-007
   3.7300000000000028E-002    -3.1063518690643832E-007
   3.8400000000000017E-002    -1.4324008645871800E-007
   3.9500000000000007E-002     3.6058931840443620E-008
   4.0600000000000025E-002     1.0172153963594610E-007
   4.1700000000000015E-002     1.3277545285461656E-008
   4.2800000000000005E-002    -1.4241253154523292E-007
   4.3900000000000022E-002    -2.2992554704615031E-007
   4.5000000000000012E-002    -1.8645549459961330E-007
   4.6100000000000002E-002    -6.5864519172009750E-008
   4.7200000000000020E-002     3.4690298633677230E-008
   4.8300000000000010E-002     8.3579180909509887E-008
   4.9400000000000027E-002     1.4355639166296896E-007
   5.0500000000000017E-002     2.9155387437640456E-007
   5.1600000000000007E-002     5.1689460178749869E-007
   5.2700000000000025E-002     7.0860033929420752E-007
   5.3800000000000014E-002     7.5413726108308765E-007
   5.4900000000000004E-002     6.5248434566456126E-007
   5.6000000000000022E-002     5.2199459332769038E-007
   5.7100000000000012E-002     4.9467763574284618E-007
   5.8200000000000002E-002     5.9967254628645605E-007
   5.9300000000000019E-002     7.5104190955244121E-007
   6.0400000000000009E-002     8.4901068930776091E-007
   6.1500000000000027E-002     8.8535909981146688E-007
   6.2600000000000017E-002     9.4242795967147686E-007
   6.3700000000000007E-002     1.0885535175475525E-006
   6.4800000000000024E-002     1.2837430176659836E-006
   6.5900000000000014E-002     1.4000132750879857E-006
   6.7000000000000004E-002     1.3415120747595211E-006
   6.8100000000000022E-002     1.1435375881774235E-006
   6.9200000000000012E-002     9.4752061841063551E-007
   7.0300000000000029E-002     8.7205478394025704E-007
   7.1400000000000019E-002     9.0829172449957696E-007
   7.2500000000000009E-002     9.4419448259941419E-007
   7.3600000000000027E-002     8.8916266349770012E-007
   7.4700000000000016E-002     7.6772028023697203E-007
   7.5800000000000006E-002     6.8660489205285558E-007
   7.6900000000000024E-002     7.1190873995874426E-007
   7.8000000000000014E-002     7.8387341773122898E-007
   7.9100000000000004E-002     7.6256407055552700E-007
   8.0200000000000021E-002     5.6135894510589424E-007
   8.1300000000000011E-002     2.3303796581330971E-007
   8.2400000000000029E-002    -7.5330405024942593E-008
   8.3500000000000019E-002    -2.5736866859915608E-007
   8.4600000000000009E-002    -3.3703688018249522E-007
   8.5700000000000026E-002    -4.2459265614525066E-007
   8.6800000000000016E-002    -5.8960853266398772E-007
   8.7900000000000006E-002    -7.8303952477654093E-007
   8.9000000000000024E-002    -8.9035796690950519E-007
   9.0100000000000013E-002    -8.6086072315083584E-007
   9.1200000000000003E-002    -7.7650673802054371E-007
   9.2300000000000021E-002    -7.8591216379209072E-007
   9.3400000000000011E-002    -9.6576025043759728E-007
   9.4500000000000028E-002    -1.2454709121811902E-006
   9.5600000000000018E-002    -1.4727914958712063E-006
   9.6700000000000008E-002    -1.5526974266322213E-006
   9.7800000000000026E-002    -1.5202481336018536E-006
   9.8900000000000016E-002    -1.4819423768130946E-006
  0.10000000000000001         -1.4927005622666911E-006
  0.10110000000000002         -1.4970452184570604E-006
  0.10220000000000001         -1.3945726777819800E-006
  0.10330000000000003         -1.1603452776398626E-006
  0.10440000000000002         -8.9132913672074210E-007
  0.10550000000000001         -7.2645644877411542E-007
  0.10660000000000003         -7.1849132154966355E-007
  0.10770000000000002         -7.8538732850574888E-007
  0.10880000000000001         -7.8966832006699406E-007
  0.10990000000000003         -6.6604565063244081E-007
  0.11100000000000002         -4.7217702103807824E-007
  0.11210000000000001         -3.1594981919624843E-007
  0.11320000000000002         -2.3665258197524963E-007
  0.11430000000000001         -1.6369722288800403E-007
  0.11540000000000003          4.9153183745431761E-009
  0.11650000000000002          2.8601147050721920E-007
  0.11760000000000001          5.7676436426845612E-007
  0.11870000000000003          7.4051331466762349E-007
  0.11980000000000002          7.2955975838340237E-007
  0.12090000000000001          6.2474782680510543E-007
  0.12200000000000003          5.5350921002172981E-007
  0.12310000000000001          5.7048981716434355E-007
  0.12420000000000003          6.1849544863434858E-007
  0.12530000000000002          6.0581169236684218E-007
  0.12640000000000001          5.1759843699983321E-007
  0.12750000000000003          4.4294819190326962E-007
  0.12860000000000002          4.8724973567004781E-007
  0.12970000000000001          6.5592990949880914E-007
  0.13080000000000003          8.3107136106264079E-007
  0.13190000000000002          8.7006156945790281E-007
  0.13300000000000001          7.3134816602760111E-007
  0.13410000000000000          5.0855527433668613E-007
  0.13520000000000004          3.4012973060271179E-007
  0.13630000000000003          2.8335927027001162E-007
  0.13740000000000002          2.7716461659110792E-007
  0.13850000000000001          2.2480243444533698E-007
  0.13960000000000000          1.0914888548541057E-007
  0.14070000000000005          1.9582925503414117E-008
  0.14180000000000004          5.9472242242009088E-008
  0.14290000000000003          2.2779832420383173E-007
  0.14400000000000002          3.9868660905995057E-007
  0.14510000000000001          4.2728666471703036E-007
  0.14620000000000000          2.8205826652083488E-007
  0.14730000000000004          7.2975538500941184E-008
  0.14840000000000003         -5.4319368558708447E-008
  0.14950000000000002         -5.5079276251035481E-008
  0.15060000000000001         -1.7746200953183688E-008
  0.15170000000000000         -6.0916860888937663E-008
  0.15280000000000005         -2.0056528171608079E-007
  0.15390000000000004         -3.2491900014974817E-007
  0.15500000000000003         -3.0649863447251846E-007
  0.15610000000000002         -1.3979533264318889E-007
  0.15720000000000001          3.7931155105752623E-008
  0.15830000000000000          7.0337250690499786E-008
  0.15940000000000004         -6.9245018607944075E-008
  0.16050000000000003         -2.5284384719270747E-007
  0.16160000000000002         -3.2454155984851241E-007
  0.16270000000000001         -2.5327312869194429E-007
  0.16380000000000000         -1.5722717705557443E-007
  0.16490000000000005         -1.7418167885807634E-007
  0.16600000000000004         -3.0985722787590930E-007
  0.16710000000000003         -4.2212724338241969E-007
  0.16820000000000002         -3.6235940115147969E-007
  0.16930000000000001         -1.3250148356291902E-007
  0.17040000000000000          1.0466608557635482E-007
  0.17150000000000004          1.7834852883424901E-007
  0.17260000000000003          7.4121970783380675E-008
  0.17370000000000002         -5.7477766546298881E-008
  0.17480000000000001         -5.8686261183993338E-008
  0.17590000000000000          7.2174948684278206E-008
  0.17700000000000005          1.8111016686361836E-007
  0.17810000000000004          1.2464654730592883E-007
  0.17920000000000003         -6.9754200637817121E-008
  0.18030000000000002         -2.1951321116375766E-007
  0.18140000000000001         -1.6930341928400594E-007
  0.18250000000000000          4.5478383725594540E-008
  0.18360000000000004          2.2626987572493817E-007
  0.18470000000000003          2.0785175536275347E-007
  0.18580000000000002          2.4371981766080353E-008
  0.18690000000000001         -1.2820659378576238E-007
  0.18800000000000000         -9.7811430066485627E-008
  0.18910000000000005          6.2498038744251971E-008
  0.19020000000000004          1.4924268043614575E-007
  0.19130000000000003          2.7220771414704359E-008
  0.19240000000000002         -2.1547666051446868E-007
  0.19350000000000001         -3.4451792885192845E-007
  0.19460000000000005         -2.1710268072183680E-007
  0.19570000000000004          6.4118928833067912E-008
  0.19680000000000003          2.4684138111297216E-007
  0.19790000000000002          1.8368066889706824E-007
  0.19900000000000001         -1.5853563795076298E-008
  0.20010000000000000         -9.8524132852162438E-008
  0.20120000000000005          6.5210777222546312E-008
  0.20230000000000004          3.3647492614363728E-007
  0.20340000000000003          4.4294466761130025E-007
  0.20450000000000002          2.6124141072614293E-007
  0.20560000000000000         -4.5273186088934381E-008
  0.20670000000000005         -1.8337667029300064E-007
  0.20780000000000004         -2.7428351145886154E-008
  0.20890000000000003          2.4875035364857467E-007
