 -0.12000000000000000          0.0000000000000000
 -0.11889999999999999          0.0000000000000000
 -0.11780000000000000          0.0000000000000000
 -0.11670000000000000          0.0000000000000000
 -0.11559999999999999          0.0000000000000000
 -0.11449999999999999          0.0000000000000000
 -0.11340000000000000          0.0000000000000000
 -0.11230000000000000          0.0000000000000000
 -0.11119999999999999          0.0000000000000000
 -0.11009999999999999          0.0000000000000000
 -0.10900000000000000         -1.6450073656918485E-032
 -0.10790000000000000          2.6497584584201919E-031
 -0.10679999999999999         -1.0611734062726148E-029
 -0.10569999999999999         -6.5594706308088007E-030
 -0.10460000000000000          1.2449131715908887E-028
 -0.10349999999999999         -7.7528685467647335E-028
 -0.10239999999999999         -4.9392634317208266E-027
 -0.10130000000000000          4.5138251218196973E-027
 -0.10020000000000000          7.1724496912737911E-026
  -9.9099999999999994E-002     6.0479290871788210E-026
  -9.7999999999999990E-002    -6.3407027327189883E-025
  -9.6899999999999986E-002    -1.6747653096348231E-024
  -9.5799999999999996E-002     2.2624491318693358E-024
  -9.4699999999999993E-002     1.7188405066882862E-023
  -9.3599999999999989E-002     1.7107213924795705E-023
  -9.2499999999999999E-002    -7.9747728578994262E-023
  -9.1399999999999995E-002    -2.6218429584631746E-022
  -9.0299999999999991E-002    -5.9745813228317210E-023
  -8.9200000000000002E-002     1.3028211777777393E-021
  -8.8099999999999984E-002     2.8889573699098592E-021
  -8.6999999999999994E-002    -6.1814554882782449E-022
  -8.5899999999999990E-002    -1.4601737908432698E-020
  -8.4799999999999986E-002    -2.6018326395350464E-020
  -8.3699999999999997E-002     1.0790762537829612E-020
  -8.2599999999999993E-002     1.2684500623361851E-019
  -8.1499999999999989E-002     2.0461650157646003E-019
  -8.0399999999999999E-002    -8.1654494395667105E-020
  -7.9299999999999995E-002    -9.0188256988965562E-019
  -7.8199999999999992E-002    -1.4430465638959618E-018
  -7.7100000000000002E-002     3.1865832874080034E-019
  -7.5999999999999984E-002     5.3759601247260466E-018
  -7.4899999999999994E-002     9.1406683691498515E-018
  -7.3799999999999991E-002     4.1284486144823871E-019
  -7.2699999999999987E-002    -2.7005926641890481E-017
  -7.1599999999999997E-002    -5.1533517598176135E-017
  -7.0499999999999993E-002    -1.7536963522508134E-017
  -6.9399999999999989E-002     1.1295176410702215E-016
  -6.8300000000000000E-002     2.5572033203703694E-016
  -6.7199999999999996E-002     1.6310025710498439E-016
  -6.6099999999999992E-002    -3.7730277954142917E-016
  -6.5000000000000002E-002    -1.1040718713621958E-015
  -6.3899999999999985E-002    -1.0360097035558790E-015
  -6.2799999999999995E-002     8.7767536997284952E-016
  -6.1699999999999991E-002     4.0863330006259222E-015
  -6.0599999999999994E-002     5.1726921425116097E-015
  -5.9499999999999990E-002    -4.1370274990026185E-016
  -5.8399999999999994E-002    -1.2630747786384049E-014
  -5.7299999999999990E-002    -2.1233340606607864E-014
  -5.6199999999999986E-002    -9.0334894919203920E-015
  -5.5099999999999996E-002     3.0693546662630133E-014
  -5.3999999999999992E-002     7.2612854856539399E-014
  -5.2899999999999989E-002     6.0343399656444252E-014
  -5.1799999999999985E-002    -4.7577921962436986E-014
  -5.0699999999999995E-002    -2.0520042642076936E-013
  -4.9599999999999991E-002    -2.5355599239142157E-013
  -4.8499999999999988E-002    -2.1835857164846477E-014
  -4.7399999999999998E-002     4.6047042047414610E-013
  -4.6299999999999994E-002     8.1723988470602804E-013
  -4.5199999999999990E-002     4.9211524612291502E-013
  -4.4099999999999986E-002    -7.1457558837098589E-013
  -4.2999999999999997E-002    -2.1000837787527038E-012
  -4.1899999999999993E-002    -2.1699998568880385E-012
  -4.0799999999999989E-002     2.1091747868639404E-013
  -3.9699999999999985E-002     4.2085137458292010E-012
  -3.8599999999999995E-002     6.5091634339486948E-012
  -3.7499999999999992E-002     3.2998590838995145E-012
  -3.6399999999999988E-002    -5.7891556132227961E-012
  -3.5299999999999984E-002    -1.4915584392594106E-011
  -3.4199999999999994E-002    -1.4309818954783005E-011
  -3.3099999999999991E-002     1.6695861273369195E-012
  -3.1999999999999987E-002     2.5921936472328433E-011
  -3.0899999999999997E-002     3.8403002999842784E-011
  -2.9799999999999993E-002     1.9482498947454019E-011
  -2.8699999999999989E-002    -2.9545206559067339E-011
  -2.7599999999999986E-002    -7.6288697581361475E-011
  -2.6499999999999996E-002    -7.3458600313713873E-011
  -2.5399999999999992E-002     1.5092590805593220E-012
  -2.4299999999999988E-002     1.1182878234539118E-010
  -2.3199999999999985E-002     1.6890382148471161E-010
  -2.2099999999999995E-002     9.4307436859786264E-011
  -2.0999999999999991E-002    -1.0017690843522331E-010
  -1.9899999999999987E-002    -2.8473545743423756E-010
  -1.8799999999999983E-002    -2.8506788596338595E-010
  -1.7699999999999994E-002    -2.8207429447757448E-011
  -1.6599999999999990E-002     3.4989403041585376E-010
  -1.5499999999999986E-002     5.5175830571130291E-010
  -1.4399999999999996E-002     3.3381833408618888E-010
  -1.3299999999999992E-002    -2.5129165415194166E-010
  -1.2199999999999989E-002    -8.0192524842814805E-010
  -1.1099999999999985E-002    -8.1733136925166150E-010
  -9.9999999999999950E-003    -1.1946511835336793E-010
  -8.8999999999999913E-003     8.8568979927927671E-010
  -7.7999999999999875E-003     1.3964475131800214E-009
  -6.6999999999999837E-003     8.1858159139969189E-010
  -5.5999999999999939E-003    -6.4118510501032233E-010
  -4.4999999999999901E-003    -1.9313912691387713E-009
  -3.3999999999999864E-003    -1.8580551541802492E-009
  -2.2999999999999826E-003    -1.1054150650391392E-010
  -1.1999999999999927E-003     2.2187758297320670E-009
  -9.9999999999988987E-005     3.2219888979057032E-009
   1.0000000000000148E-003     1.6437280425662948E-009
   2.1000000000000185E-003    -1.8374483046201817E-009
   3.2000000000000084E-003    -4.6910941797762007E-009
   4.3000000000000121E-003    -4.2566430380475140E-009
   5.4000000000000159E-003    -1.7006982627743028E-011
   6.5000000000000058E-003     5.4090132373119104E-009
   7.6000000000000234E-003     7.7212671811821565E-009
   8.7000000000000133E-003     4.1778411841164598E-009
   9.8000000000000032E-003    -3.7195613256102433E-009
   1.0900000000000021E-002    -1.0492182234145275E-008
   1.2000000000000011E-002    -1.0338103706430957E-008
   1.3100000000000001E-002    -1.8561346903922527E-009
   1.4200000000000018E-002     9.8651726787579719E-009
   1.5300000000000008E-002     1.6073517628001355E-008
   1.6400000000000026E-002     1.0757670310113099E-008
   1.7500000000000016E-002    -3.9348280189699381E-009
   1.8600000000000005E-002    -1.7913816208192657E-008
   1.9700000000000023E-002    -1.9893379388236099E-008
   2.0800000000000013E-002    -6.3553935447657750E-009
   2.1900000000000003E-002     1.4220874255954641E-008
   2.3000000000000020E-002     2.6206890879620914E-008
   2.4100000000000010E-002     1.8412197988482149E-008
   2.5200000000000000E-002    -5.9199458668501848E-009
   2.6300000000000018E-002    -2.9254479727569560E-008
   2.7400000000000008E-002    -3.1772778186223150E-008
   2.8500000000000025E-002    -7.4677677375234452E-009
   2.9600000000000015E-002     2.8273170471493358E-008
   3.0700000000000005E-002     4.7464975949651489E-008
   3.1800000000000023E-002     3.0446685173046717E-008
   3.2900000000000013E-002    -1.6153167692323223E-008
   3.4000000000000002E-002    -5.9817359954195126E-008
   3.5100000000000020E-002    -6.3971668851081631E-008
   3.6200000000000010E-002    -1.7212949288136770E-008
   3.7300000000000028E-002     5.2695707353223042E-008
   3.8400000000000017E-002     9.4210612644474168E-008
   3.9500000000000007E-002     6.9379623823806469E-008
   4.0600000000000025E-002    -1.3364801709769836E-008
   4.1700000000000015E-002    -9.8279301141701580E-008
   4.2800000000000005E-002    -1.1919133413584859E-007
   4.3900000000000022E-002    -5.0537181550680543E-008
   4.5000000000000012E-002     6.6211619298428559E-008
   4.6100000000000002E-002     1.4564817263362784E-007
   4.7200000000000020E-002     1.1995352622307109E-007
   4.8300000000000010E-002    -4.6944030884787935E-009
   4.9400000000000027E-002    -1.4258712610626390E-007
   5.0500000000000017E-002    -1.8546984392742161E-007
   5.1600000000000007E-002    -8.5440866826047568E-008
   5.2700000000000025E-002     9.8579846508073388E-008
   5.3800000000000014E-002     2.3273979365967534E-007
   5.4900000000000004E-002     2.0386858068377478E-007
   5.6000000000000022E-002     1.1649767373000941E-008
   5.7100000000000012E-002    -2.1603747768494941E-007
   5.8200000000000002E-002    -3.0687763796777290E-007
   5.9300000000000019E-002    -1.7380449435222545E-007
   6.0400000000000009E-002     1.0576592046618316E-007
   6.1500000000000027E-002     3.3018710610122071E-007
   6.2600000000000017E-002     3.1698999691798235E-007
   6.3700000000000007E-002     4.9656652123530876E-008
   6.4800000000000024E-002    -2.8759700398950372E-007
   6.5900000000000014E-002    -4.2918131271107995E-007
   6.7000000000000004E-002    -2.2810533550909895E-007
   6.8100000000000022E-002     2.0975411985091341E-007
   6.9200000000000012E-002     5.7100129424725310E-007
   7.0300000000000029E-002     5.4840171515024849E-007
   7.1400000000000019E-002     7.9831082189230074E-008
   7.2500000000000009E-002    -5.6751332522253506E-007
   7.3600000000000027E-002    -9.5044515546760522E-007
   7.4700000000000016E-002    -7.5231940854791901E-007
   7.5800000000000006E-002    -2.4941725129679071E-008
   7.6900000000000024E-002     8.1401032048233901E-007
   7.8000000000000014E-002     1.2449053201635252E-006
   7.9100000000000004E-002     9.9551778021123027E-007
   8.0200000000000021E-002     2.2627095574989653E-007
   8.1300000000000011E-002    -5.8804943137147347E-007
   8.2400000000000029E-002    -9.9775729722750839E-007
   8.3500000000000019E-002    -8.8682804744166788E-007
   8.4600000000000009E-002    -5.1540826007112628E-007
   8.5700000000000026E-002    -2.6269762543051911E-007
   8.6800000000000016E-002    -2.7551007519832638E-007
   8.7900000000000006E-002    -3.1652965049033810E-007
   8.9000000000000024E-002     3.7696842980494694E-008
   9.0100000000000013E-002     9.7912732144322945E-007
   9.1200000000000003E-002     2.1636171823047334E-006
   9.2300000000000021E-002     2.8054992071702145E-006
   9.3400000000000011E-002     2.1728033061663155E-006
   9.4500000000000028E-002     1.6244879930127354E-007
   9.5600000000000018E-002    -2.4745479549892480E-006
   9.6700000000000008E-002    -4.4770313252229244E-006
   9.7800000000000026E-002    -4.8062811401905492E-006
   9.8900000000000016E-002    -3.2864950298971962E-006
  0.10000000000000001         -7.0680306407666649E-007
  0.10110000000000002          1.6960474340521614E-006
  0.10220000000000001          3.0146006793074775E-006
  0.10330000000000003          3.1600879992765840E-006
  0.10440000000000002          2.7353323730494594E-006
  0.10550000000000001          2.4330413452844368E-006
  0.10660000000000003          2.4677667624928290E-006
  0.10770000000000002          2.5176229883072665E-006
  0.10880000000000001          2.2266360701905796E-006
  0.10990000000000003          1.8234817389384261E-006
  0.11100000000000002          2.2531185095431283E-006
  0.11210000000000001          4.5644460442417767E-006
  0.11320000000000002          8.9208433564635925E-006
  0.11430000000000001          1.4017437933944166E-005
  0.11540000000000003          1.7523529095342383E-005
  0.11650000000000002          1.7467536963522434E-005
  0.11760000000000001          1.3723593838221859E-005
  0.11870000000000003          8.5350111476145685E-006
  0.11980000000000002          5.5607947615499143E-006
  0.12090000000000001          7.9334622569149360E-006
  0.12200000000000003          1.6560881704208441E-005
  0.12310000000000001          2.9815864763804711E-005
  0.12420000000000003          4.4829768739873543E-005
  0.12530000000000002          5.9472266002558172E-005
  0.12640000000000001          7.3593262641225010E-005
  0.12750000000000003          8.8635948486626148E-005
  0.12860000000000002          1.0596260835882276E-004
  0.12970000000000001          1.2527976650744677E-004
  0.13080000000000003          1.4457039651460946E-004
  0.13190000000000002          1.6185412823688239E-004
  0.13300000000000001          1.7765488883014768E-004
  0.13410000000000000          1.9628582231234759E-004
  0.13520000000000004          2.2467931557912380E-004
  0.13630000000000003          2.6911799795925617E-004
  0.13740000000000002          3.3175738644786179E-004
  0.13850000000000001          4.0920387255027890E-004
  0.13960000000000000          4.9420399591326714E-004
  0.14070000000000005          5.7957111857831478E-004
  0.14180000000000004          6.6196935949847102E-004
  0.14290000000000003          7.4336549732834101E-004
  0.14400000000000002          8.2943873712792993E-004
  0.14510000000000001          9.2629913706332445E-004
  0.14620000000000000          1.0376852005720139E-003
  0.14730000000000004          1.1644659098237753E-003
  0.14840000000000003          1.3061598874628544E-003
  0.14950000000000002          1.4628944918513298E-003
  0.15060000000000001          1.6359091969206929E-003
  0.15170000000000000          1.8260002834722400E-003
  0.15280000000000005          2.0311190746724606E-003
  0.15390000000000004          2.2450969554483891E-003
  0.15500000000000003          2.4590527173131704E-003
  0.15610000000000002          2.6649748906493187E-003
  0.15720000000000001          2.8591942973434925E-003
  0.15830000000000000          3.0436152592301369E-003
  0.15940000000000004          3.2234077807515860E-003
  0.16050000000000003          3.4024585038423538E-003
  0.16160000000000002          3.5794302821159363E-003
  0.16270000000000001          3.7463156040757895E-003
  0.16380000000000000          3.8910075090825558E-003
  0.16490000000000005          4.0009659714996815E-003
  0.16600000000000004          4.0663918480277061E-003
  0.16710000000000003          4.0808026678860188E-003
  0.16820000000000002          4.0393415838479996E-003
  0.16930000000000001          3.9355135522782803E-003
  0.17040000000000000          3.7606027908623219E-003
  0.17150000000000004          3.5045116674154997E-003
  0.17260000000000003          3.1580748036503792E-003
  0.17370000000000002          2.7146844659000635E-003
  0.17480000000000001          2.1705627441406250E-003
  0.17590000000000000          1.5245906542986631E-003
  0.17700000000000005          7.7662494732066989E-004
  0.17810000000000004         -7.3865558078978211E-005
  0.17920000000000003         -1.0275718523189425E-003
  0.18030000000000002         -2.0846223924309015E-003
  0.18140000000000001         -3.2451117876917124E-003
  0.18250000000000000         -4.5081349089741707E-003
  0.18360000000000004         -5.8699320070445538E-003
  0.18470000000000003         -7.3227295652031898E-003
  0.18580000000000002         -8.8524948805570602E-003
  0.18690000000000001         -1.0438073426485062E-002
  0.18800000000000000         -1.2051192112267017E-002
  0.18910000000000005         -1.3658601790666580E-002
  0.19020000000000004         -1.5227555297315121E-002
  0.19130000000000003         -1.6729352995753288E-002
  0.19240000000000002         -1.8141111359000206E-002
  0.19350000000000001         -1.9444214180111885E-002
  0.19460000000000005         -2.0618660375475883E-002
  0.19570000000000004         -2.1639414131641388E-002
  0.19680000000000003         -2.2472921758890152E-002
  0.19790000000000002         -2.3080097511410713E-002
  0.19900000000000001         -2.3422284051775932E-002
  0.20010000000000000         -2.3465920239686966E-002
  0.20120000000000005         -2.3184610530734062E-002
  0.20230000000000004         -2.2558258846402168E-002
  0.20340000000000003         -2.1573117002844810E-002
  0.20450000000000002         -2.0222360268235207E-002
  0.20560000000000000         -1.8507814034819603E-002
  0.20670000000000005         -1.6440296545624733E-002
  0.20780000000000004         -1.4037841930985451E-002
  0.20890000000000003         -1.1322207748889923E-002
