 -0.12000000000000000          0.0000000000000000
 -0.11889999999999999          0.0000000000000000
 -0.11780000000000000          0.0000000000000000
 -0.11670000000000000          0.0000000000000000
 -0.11559999999999999          0.0000000000000000
 -0.11449999999999999          0.0000000000000000
 -0.11340000000000000          0.0000000000000000
 -0.11230000000000000          0.0000000000000000
 -0.11119999999999999          0.0000000000000000
 -0.11009999999999999          0.0000000000000000
 -0.10900000000000000          0.0000000000000000
 -0.10790000000000000          1.8549333182070344E-032
 -0.10679999999999999          1.8685118097692303E-026
 -0.10569999999999999          1.8836977827881632E-025
 -0.10460000000000000          6.0606413341474247E-025
 -0.10349999999999999         -1.0608311547029498E-024
 -0.10239999999999999         -1.5857188089826111E-023
 -0.10130000000000000         -5.7161353441519373E-023
 -0.10020000000000000         -6.2280688374056476E-023
  -9.9099999999999994E-002     2.8642262144997205E-022
  -9.7999999999999990E-002     1.5094895073259857E-021
  -9.6899999999999986E-002     3.0490610451366604E-021
  -9.5799999999999996E-002     1.8166344571488316E-022
  -9.4699999999999993E-002    -1.7106038522046926E-020
  -9.3599999999999989E-002    -5.1693867206154393E-020
  -9.2499999999999999E-002    -6.3593089731102709E-020
  -9.1399999999999995E-002     6.2282829178470177E-020
  -9.0299999999999991E-002     4.4590023949677652E-019
  -8.9200000000000002E-002     9.2347674016581182E-019
  -8.8099999999999984E-002     6.4735113379369318E-019
  -8.6999999999999994E-002    -1.7933275680149640E-018
  -8.5899999999999990E-002    -6.7462141743318826E-018
  -8.4799999999999986E-002    -1.0327617127062405E-017
  -8.3699999999999997E-002    -2.6850994058798074E-018
  -8.2599999999999993E-002     2.6106519926971773E-017
  -8.1499999999999989E-002     6.8531788018565235E-017
  -8.0399999999999999E-002     7.9890499841245402E-017
  -7.9299999999999995E-002    -1.4203824354974683E-017
  -7.8199999999999992E-002    -2.4993586463089852E-016
  -7.7100000000000002E-002    -5.0817196393061954E-016
  -7.5999999999999984E-002    -4.5236498644253315E-016
  -7.4899999999999994E-002     3.0692389721503302E-016
  -7.3799999999999991E-002     1.7438497265878801E-015
  -7.2699999999999987E-002     2.8975135770668023E-015
  -7.1599999999999997E-002     1.9399733233819169E-015
  -7.0499999999999993E-002    -2.5501241895741324E-015
  -6.9399999999999989E-002    -9.3566816892088484E-015
  -6.8300000000000000E-002    -1.3173643389531326E-014
  -6.7199999999999996E-002    -6.5072573489312249E-015
  -6.6099999999999992E-002     1.3987561583712720E-014
  -6.5000000000000002E-002     3.9853540525222955E-014
  -6.3899999999999985E-002     4.9264777912498559E-014
  -6.2799999999999995E-002     1.8406241090204549E-014
  -6.1699999999999991E-002    -5.5947905135784667E-014
  -6.0599999999999994E-002    -1.3754976161978877E-013
  -5.9499999999999990E-002    -1.5699073985242507E-013
  -5.8399999999999994E-002    -5.3539570238174405E-014
  -5.7299999999999990E-002     1.6532427011585471E-013
  -5.6199999999999986E-002     3.9074312904209541E-013
  -5.5099999999999996E-002     4.4754597163659815E-013
  -5.3999999999999992E-002     1.9862014593793886E-013
  -5.2899999999999989E-002    -3.3645520180689004E-013
  -5.1799999999999985E-002    -9.3006277592649900E-013
  -5.0699999999999995E-002    -1.2131549020563681E-012
  -4.9599999999999991E-002    -8.4305354581051817E-013
  -4.8499999999999988E-002     2.9409254979212429E-013
  -4.7399999999999998E-002     1.9160120538763703E-012
  -4.6299999999999994E-002     3.2745199780859213E-012
  -4.5199999999999990E-002     3.2818235976006527E-012
  -4.4099999999999986E-002     9.7595586126542067E-013
  -4.2999999999999997E-002    -3.6411537847336195E-012
  -4.1899999999999993E-002    -8.7517788155411225E-012
  -4.0799999999999989E-002    -1.0706405380311868E-011
  -3.9699999999999985E-002    -5.7081049956164698E-012
  -3.8599999999999995E-002     6.9454698069237875E-012
  -3.7499999999999992E-002     2.1990123263981864E-011
  -3.6399999999999988E-002     2.8779126651223841E-011
  -3.5299999999999984E-002     1.7161072909943620E-011
  -3.4199999999999994E-002    -1.3514852431617541E-011
  -3.3099999999999991E-002    -4.8765404908612808E-011
  -3.1999999999999987E-002    -6.3622933310636398E-011
  -3.0899999999999997E-002    -3.8408783098464738E-011
  -2.9799999999999993E-002     2.3322416914384192E-011
  -2.8699999999999989E-002     8.9319419915856457E-011
  -2.7599999999999986E-002     1.1467055777147905E-010
  -2.6499999999999996E-002     7.2412062457338777E-011
  -2.5399999999999992E-002    -2.2962373322221730E-011
  -2.4299999999999988E-002    -1.1992337678456977E-010
  -2.3199999999999985E-002    -1.6294392224391885E-010
  -2.2099999999999995E-002    -1.2968150164827108E-010
  -2.0999999999999991E-002    -4.1106569537152637E-011
  -1.9899999999999987E-002     6.3834583452493376E-011
  -1.8799999999999983E-002     1.6192161500505620E-010
  -1.7699999999999994E-002     2.4789115204981726E-010
  -1.6599999999999990E-002     2.9670596535247284E-010
  -1.5499999999999986E-002     2.3106536128914001E-010
  -1.4399999999999996E-002    -4.0958677421931711E-011
  -1.3299999999999992E-002    -5.0797421824455569E-010
  -1.2199999999999989E-002    -9.4756802404560858E-010
  -1.1099999999999985E-002    -9.7110819385903824E-010
  -9.9999999999999950E-003    -2.8093308235277448E-010
  -8.8999999999999913E-003     9.9376185058730471E-010
  -7.7999999999999875E-003     2.1693373764009038E-009
  -6.6999999999999837E-003     2.3128901016633563E-009
  -5.5999999999999939E-003     8.9776208689329451E-010
  -4.4999999999999901E-003    -1.6234903421619151E-009
  -3.3999999999999864E-003    -3.8417278247493414E-009
  -2.2999999999999826E-003    -4.1721777144232419E-009
  -1.1999999999999927E-003    -1.9654999849905153E-009
  -9.9999999999988987E-005     1.8500556642209176E-009
   1.0000000000000148E-003     5.1719655225213046E-009
   2.1000000000000185E-003     6.0074083485517349E-009
   3.2000000000000084E-003     3.7617069459372487E-009
   4.3000000000000121E-003    -4.1385941895732969E-010
   5.4000000000000159E-003    -4.4538372989677555E-009
   6.5000000000000058E-003    -6.6911800544744438E-009
   7.6000000000000234E-003    -6.5957457273668751E-009
   8.7000000000000133E-003    -4.4711567781519079E-009
   9.8000000000000032E-003    -6.7754141186426864E-010
   1.0900000000000021E-002     4.5613748334005777E-009
   1.2000000000000011E-002     1.0346847822972904E-008
   1.3100000000000001E-002     1.4156196215253658E-008
   1.4200000000000018E-002     1.2289242512508736E-008
   1.5300000000000008E-002     2.3546866678714196E-009
   1.6400000000000026E-002    -1.3570768508941455E-008
   1.7500000000000016E-002    -2.7910058264524196E-008
   1.8600000000000005E-002    -3.0709724541111427E-008
   1.9700000000000023E-002    -1.6008607772732830E-008
   2.0800000000000013E-002     1.2531174320429272E-008
   2.1900000000000003E-002     4.1277882445456271E-008
   2.3000000000000020E-002     5.3144454170706013E-008
   2.4100000000000010E-002     3.7765609306461556E-008
   2.5200000000000000E-002    -9.8751917754213991E-010
   2.6300000000000018E-002    -4.5404764392742436E-008
   2.7400000000000008E-002    -7.2662537320411502E-008
   2.8500000000000025E-002    -6.6974074286463292E-008
   2.9600000000000015E-002    -2.8146702746312258E-008
   3.0700000000000005E-002     2.8060266998863881E-008
   3.1800000000000023E-002     7.7372313000978465E-008
   3.2900000000000013E-002     9.7754757177881402E-008
   3.4000000000000002E-002     7.8260583791234239E-008
   3.5100000000000020E-002     2.2964604440289804E-008
   3.6200000000000010E-002    -5.0178396548972160E-008
   3.7300000000000028E-002    -1.1432850044457155E-007
   3.8400000000000017E-002    -1.4159063255192450E-007
   3.9500000000000007E-002    -1.1289056800478647E-007
   4.0600000000000025E-002    -2.7939622171402334E-008
   4.1700000000000015E-002     8.8860282687619474E-008
   4.2800000000000005E-002     1.9173266707639414E-007
   4.3900000000000022E-002     2.2881553718434589E-007
   4.5000000000000012E-002     1.6616193931895396E-007
   4.6100000000000002E-002     1.0328531807601848E-008
   4.7200000000000020E-002    -1.8374949206645397E-007
   4.8300000000000010E-002    -3.2880237199606199E-007
   4.9400000000000027E-002    -3.4313131891394733E-007
   5.0500000000000017E-002    -1.9477228363484755E-007
   5.1600000000000007E-002     7.1572031856703688E-008
   5.2700000000000025E-002     3.4388691005915462E-007
   5.3800000000000014E-002     4.9035998017643578E-007
   5.4900000000000004E-002     4.2487118889766862E-007
   5.6000000000000022E-002     1.5644009465631825E-007
   5.7100000000000012E-002    -2.0662706390339736E-007
   5.8200000000000002E-002    -5.0399245310472907E-007
   5.9300000000000019E-002    -5.9908688854193315E-007
   6.0400000000000009E-002    -4.4379245878189977E-007
   6.1500000000000027E-002    -9.8887404931247147E-008
   6.2600000000000017E-002     2.9705677206948167E-007
   6.3700000000000007E-002     5.8961745708074886E-007
   6.4800000000000024E-002     6.6834468270826619E-007
   6.5900000000000014E-002     5.0051880862156395E-007
   6.7000000000000004E-002     1.3488005379258539E-007
   6.8100000000000022E-002    -3.1457125260203611E-007
   6.9200000000000012E-002    -6.9547007797154947E-007
   7.0300000000000029E-002    -8.5480513689617510E-007
   7.1400000000000019E-002    -6.9053447759870323E-007
   7.2500000000000009E-002    -2.0804921518902120E-007
   7.3600000000000027E-002     4.4675584831566084E-007
   7.4700000000000016E-002     1.0124418849954964E-006
   7.5800000000000006E-002     1.2084375384802115E-006
   7.6900000000000024E-002     8.7322632680297829E-007
   7.8000000000000014E-002     7.5961366974297562E-008
   7.9100000000000004E-002    -8.7089779299276415E-007
   8.0200000000000021E-002    -1.5281895002772217E-006
   8.1300000000000011E-002    -1.5360151337517891E-006
   8.2400000000000029E-002    -8.1046431432696409E-007
   8.3500000000000019E-002     3.7759693327643618E-007
   8.4600000000000009E-002     1.4994957382441498E-006
   8.5700000000000026E-002     2.0099855646549258E-006
   8.6800000000000016E-002     1.6195081116165966E-006
   8.7900000000000006E-002     4.5678808646698599E-007
   8.9000000000000024E-002    -9.7166469004150713E-007
   9.0100000000000013E-002    -2.0158954612270463E-006
   9.1200000000000003E-002    -2.1962609935144428E-006
   9.2300000000000021E-002    -1.4345586123454268E-006
   9.3400000000000011E-002    -8.1762550507846754E-008
   9.4500000000000028E-002     1.2674440768023487E-006
   9.5600000000000018E-002     2.0661439066316234E-006
   9.6700000000000008E-002     2.0532261260086671E-006
   9.7800000000000026E-002     1.3219628272054251E-006
   9.8900000000000016E-002     2.1194348676090158E-007
  0.10000000000000001         -8.8161527855845634E-007
  0.10110000000000002         -1.6596598015894415E-006
  0.10220000000000001         -1.9660576526803197E-006
  0.10330000000000003         -1.7534430298837833E-006
  0.10440000000000002         -1.0451739171912777E-006
  0.10550000000000001          5.1265285350154954E-008
  0.10660000000000003          1.2953191799169872E-006
  0.10770000000000002          2.3049810806696769E-006
  0.10880000000000001          2.6530085506237810E-006
  0.10990000000000003          2.0612997104763053E-006
  0.11100000000000002          5.9485250858415384E-007
  0.11210000000000001         -1.2737414181174245E-006
  0.11320000000000002         -2.8088743420084938E-006
  0.11430000000000001         -3.3234202874155017E-006
  0.11540000000000003         -2.5207657472492428E-006
  0.11650000000000002         -6.7753251187241403E-007
  0.11760000000000001          1.4423509355765418E-006
  0.11870000000000003          2.9294044452399248E-006
  0.11980000000000002          3.1606034553988138E-006
  0.12090000000000001          2.1030000425525941E-006
  0.12200000000000003          3.1969983638191479E-007
  0.12310000000000001         -1.3385347301664297E-006
  0.12420000000000003         -2.1844932689418783E-006
  0.12530000000000002         -2.0232021142874146E-006
  0.12640000000000001         -1.1803520010289503E-006
  0.12750000000000003         -2.2187406045759417E-007
  0.12860000000000002          4.2685044832069252E-007
  0.12970000000000001          6.9704401539638638E-007
  0.13080000000000003          8.0589001072439714E-007
  0.13190000000000002          9.6797225523914676E-007
  0.13300000000000001          1.1345755410729907E-006
  0.13410000000000000          9.9385567864374025E-007
  0.13520000000000004          2.3634166268493573E-007
  0.13630000000000003         -1.0652894388840650E-006
  0.13740000000000002         -2.3484967641707044E-006
  0.13850000000000001         -2.7795858841273002E-006
  0.13960000000000000         -1.7944333876585006E-006
  0.14070000000000005          4.4126150555712229E-007
  0.14180000000000004          2.9904961138527142E-006
  0.14290000000000003          4.5037158997729421E-006
  0.14400000000000002          3.9528172237623949E-006
  0.14510000000000001          1.2699831586360233E-006
  0.14620000000000000         -2.4518044483556878E-006
  0.14730000000000004         -5.4142697081260849E-006
  0.14840000000000003         -6.0320812735881191E-006
  0.14950000000000002         -3.8049763588787755E-006
  0.15060000000000001          3.3908415275618609E-007
  0.15170000000000000          4.4225616875337437E-006
  0.15280000000000005          6.4245145949826110E-006
  0.15390000000000004          5.3733538152300753E-006
  0.15500000000000003          1.9169558527210029E-006
  0.15610000000000002         -2.0779077658517053E-006
  0.15720000000000001         -4.6138052312016953E-006
  0.15830000000000000         -4.6581121750932653E-006
  0.15940000000000004         -2.6222508040518733E-006
  0.16050000000000003          7.8215414589521970E-008
  0.16160000000000002          1.9689487089635804E-006
  0.16270000000000001          2.3306383809540421E-006
  0.16380000000000000          1.5096026118044392E-006
  0.16490000000000005          4.2566364300000714E-007
  0.16600000000000004         -1.5326604341225902E-007
  0.16710000000000003         -9.2456943434626737E-008
  0.16820000000000002          1.7338503255359683E-007
  0.16930000000000001          9.7317155223208829E-008
  0.17040000000000000         -4.4736503923559212E-007
  0.17150000000000004         -1.1268614343862282E-006
  0.17260000000000003         -1.3062792731943773E-006
  0.17370000000000002         -5.6197546882685856E-007
  0.17480000000000001          9.3428985792343155E-007
  0.17590000000000000          2.3828574740036856E-006
  0.17700000000000005          2.8225365440448513E-006
  0.17810000000000004          1.7074017932827701E-006
  0.17920000000000003         -6.7048239316136460E-007
  0.18030000000000002         -3.1485094496019883E-006
  0.18140000000000001         -4.3493196244526189E-006
  0.18250000000000000         -3.4374090773781063E-006
  0.18360000000000004         -6.7590775643111556E-007
  0.18470000000000003          2.6349100608058507E-006
  0.18580000000000002          4.7969106162781827E-006
  0.18690000000000001          4.7887724576867186E-006
  0.18800000000000000          2.7624055292108096E-006
  0.18910000000000005         -1.8446178273734404E-007
  0.19020000000000004         -2.7144817522639642E-006
  0.19130000000000003         -4.0898071347328369E-006
  0.19240000000000002         -4.2380997911095619E-006
  0.19350000000000001         -3.4062134091072949E-006
  0.19460000000000005         -1.6818573840282625E-006
  0.19570000000000004          9.8017926575266756E-007
  0.19680000000000003          4.2109732021344826E-006
  0.19790000000000002          6.8070012275711633E-006
  0.19900000000000001          6.9778998295078054E-006
  0.20010000000000000          3.5789203138847370E-006
  0.20120000000000005         -2.8917097552039195E-006
  0.20230000000000004         -9.8542377600097097E-006
  0.20340000000000003         -1.3572860552812926E-005
  0.20450000000000002         -1.1178021850355435E-005
  0.20560000000000000         -2.4129228677338688E-006
  0.20670000000000005          9.5070154202403501E-006
  0.20780000000000004          1.9127510313410312E-005
  0.20890000000000003          2.1160207325010560E-005
