 -0.12000000000000000          0.0000000000000000
 -0.11889999999999999          0.0000000000000000
 -0.11780000000000000          0.0000000000000000
 -0.11670000000000000          0.0000000000000000
 -0.11559999999999999          0.0000000000000000
 -0.11449999999999999          0.0000000000000000
 -0.11340000000000000          5.0302798578152231E-016
 -0.11230000000000000         -1.9742542290647065E-015
 -0.11119999999999999         -2.5661852471550753E-014
 -0.11009999999999999         -6.9048601200866894E-014
 -0.10900000000000000          2.5335009562249476E-014
 -0.10790000000000000          5.8220155042460999E-013
 -0.10679999999999999          1.4026403736406054E-012
 -0.10569999999999999          5.2417532120392208E-013
 -0.10460000000000000         -5.1085385921465263E-012
 -0.10349999999999999         -1.3891514674680120E-011
 -0.10239999999999999         -1.1945629381506158E-011
 -0.10130000000000000          2.1669657387921373E-011
 -0.10020000000000000          8.3422053986926221E-011
  -9.9099999999999994E-002     1.0664443633735332E-010
  -9.7999999999999990E-002    -1.9463868017305294E-011
  -9.6899999999999986E-002    -3.2049538023492428E-010
  -9.5799999999999996E-002    -5.6961935168690080E-010
  -9.4699999999999993E-002    -3.1338828754287356E-010
  -9.3599999999999989E-002     7.1621736319464738E-010
  -9.2499999999999999E-002     1.9978487753036900E-009
  -9.1399999999999995E-002     2.1095079016933407E-009
  -9.0299999999999991E-002    -2.5349455867705475E-010
  -8.9200000000000002E-002    -4.4944852284345143E-009
  -8.8099999999999984E-002    -7.2664665395911721E-009
  -8.6999999999999994E-002    -4.3633181512359911E-009
  -8.5899999999999990E-002     5.0229433945496084E-009
  -8.4799999999999986E-002     1.5239018935632035E-008
  -8.3699999999999997E-002     1.6622081489006786E-008
  -8.2599999999999993E-002     3.6972083172799843E-009
  -8.1499999999999989E-002    -1.7269321972435355E-008
  -8.0399999999999999E-002    -3.0131250383652199E-008
  -7.9299999999999995E-002    -2.2010057776363475E-008
  -7.8199999999999992E-002     2.6724729096340899E-009
  -7.7100000000000002E-002     2.2935671140096419E-008
  -7.5999999999999984E-002     2.1117974924337322E-008
  -7.4899999999999994E-002     4.8677577524463038E-009
  -7.3799999999999991E-002     4.5478105725682966E-009
  -7.2699999999999987E-002     3.8547035785516652E-008
  -7.1599999999999997E-002     7.6391685865904744E-008
  -7.0499999999999993E-002     4.7357822552388516E-008
  -6.9399999999999989E-002    -9.0417550779835314E-008
  -6.8300000000000000E-002    -2.7235296329303653E-007
  -6.7199999999999996E-002    -3.3056315373868236E-007
  -6.6099999999999992E-002    -1.1744828753996032E-007
  -6.5000000000000002E-002     3.2732890531395743E-007
  -6.3899999999999985E-002     7.2456845146000827E-007
  -6.2799999999999995E-002     7.1886751129574092E-007
  -6.1699999999999991E-002     1.7451675660157952E-007
  -6.0599999999999994E-002    -6.3885352119524035E-007
  -5.9499999999999990E-002    -1.1767526757466649E-006
  -5.8399999999999994E-002    -1.0209802212559420E-006
  -5.7299999999999990E-002    -2.3832701856494151E-007
  -5.6199999999999986E-002     6.3664123217658968E-007
  -5.5099999999999996E-002     1.0283168876413906E-006
  -5.3999999999999992E-002     8.0486580600374046E-007
  -5.2899999999999989E-002     3.6723673702034686E-007
  -5.1799999999999985E-002     2.1984276088463255E-007
  -5.0699999999999995E-002     4.0521879895969670E-007
  -4.9599999999999991E-002     3.8143434721813908E-007
  -4.8499999999999988E-002    -4.4246266384123086E-007
  -4.7399999999999998E-002    -1.9473795873633495E-006
  -4.6299999999999994E-002    -3.0821552172704690E-006
  -4.5199999999999990E-002    -2.5569638637531458E-006
  -4.4099999999999986E-002     7.6249784233137878E-010
  -4.2999999999999997E-002     3.4194160889447439E-006
  -4.1899999999999993E-002     5.5621007959409080E-006
  -4.0799999999999989E-002     4.8054139369923960E-006
  -3.9699999999999985E-002     1.2955127886025087E-006
  -3.8599999999999995E-002    -3.0405844881885400E-006
  -3.7499999999999992E-002    -5.7721836128614128E-006
  -3.6399999999999988E-002    -5.5491323109894290E-006
  -3.5299999999999984E-002    -2.8198626296228557E-006
  -3.4199999999999994E-002     7.1993360961517550E-007
  -3.3099999999999991E-002     3.3425881156286325E-006
  -3.1999999999999987E-002     4.1911316657212718E-006
  -3.0899999999999997E-002     3.3767880722746766E-006
  -2.9799999999999993E-002     1.5377258932866149E-006
  -2.8699999999999989E-002    -5.7857789670401104E-007
  -2.7599999999999986E-002    -2.2707604330218410E-006
  -2.6499999999999996E-002    -2.9750085559510097E-006
  -2.5399999999999992E-002    -2.4966921046146091E-006
  -2.4299999999999988E-002    -1.2070304364888519E-006
  -2.3199999999999985E-002     1.7338436464493452E-007
  -2.2099999999999995E-002     1.2269274520815452E-006
  -2.0999999999999991E-002     2.3557317945232619E-006
  -1.9899999999999987E-002     4.4944404180557411E-006
  -1.8799999999999983E-002     8.0506924859933448E-006
  -1.7699999999999994E-002     1.2001173672615401E-005
  -1.6599999999999990E-002     1.4180142898114243E-005
  -1.5499999999999986E-002     1.2813737157560626E-005
  -1.4399999999999996E-002     8.1136386143070539E-006
  -1.3299999999999992E-002     2.4979551653822380E-006
  -1.2199999999999989E-002    -8.6865236426229374E-007
  -1.1099999999999985E-002    -2.5116952075894076E-008
  -9.9999999999999950E-003     4.9531736294732155E-006
  -8.8999999999999913E-003     1.2734522897519563E-005
  -7.7999999999999875E-003     2.2081536371847640E-005
  -6.6999999999999837E-003     3.2335727155446358E-005
  -5.5999999999999939E-003     4.2759853386090426E-005
  -4.4999999999999901E-003     5.1918399549323199E-005
  -3.3999999999999864E-003     5.8386456657900547E-005
  -2.2999999999999826E-003     6.2546641856901580E-005
  -1.1999999999999927E-003     6.7637483880397911E-005
  -9.9999999999988987E-005     7.8405399108317296E-005
   1.0000000000000148E-003     9.7834286862065052E-005
   2.1000000000000185E-003     1.2456126569305629E-004
   3.2000000000000084E-003     1.5350799367298300E-004
   4.3000000000000121E-003     1.7968965403270993E-004
   5.4000000000000159E-003     2.0233083341737894E-004
   6.5000000000000058E-003     2.2594265465161227E-004
   7.6000000000000234E-003     2.5745955645109584E-004
   8.7000000000000133E-003     3.0178044107745768E-004
   9.8000000000000032E-003     3.5917025525126139E-004
   1.0900000000000021E-002     4.2615507845770241E-004
   1.2000000000000011E-002     4.9856997793544197E-004
   1.3100000000000001E-002     5.7405722327535024E-004
   1.4200000000000018E-002     6.5247807651763864E-004
   1.5300000000000008E-002     7.3498120764277125E-004
   1.6400000000000026E-002     8.2336470950402447E-004
   1.7500000000000016E-002     9.2033320106574268E-004
   1.8600000000000005E-002     1.0296076070518212E-003
   1.9700000000000023E-002     1.1547346366570412E-003
   2.0800000000000013E-002     1.2967687798665125E-003
   2.1900000000000003E-002     1.4527498278768185E-003
   2.3000000000000020E-002     1.6165762208403636E-003
   2.4100000000000010E-002     1.7819736385719612E-003
   2.5200000000000000E-002     1.9455265719445305E-003
   2.6300000000000018E-002     2.1076372358949853E-003
   2.7400000000000008E-002     2.2712033241989228E-003
   2.8500000000000025E-002     2.4390539620073827E-003
   2.9600000000000015E-002     2.6122492272409206E-003
   3.0700000000000005E-002     2.7892014477404570E-003
   3.1800000000000023E-002     2.9656651895496040E-003
   3.2900000000000013E-002     3.1345745082947524E-003
   3.4000000000000002E-002     3.2865465618672966E-003
   3.5100000000000020E-002     3.4117028117182945E-003
   3.6200000000000010E-002     3.5023677628490540E-003
   3.7300000000000028E-002     3.5553714260462264E-003
   3.8400000000000017E-002     3.5716556012633867E-003
   3.9500000000000007E-002     3.5527285654101209E-003
   4.0600000000000025E-002     3.4960897173735863E-003
   4.1700000000000015E-002     3.3932342194023962E-003
   4.2800000000000005E-002     3.2313254196199852E-003
   4.3900000000000022E-002     2.9978042002770204E-003
   4.5000000000000012E-002     2.6847778353842767E-003
   4.6100000000000002E-002     2.2906428202989063E-003
   4.7200000000000020E-002     1.8178455065937782E-003
   4.8300000000000010E-002     1.2684495886789199E-003
   4.9400000000000027E-002     6.4146763179459727E-004
   5.0500000000000017E-002    -6.6981330746762634E-005
   5.1600000000000007E-002    -8.5958646377553205E-004
   5.2700000000000025E-002    -1.7350601265208156E-003
   5.3800000000000014E-002    -2.6862409431489391E-003
   5.4900000000000004E-002    -3.7033776752653743E-003
   5.6000000000000022E-002    -4.7774948179725848E-003
   5.7100000000000012E-002    -5.9016286395495252E-003
   5.8200000000000002E-002    -7.0692300796514973E-003
   5.9300000000000019E-002    -8.2685351371772440E-003
   6.0400000000000009E-002    -9.4802491366871664E-003
   6.1500000000000027E-002    -1.0679163038731574E-002
   6.2600000000000017E-002    -1.1840065941215621E-002
   6.3700000000000007E-002    -1.2941194698215695E-002
   6.4800000000000024E-002    -1.3963981531561687E-002
   6.5900000000000014E-002    -1.4890536665917805E-002
   6.7000000000000004E-002    -1.5700833871962087E-002
   6.8100000000000022E-002    -1.6373787075282659E-002
   6.9200000000000012E-002    -1.6891788691283841E-002
   7.0300000000000029E-002    -1.7240513116122898E-002
   7.1400000000000019E-002    -1.7404858022929865E-002
   7.2500000000000009E-002    -1.7361944541336737E-002
   7.3600000000000027E-002    -1.7083549872042365E-002
   7.4700000000000016E-002    -1.6545424237848903E-002
   7.5800000000000006E-002    -1.5740068629385554E-002
   7.6900000000000024E-002    -1.4679732732476228E-002
   7.8000000000000014E-002    -1.3387393206359271E-002
   7.9100000000000004E-002    -1.1881436221302742E-002
   8.0200000000000021E-002    -1.0169190354646288E-002
   8.1300000000000011E-002    -8.2536153495320359E-003
   8.2400000000000029E-002    -6.1479085125035757E-003
   8.3500000000000019E-002    -3.8815606385473982E-003
   8.4600000000000009E-002    -1.4921656111257595E-003
   8.5700000000000026E-002     9.8862836603075244E-004
   8.6800000000000016E-002     3.5388595424594850E-003
   8.7900000000000006E-002     6.1329272575681194E-003
   8.9000000000000024E-002     8.7253097444779902E-003
   9.0100000000000013E-002     1.1248218826950554E-002
   9.1200000000000003E-002     1.3630003668369049E-002
   9.2300000000000021E-002     1.5821872279049368E-002
   9.3400000000000011E-002     1.7806157469751050E-002
   9.4500000000000028E-002     1.9577264785768381E-002
   9.5600000000000018E-002     2.1114215254785570E-002
   9.6700000000000008E-002     2.2371601313354656E-002
   9.7800000000000026E-002     2.3297280073168065E-002
   9.8900000000000016E-002     2.3860853165390349E-002
  0.10000000000000001          2.4063218384983428E-002
  0.10110000000000002          2.3917810991408713E-002
  0.10220000000000001          2.3422995582225180E-002
  0.10330000000000003          2.2555867210032731E-002
  0.10440000000000002          2.1300662308933425E-002
  0.10550000000000001          1.9678451120855363E-002
  0.10660000000000003          1.7751038074495181E-002
  0.10770000000000002          1.5586586669088989E-002
  0.10880000000000001          1.3225887902082376E-002
  0.10990000000000003          1.0675418190659224E-002
  0.11100000000000002          7.9416437074550841E-003
  0.11210000000000001          5.0705233588820868E-003
  0.11320000000000002          2.1500757429752152E-003
  0.11430000000000001         -7.2786450618871903E-004
  0.11540000000000003         -3.5111412871631107E-003
  0.11650000000000002         -6.1888121999804932E-003
  0.11760000000000001         -8.7507218122489516E-003
  0.11870000000000003         -1.1140534654260638E-002
  0.11980000000000002         -1.3262769207359529E-002
  0.12090000000000001         -1.5029313042761250E-002
  0.12200000000000003         -1.6408113762737826E-002
  0.12310000000000001         -1.7420629039408400E-002
  0.12420000000000003         -1.8088959157468595E-002
  0.12530000000000002         -1.8386976793410149E-002
  0.12640000000000001         -1.8247870728375297E-002
  0.12750000000000003         -1.7620475962759806E-002
  0.12860000000000002         -1.6523001715542555E-002
  0.12970000000000001         -1.5032087452711227E-002
  0.13080000000000003         -1.3217815198005646E-002
  0.13190000000000002         -1.1089422740043424E-002
  0.13300000000000001         -8.6101982742557981E-003
  0.13410000000000000         -5.7641342282302756E-003
  0.13520000000000004         -2.6106189470742943E-003
  0.13630000000000003          7.2720984462631164E-004
  0.13740000000000002          4.1379332542420882E-003
  0.13850000000000001          7.5786178931598605E-003
  0.13960000000000000          1.1056841351092660E-002
  0.14070000000000005          1.4558302238584687E-002
  0.14180000000000004          1.7992321401835935E-002
  0.14290000000000003          2.1214118227364395E-002
  0.14400000000000002          2.4107078090312161E-002
  0.14510000000000001          2.6643449440600826E-002
  0.14620000000000000          2.8855051845314693E-002
  0.14730000000000004          3.0747817829254061E-002
  0.14840000000000003          3.2245002686980322E-002
  0.14950000000000002          3.3217053860429009E-002
  0.15060000000000001          3.3571813255551620E-002
  0.15170000000000000          3.3313348889354055E-002
  0.15280000000000005          3.2510455697778023E-002
  0.15390000000000004          3.1208936125043097E-002
  0.15500000000000003          2.9377976432445569E-002
  0.15610000000000002          2.6950575411322449E-002
  0.15720000000000001          2.3910269141199689E-002
  0.15830000000000000          2.0339898765089327E-002
  0.15940000000000004          1.6377052292229608E-002
  0.16050000000000003          1.2120165862144518E-002
  0.16160000000000002          7.5843450613330499E-003
  0.16270000000000001          2.7454858645803038E-003
  0.16380000000000000         -2.3630205541847406E-003
  0.16490000000000005         -7.6124412007632864E-003
  0.16600000000000004         -1.2831971980632139E-002
  0.16710000000000003         -1.7900316044689508E-002
  0.16820000000000002         -2.2781781852247097E-002
  0.16930000000000001         -2.7473462745549515E-002
  0.17040000000000000         -3.1924128532412312E-002
  0.17150000000000004         -3.6000080406668848E-002
  0.17260000000000003         -3.9551652967933254E-002
  0.17370000000000002         -4.2498379945758752E-002
  0.17480000000000001         -4.4853899627927990E-002
  0.17590000000000000         -4.6658605337147184E-002
  0.17700000000000005         -4.7899350523953062E-002
  0.17810000000000004         -4.8493992537264538E-002
  0.17920000000000003         -4.8363715410237068E-002
  0.18030000000000002         -4.7508224844937066E-002
  0.18140000000000001         -4.6018932014708178E-002
  0.18250000000000000         -4.3997187167410363E-002
  0.18360000000000004         -4.1481461375955833E-002
  0.18470000000000003         -3.8447216153148646E-002
  0.18580000000000002         -3.4881938248876275E-002
  0.18690000000000001         -3.0856188386681881E-002
  0.18800000000000000         -2.6513393968346552E-002
  0.18910000000000005         -2.1992241963746571E-002
  0.19020000000000004         -1.7361717298628870E-002
  0.19130000000000003         -1.2632232159377669E-002
  0.19240000000000002         -7.8298598527919167E-003
  0.19350000000000001         -3.0517645645893165E-003
  0.19460000000000005          1.5607925597576095E-003
  0.19570000000000004          5.9007513336839399E-003
  0.19680000000000003          9.9442983046180346E-003
  0.19790000000000002          1.3715160079301420E-002
  0.19900000000000001          1.7208186909557749E-002
  0.20010000000000000          2.0351761952044245E-002
  0.20120000000000005          2.3045931011440302E-002
  0.20230000000000004          2.5238307192923817E-002
  0.20340000000000003          2.6953194290401938E-002
  0.20450000000000002          2.8248636052014997E-002
  0.20560000000000000          2.9145764186981005E-002
  0.20670000000000005          2.9615346342327934E-002
  0.20780000000000004          2.9628699645402795E-002
  0.20890000000000003          2.9217964038255578E-002
