 -0.12000000000000000          0.0000000000000000
 -0.11889999999999999          0.0000000000000000
 -0.11780000000000000          0.0000000000000000
 -0.11670000000000000         -9.3619786944477978E-014
 -0.11559999999999999          6.1005714369066766E-013
 -0.11449999999999999          5.4650888849094859E-012
 -0.11340000000000000          1.4692138131100485E-011
 -0.11230000000000000          1.2629456508372883E-011
 -0.11119999999999999         -2.7022844031887594E-011
 -0.11009999999999999         -9.4607918721401063E-011
 -0.10900000000000000         -9.8916347335276100E-011
 -0.10790000000000000          7.3936745614844313E-011
 -0.10679999999999999          3.7352559933978569E-010
 -0.10569999999999999          4.6252607299734905E-010
 -0.10460000000000000         -5.9006431685215688E-011
 -0.10349999999999999         -1.1038668867868751E-009
 -0.10239999999999999         -1.7698917886832533E-009
 -0.10130000000000000         -8.8453278035416361E-010
 -0.10020000000000000          1.6905675748191129E-009
  -9.9099999999999994E-002     4.2046375270388126E-009
  -9.7999999999999990E-002     3.9542120688906834E-009
  -9.6899999999999986E-002    -1.6942355851590207E-010
  -9.5799999999999996E-002    -5.7461138069925255E-009
  -9.4699999999999993E-002    -7.9893789362017742E-009
  -9.3599999999999989E-002    -3.9058769552013928E-009
  -9.2499999999999999E-002     4.0869116979536102E-009
  -9.1399999999999995E-002     9.1979597272029423E-009
  -9.0299999999999991E-002     6.1796590067331181E-009
  -8.9200000000000002E-002    -2.9312403615477933E-009
  -8.8099999999999984E-002    -9.4290344421210648E-009
  -8.6999999999999994E-002    -5.7199036618271748E-009
  -8.5899999999999990E-002     6.4402034816168907E-009
  -8.4799999999999986E-002     1.5868950598019183E-008
  -8.3699999999999997E-002     1.1693034984716633E-008
  -8.2599999999999993E-002    -5.5125144449164054E-009
  -8.1499999999999989E-002    -2.2478062078334915E-008
  -8.0399999999999999E-002    -2.4578756807613900E-008
  -7.9299999999999995E-002    -9.7235428597741702E-009
  -7.8199999999999992E-002     9.1292449155844224E-009
  -7.7100000000000002E-002     1.6433933325288308E-008
  -7.5999999999999984E-002     9.7377697017009268E-009
  -7.4899999999999994E-002     2.2137038868663694E-009
  -7.3799999999999991E-002     8.0745596875431147E-009
  -7.2699999999999987E-002     2.4997794056957900E-008
  -7.1599999999999997E-002     3.2683821871160035E-008
  -7.0499999999999993E-002     1.1631647645060639E-008
  -6.9399999999999989E-002    -3.5041580304095987E-008
  -6.8300000000000000E-002    -7.9360361837643723E-008
  -6.7199999999999996E-002    -9.0615792203152523E-008
  -6.6099999999999992E-002    -6.2069716477708425E-008
  -6.5000000000000002E-002    -1.6355020449054791E-008
  -6.3899999999999985E-002     1.6156635140873732E-008
  -6.2799999999999995E-002     2.4694379874290462E-008
  -6.1699999999999991E-002     2.3775083235477723E-008
  -6.0599999999999994E-002     3.2174963138231760E-008
  -5.9499999999999990E-002     4.8315122569420055E-008
  -5.8399999999999994E-002     4.9359748288679839E-008
  -5.7299999999999990E-002     1.5949186860098052E-008
  -5.6199999999999986E-002    -4.4074536020843880E-008
  -5.5099999999999996E-002    -9.9969184930159827E-008
  -5.3999999999999992E-002    -1.2748974143050873E-007
  -5.2899999999999989E-002    -1.3173831803214853E-007
  -5.1799999999999985E-002    -1.3697308531845920E-007
  -5.0699999999999995E-002    -1.5303861289339693E-007
  -4.9599999999999991E-002    -1.5686967458350409E-007
  -4.8499999999999988E-002    -1.1490131157643191E-007
  -4.7399999999999998E-002    -2.7501290134068768E-008
  -4.6299999999999994E-002     5.3244946229824563E-008
  -4.5199999999999990E-002     5.9811945618548634E-008
  -4.4099999999999986E-002    -2.8680679164949652E-008
  -4.2999999999999997E-002    -1.5975192013684136E-007
  -4.1899999999999993E-002    -2.4843723167577991E-007
  -4.0799999999999989E-002    -2.5116833057836629E-007
  -3.9699999999999985E-002    -2.0107941622882208E-007
  -3.8599999999999995E-002    -1.6829299909204565E-007
  -3.7499999999999992E-002    -1.8454095140896243E-007
  -3.6399999999999988E-002    -2.1032361985362513E-007
  -3.5299999999999984E-002    -1.8057514239444572E-007
  -3.4199999999999994E-002    -8.1388684236571862E-008
  -3.3099999999999991E-002     2.6781803441622287E-008
  -3.1999999999999987E-002     7.1039799820482585E-008
  -3.0899999999999997E-002     5.2494453228746352E-008
  -2.9799999999999993E-002     6.3154018903333053E-008
  -2.8699999999999989E-002     2.0643616949200805E-007
  -2.7599999999999986E-002     4.9771620069805067E-007
  -2.6499999999999996E-002     8.5089459389564581E-007
  -2.5399999999999992E-002     1.1734908866856131E-006
  -2.4299999999999988E-002     1.4765591913601384E-006
  -2.3199999999999985E-002     1.8807336346071679E-006
  -2.2099999999999995E-002     2.5014724087668583E-006
  -2.0999999999999991E-002     3.3264675494137919E-006
  -1.9899999999999987E-002     4.2180608943453990E-006
  -1.8799999999999983E-002     5.0518292482593097E-006
  -1.7699999999999994E-002     5.8572531997924671E-006
  -1.6599999999999990E-002     6.8114181885903236E-006
  -1.5499999999999986E-002     8.0793215602170676E-006
  -1.4399999999999996E-002     9.6558969744364731E-006
  -1.3299999999999992E-002     1.1374753739801235E-005
  -1.2199999999999989E-002     1.3084183592582121E-005
  -1.1099999999999985E-002     1.4814261703577358E-005
  -9.9999999999999950E-003     1.6755726392148063E-005
  -8.8999999999999913E-003     1.9058339603361674E-005
  -7.7999999999999875E-003     2.1649428163073026E-005
  -6.6999999999999837E-003     2.4266941181849688E-005
  -5.5999999999999939E-003     2.6689607693697326E-005
  -4.4999999999999901E-003     2.8937549359397963E-005
  -3.3999999999999864E-003     3.1231022148858756E-005
  -2.2999999999999826E-003     3.3732794690877199E-005
  -1.1999999999999927E-003     3.6325796827441081E-005
  -9.9999999999988987E-005     3.8655372918583453E-005
   1.0000000000000148E-003     4.0403287130175158E-005
   2.1000000000000185E-003     4.1520379454595968E-005
   3.2000000000000084E-003     4.2176310671493411E-005
   4.3000000000000121E-003     4.2467960156500340E-005
   5.4000000000000159E-003     4.2181447497569025E-005
   6.5000000000000058E-003     4.0859402361093089E-005
   7.6000000000000234E-003     3.8117017538752407E-005
   8.7000000000000133E-003     3.3888620237121359E-005
   9.8000000000000032E-003     2.8345761165837757E-005
   1.0900000000000021E-002     2.1559959350270219E-005
   1.2000000000000011E-002     1.3254652913019527E-005
   1.3100000000000001E-002     2.9128561891411664E-006
   1.4200000000000018E-002    -9.8518266895553097E-006
   1.5300000000000008E-002    -2.5030678443727084E-005
   1.6400000000000026E-002    -4.2336578189861029E-005
   1.7500000000000016E-002    -6.1590391851495951E-005
   1.8600000000000005E-002    -8.2982238382101059E-005
   1.9700000000000023E-002    -1.0692708019632846E-004
   2.0800000000000013E-002    -1.3364477490540594E-004
   2.1900000000000003E-002    -1.6288484039250761E-004
   2.3000000000000020E-002    -1.9407818035688251E-004
   2.4100000000000010E-002    -2.2676499793305993E-004
   2.5200000000000000E-002    -2.6085801073350012E-004
   2.6300000000000018E-002    -2.9645804897882044E-004
   2.7400000000000008E-002    -3.3339750370942056E-004
   2.8500000000000025E-002    -3.7097599124535918E-004
   2.9600000000000015E-002    -4.0816862019710243E-004
   3.0700000000000005E-002    -4.4410690315999091E-004
   3.1800000000000023E-002    -4.7834581346251070E-004
   3.2900000000000013E-002    -5.1063863793388009E-004
   3.4000000000000002E-002    -5.4044451098889112E-004
   3.5100000000000020E-002    -5.6667748140171170E-004
   3.6200000000000010E-002    -5.8797083329409361E-004
   3.7300000000000028E-002    -6.0321082128211856E-004
   3.8400000000000017E-002    -6.1181333148851991E-004
   3.9500000000000007E-002    -6.1346904840320349E-004
   4.0600000000000025E-002    -6.0762779321521521E-004
   4.1700000000000015E-002    -5.9326348127797246E-004
   4.2800000000000005E-002    -5.6918041082099080E-004
   4.3900000000000022E-002    -5.3457531612366438E-004
   4.5000000000000012E-002    -4.8930768389254808E-004
   4.6100000000000002E-002    -4.3362067663110793E-004
   4.7200000000000020E-002    -3.6761449882760644E-004
   4.8300000000000010E-002    -2.9103056294843554E-004
   4.9400000000000027E-002    -2.0358146866783500E-004
   5.0500000000000017E-002    -1.0550522711127996E-004
   5.1600000000000007E-002     2.2109611563791987E-006
   5.2700000000000025E-002     1.1815883772214875E-004
   5.3800000000000014E-002     2.4105054035317153E-004
   5.4900000000000004E-002     3.6992743844166398E-004
   5.6000000000000022E-002     5.0383294001221657E-004
   5.7100000000000012E-002     6.4129609381780028E-004
   5.8200000000000002E-002     7.8016868792474270E-004
   5.9300000000000019E-002     9.1799115762114525E-004
   6.0400000000000009E-002     1.0525276884436607E-003
   6.1500000000000027E-002     1.1819530045613647E-003
   6.2600000000000017E-002     1.3045470695942640E-003
   6.3700000000000007E-002     1.4182595768943429E-003
   6.4800000000000024E-002     1.5206323005259037E-003
   6.5900000000000014E-002     1.6091909492388368E-003
   6.7000000000000004E-002     1.6819307347759604E-003
   6.8100000000000022E-002     1.7374395392835140E-003
   6.9200000000000012E-002     1.7745877848938107E-003
   7.0300000000000029E-002     1.7921613762155175E-003
   7.1400000000000019E-002     1.7888615839183331E-003
   7.2500000000000009E-002     1.7636906122788787E-003
   7.3600000000000027E-002     1.7163340235128999E-003
   7.4700000000000016E-002     1.6471619019284844E-003
   7.5800000000000006E-002     1.5568715753033757E-003
   7.6900000000000024E-002     1.4461695682257414E-003
   7.8000000000000014E-002     1.3158274814486504E-003
   7.9100000000000004E-002     1.1670406674966216E-003
   8.0200000000000021E-002     1.0016890009865165E-003
   8.1300000000000011E-002     8.2219665637239814E-004
   8.2400000000000029E-002     6.3112389761954546E-004
   8.3500000000000019E-002     4.3089065002277493E-004
   8.4600000000000009E-002     2.2389274090528488E-004
   8.5700000000000026E-002     1.2835806955990847E-005
   8.6800000000000016E-002    -1.9912974676117301E-004
   8.7900000000000006E-002    -4.0868134237825871E-004
   8.9000000000000024E-002    -6.1277783242985606E-004
   9.0100000000000013E-002    -8.0886308569461107E-004
   9.1200000000000003E-002    -9.9465472158044577E-004
   9.2300000000000021E-002    -1.1677868897095323E-003
   9.3400000000000011E-002    -1.3257414102554321E-003
   9.4500000000000028E-002    -1.4661877648904920E-003
   9.5600000000000018E-002    -1.5874137170612812E-003
   9.6700000000000008E-002    -1.6884264769032598E-003
   9.7800000000000026E-002    -1.7686341889202595E-003
   9.8900000000000016E-002    -1.8274536123499274E-003
  0.10000000000000001         -1.8642744980752468E-003
  0.10110000000000002         -1.8788264133036137E-003
  0.10220000000000001         -1.8715616315603256E-003
  0.10330000000000003         -1.8436425598338246E-003
  0.10440000000000002         -1.7965247388929129E-003
  0.10550000000000001         -1.7315441509708762E-003
  0.10660000000000003         -1.6499097691848874E-003
  0.10770000000000002         -1.5530723612755537E-003
  0.10880000000000001         -1.4430400915443897E-003
  0.10990000000000003         -1.3222676934674382E-003
  0.11100000000000002         -1.1931922053918242E-003
  0.11210000000000001         -1.0578597430139780E-003
  0.11320000000000002         -9.1799144865944982E-004
  0.11430000000000001         -7.7537586912512779E-004
  0.11540000000000003         -6.3213647808879614E-004
  0.11650000000000002         -4.9055792624130845E-004
  0.11760000000000001         -3.5263225436210632E-004
  0.11870000000000003         -2.1978173754177988E-004
  0.11980000000000002         -9.3024675152264535E-005
  0.12090000000000001          2.6610945496940985E-005
  0.12200000000000003          1.3788457727059722E-004
  0.12310000000000001          2.3958020028658211E-004
  0.12420000000000003          3.3093470847234130E-004
  0.12530000000000002          4.1179900290444493E-004
  0.12640000000000001          4.8235279973596334E-004
  0.12750000000000003          5.4266751976683736E-004
  0.12860000000000002          5.9257104294374585E-004
  0.12970000000000001          6.3194433460012078E-004
  0.13080000000000003          6.6111970227211714E-004
  0.13190000000000002          6.8093044683337212E-004
  0.13300000000000001          6.9233385147526860E-004
  0.13410000000000000          6.9598655682057142E-004
  0.13520000000000004          6.9220818113535643E-004
  0.13630000000000003          6.8136496702209115E-004
  0.13740000000000002          6.6425715340301394E-004
  0.13850000000000001          6.4208422554656863E-004
  0.13960000000000000          6.1600166372954845E-004
  0.14070000000000005          5.8671535225585103E-004
  0.14180000000000004          5.5452698143199086E-004
  0.14290000000000003          5.1977549446746707E-004
  0.14400000000000002          4.8320533824153244E-004
  0.14510000000000001          4.4586564763449132E-004
  0.14620000000000000          4.0863570757210255E-004
  0.14730000000000004          3.7186601548455656E-004
  0.14840000000000003          3.3550633816048503E-004
  0.14950000000000002          2.9958848608657718E-004
  0.15060000000000001          2.6456429623067379E-004
  0.15170000000000000          2.3115356452763081E-004
  0.15280000000000005          1.9986735424026847E-004
  0.15390000000000004          1.7070618923753500E-004
  0.15500000000000003          1.4334540173877031E-004
  0.15610000000000002          1.1761010682675987E-004
  0.15720000000000001          9.3744558398611844E-005
  0.15830000000000000          7.2202237788587809E-005
  0.15940000000000004          5.3185180149739608E-005
  0.16050000000000003          3.6417557566892356E-005
  0.16160000000000002          2.1387149899965152E-005
  0.16270000000000001          7.7992544902372174E-006
  0.16380000000000000         -4.2257092900399584E-006
  0.16490000000000005         -1.4401205589820165E-005
  0.16600000000000004         -2.2692194761475548E-005
  0.16710000000000003         -2.9457509299390949E-005
  0.16820000000000002         -3.5174951335648075E-005
  0.16930000000000001         -4.0049846575129777E-005
  0.17040000000000000         -4.3922220356762409E-005
  0.17150000000000004         -4.6563010982936248E-005
  0.17260000000000003         -4.8037112719612196E-005
  0.17370000000000002         -4.8747042455943301E-005
  0.17480000000000001         -4.9116322770714760E-005
  0.17590000000000000         -4.9252535973209888E-005
  0.17700000000000005         -4.8944719310384244E-005
  0.17810000000000004         -4.7989047743612900E-005
  0.17920000000000003         -4.6489672968164086E-005
  0.18030000000000002         -4.4815606088377535E-005
  0.18140000000000001         -4.3266027205390856E-005
  0.18250000000000000         -4.1805320506682619E-005
  0.18360000000000004         -4.0149301639758050E-005
  0.18470000000000003         -3.8107231375761330E-005
  0.18580000000000002         -3.5814260627375916E-005
  0.18690000000000001         -3.3611569961067289E-005
  0.18800000000000000         -3.1708972528576851E-005
  0.18910000000000005         -2.9992310373927467E-005
  0.19020000000000004         -2.8177735657664016E-005
  0.19130000000000003         -2.6142331989831291E-005
  0.19240000000000002         -2.4075536202872172E-005
  0.19350000000000001         -2.2291671484708786E-005
  0.19460000000000005         -2.0906629288219847E-005
  0.19570000000000004         -1.9723087461898103E-005
  0.19680000000000003         -1.8442711734678596E-005
  0.19790000000000002         -1.6976737242657691E-005
  0.19900000000000001         -1.5527555660810322E-005
  0.20010000000000000         -1.4363317859533709E-005
  0.20120000000000005         -1.3533445780922193E-005
  0.20230000000000004         -1.2828019862354267E-005
  0.20340000000000003         -1.2016131222480908E-005
  0.20450000000000002         -1.1100289157184307E-005
  0.20560000000000000         -1.0313303391740192E-005
  0.20670000000000005         -9.8655164038063958E-006
  0.20780000000000004         -9.7171796369366348E-006
  0.20890000000000003         -9.6183857749565504E-006
