 -0.12000000000000000          0.0000000000000000
 -0.11889999999999999          0.0000000000000000
 -0.11780000000000000          0.0000000000000000
 -0.11670000000000000          0.0000000000000000
 -0.11559999999999999          0.0000000000000000
 -0.11449999999999999          0.0000000000000000
 -0.11340000000000000          0.0000000000000000
 -0.11230000000000000          0.0000000000000000
 -0.11119999999999999          0.0000000000000000
 -0.11009999999999999          0.0000000000000000
 -0.10900000000000000         -4.1068000503378711E-028
 -0.10790000000000000         -3.5091529811224072E-027
 -0.10679999999999999         -3.0025862204649266E-027
 -0.10569999999999999          7.2978533070030617E-026
 -0.10460000000000000          3.1484764999767484E-025
 -0.10349999999999999         -4.6043462943962262E-026
 -0.10239999999999999         -4.1255350638878186E-024
 -0.10130000000000000         -1.2460214192425115E-023
 -0.10020000000000000          2.7170980212369862E-025
  -9.9099999999999994E-002     1.0066427450673352E-022
  -9.7999999999999990E-002     2.7727761572212177E-022
  -9.6899999999999986E-002     9.2986007326291534E-023
  -9.5799999999999996E-002    -1.3929840664944111E-021
  -9.4699999999999993E-002    -4.0134871983526093E-021
  -9.3599999999999989E-002    -2.8044243984580198E-021
  -9.2499999999999999E-002     1.2279956635682855E-020
  -9.1399999999999995E-002     4.1326951529520812E-020
  -9.0299999999999991E-002     4.3371099000072607E-020
  -8.9200000000000002E-002    -6.7418056894078871E-020
  -8.8099999999999984E-002    -3.1562012020028722E-019
  -8.6999999999999994E-002    -4.4583277257806516E-019
  -8.5899999999999990E-002     1.4040548207838606E-019
  -8.4799999999999986E-002     1.7971028203306560E-018
  -8.3699999999999997E-002     3.3284846222266151E-018
  -8.2599999999999993E-002     1.3166515051414810E-018
  -8.1499999999999989E-002    -7.3194664688530756E-018
  -8.0399999999999999E-002    -1.8707930323805550E-017
  -7.9299999999999995E-002    -1.6943266218376774E-017
  -7.8199999999999992E-002     1.7504192281000008E-017
  -7.7100000000000002E-002     7.9469809016590733E-017
  -7.5999999999999984E-002     1.0966375425934836E-016
  -7.4899999999999994E-002     1.2031937579624826E-017
  -7.3799999999999991E-002    -2.4509562720271183E-016
  -7.2699999999999987E-002    -4.9263732673841647E-016
  -7.1599999999999997E-002    -3.5494645662939518E-016
  -7.0499999999999993E-002     4.5584401545470258E-016
  -6.9399999999999989E-002     1.6233617250606793E-015
  -6.8300000000000000E-002     1.9779011294193596E-015
  -6.7199999999999996E-002     1.5524957193802731E-016
  -6.6099999999999992E-002    -3.7916070395958412E-015
  -6.5000000000000002E-002    -7.0365589203080173E-015
  -6.3899999999999985E-002    -4.9104642945688344E-015
  -6.2799999999999995E-002     4.9709826810677860E-015
  -6.1699999999999991E-002     1.7774447685177039E-014
  -6.0599999999999994E-002     2.1163299452199406E-014
  -5.9499999999999990E-002     3.7981169113119641E-015
  -5.8399999999999994E-002    -3.0742972729168316E-014
  -5.7299999999999990E-002    -5.7082370243360242E-014
  -5.6199999999999986E-002    -4.1322431181033473E-014
  -5.5099999999999996E-002     2.6971412841851616E-014
  -5.3999999999999992E-002     1.0832557317515604E-013
  -5.2899999999999989E-002     1.2599787207502600E-013
  -5.1799999999999985E-002     2.7403382704292364E-014
  -5.0699999999999995E-002    -1.4570300261446123E-013
  -4.9599999999999991E-002    -2.5169750723745554E-013
  -4.8499999999999988E-002    -1.5033749256338630E-013
  -4.7399999999999998E-002     1.4417884475290826E-013
  -4.6299999999999994E-002     4.0175469288167287E-013
  -4.5199999999999990E-002     3.2374602131068908E-013
  -4.4099999999999986E-002    -1.5685930744406551E-013
  -4.2999999999999997E-002    -6.8035453573006555E-013
  -4.1899999999999993E-002    -6.4554530341057181E-013
  -4.0799999999999989E-002     2.3238813759603183E-013
  -3.9699999999999985E-002     1.4196473857586156E-012
  -3.8599999999999995E-002     1.7057731095670992E-012
  -3.7499999999999992E-002     1.7207635598544269E-013
  -3.6399999999999988E-002    -2.6373937755952426E-012
  -3.5299999999999984E-002    -4.4925361174230627E-012
  -3.4199999999999994E-002    -2.9054710026787944E-012
  -3.3099999999999991E-002     2.4738349389819003E-012
  -3.1999999999999987E-002     8.4754312942858512E-012
  -3.0899999999999997E-002     9.8548261565079009E-012
  -2.9799999999999993E-002     3.3269565487964448E-012
  -2.8699999999999989E-002    -8.6616026850894201E-012
  -2.7599999999999986E-002    -1.8060096820815552E-011
  -2.6499999999999996E-002    -1.6431463828459059E-011
  -2.5399999999999992E-002    -2.0716796333974941E-012
  -2.4299999999999988E-002     1.6858564891308880E-011
  -2.3199999999999985E-002     2.7015906872707163E-011
  -2.2099999999999995E-002     1.9997125483284250E-011
  -2.0999999999999991E-002    -1.3055890563269928E-014
  -1.9899999999999987E-002    -1.8432623483111144E-011
  -1.8799999999999983E-002    -2.2057895440741326E-011
  -1.7699999999999994E-002    -1.1087147692989685E-011
  -1.6599999999999990E-002     1.0779951828106607E-013
  -1.5499999999999986E-002    -3.5214465891886260E-012
  -1.4399999999999996E-002    -2.0360838015598404E-011
  -1.3299999999999992E-002    -2.7912651356931661E-011
  -1.2199999999999989E-002    -1.9682073624984614E-013
  -1.1099999999999985E-002     6.3797599147985551E-011
  -9.9999999999999950E-003     1.2532637427842275E-010
  -8.8999999999999913E-003     1.2407286309468191E-010
  -7.7999999999999875E-003     2.3793115047632263E-011
  -6.6999999999999837E-003    -1.4636475365037427E-010
  -5.5999999999999939E-003    -2.9138771950876219E-010
  -4.4999999999999901E-003    -3.0192717770383126E-010
  -3.3999999999999864E-003    -1.2939779803211593E-010
  -2.2999999999999826E-003     1.6722483120457099E-010
  -1.1999999999999927E-003     4.4096554185912851E-010
  -9.9999999999988987E-005     5.3655851983691605E-010
   1.0000000000000148E-003     3.8106887090272323E-010
   2.1000000000000185E-003     2.7144611211560310E-011
   3.2000000000000084E-003    -3.7684558251704914E-010
   4.3000000000000121E-003    -6.6573963009020076E-010
   5.4000000000000159E-003    -7.3195000060977122E-010
   6.5000000000000058E-003    -5.5333870818685682E-010
   7.6000000000000234E-003    -1.7377886629699191E-010
   8.7000000000000133E-003     3.2866259713770773E-010
   9.8000000000000032E-003     8.5011264694401234E-010
   1.0900000000000021E-002     1.2443710506460093E-009
   1.2000000000000011E-002     1.3196508330537426E-009
   1.3100000000000001E-002     8.9430857164174427E-010
   1.4200000000000018E-002    -8.2565621006835954E-011
   1.5300000000000008E-002    -1.4051879659859878E-009
   1.6400000000000026E-002    -2.5816710991222180E-009
   1.7500000000000016E-002    -2.9791760169928239E-009
   1.8600000000000005E-002    -2.1266473027026223E-009
   1.9700000000000023E-002    -3.9591590422771716E-011
   2.0800000000000013E-002     2.6315478685035032E-009
   2.1900000000000003E-002     4.7734158847845265E-009
   2.3000000000000020E-002     5.2805049222115485E-009
   2.4100000000000010E-002     3.6136917902496180E-009
   2.5200000000000000E-002     1.4689684191271368E-010
   2.6300000000000018E-002    -3.9094212311852061E-009
   2.7400000000000008E-002    -6.9911179068071760E-009
   2.8500000000000025E-002    -7.8260100622173923E-009
   2.9600000000000015E-002    -5.9240510275060387E-009
   3.0700000000000005E-002    -1.7168817478818710E-009
   3.1800000000000023E-002     3.6283014370752653E-009
   3.2900000000000013E-002     8.5493496726485319E-009
   3.4000000000000002E-002     1.1438930691554106E-008
   3.5100000000000020E-002     1.0994218868631833E-008
   3.6200000000000010E-002     6.6337091375601176E-009
   3.7300000000000028E-002    -1.0516014725681089E-009
   3.8400000000000017E-002    -1.0055291710386882E-008
   3.9500000000000007E-002    -1.7264275342654400E-008
   4.0600000000000025E-002    -1.9470512313546351E-008
   4.1700000000000015E-002    -1.4796210479062211E-008
   4.2800000000000005E-002    -3.8442813377059792E-009
   4.3900000000000022E-002     1.0136870898236339E-008
   4.5000000000000012E-002     2.2328839222041097E-008
   4.6100000000000002E-002     2.8226395443198271E-008
   4.7200000000000020E-002     2.5422817628850680E-008
   4.8300000000000010E-002     1.4453606311803924E-008
   4.9400000000000027E-002    -1.5930751162684942E-009
   5.0500000000000017E-002    -1.8325899020510406E-008
   5.1600000000000007E-002    -3.1439896019946900E-008
   5.2700000000000025E-002    -3.7674411146326747E-008
   5.3800000000000014E-002    -3.5226243255692680E-008
   5.4900000000000004E-002    -2.3890139644322517E-008
   5.6000000000000022E-002    -5.2235629155461538E-009
   5.7100000000000012E-002     1.7289051967850355E-008
   5.8200000000000002E-002     3.8469469387791833E-008
   5.9300000000000019E-002     5.2534641525880943E-008
   6.0400000000000009E-002     5.5089230954763480E-008
   6.1500000000000027E-002     4.5370924794951861E-008
   6.2600000000000017E-002     2.7568708205194525E-008
   6.3700000000000007E-002     1.0136752770506519E-008
   6.4800000000000024E-002     2.8965649878642807E-009
   6.5900000000000014E-002     1.2981844044190893E-008
   6.7000000000000004E-002     4.1582044474353097E-008
   6.8100000000000022E-002     8.3300811581921153E-008
   6.9200000000000012E-002     1.2866621545981616E-007
   7.0300000000000029E-002     1.6858845697242941E-007
   7.1400000000000019E-002     1.9844988230488525E-007
   7.2500000000000009E-002     2.1979904829549923E-007
   7.3600000000000027E-002     2.3914586222417711E-007
   7.4700000000000016E-002     2.6508058681429247E-007
   7.5800000000000006E-002     3.0567571229767054E-007
   7.6900000000000024E-002     3.6743901432600978E-007
   7.8000000000000014E-002     4.5562447326119582E-007
   7.9100000000000004E-002     5.7468906788926688E-007
   8.0200000000000021E-002     7.2789072191881132E-007
   8.1300000000000011E-002     9.1619767772499472E-007
   8.2400000000000029E-002     1.1377325108696823E-006
   8.3500000000000019E-002     1.3889402907807380E-006
   8.4600000000000009E-002     1.6675178358127596E-006
   8.5700000000000026E-002     1.9757733298320090E-006
   8.6800000000000016E-002     2.3225843506224919E-006
   8.7900000000000006E-002     2.7228629733144771E-006
   8.9000000000000024E-002     3.1948738978826441E-006
   9.0100000000000013E-002     3.7568418065347942E-006
   9.1200000000000003E-002     4.4244370656087995E-006
   9.2300000000000021E-002     5.2099862841714639E-006
   9.3400000000000011E-002     6.1232526604726445E-006
   9.4500000000000028E-002     7.1729759838490281E-006
   9.5600000000000018E-002     8.3682889453484677E-006
   9.6700000000000008E-002     9.7195479611400515E-006
   9.7800000000000026E-002     1.1238596016482916E-005
   9.8900000000000016E-002     1.2938889994984493E-005
  0.10000000000000001          1.4835897673037834E-005
  0.10110000000000002          1.6947695257840678E-005
  0.10220000000000001          1.9295077436254360E-005
  0.10330000000000003          2.1900292267673649E-005
  0.10440000000000002          2.4784067136351950E-005
  0.10550000000000001          2.7961761588812806E-005
  0.10660000000000003          3.1440627935808152E-005
  0.10770000000000002          3.5219785786466673E-005
  0.10880000000000001          3.9293165173148736E-005
  0.10990000000000003          4.3653719330905005E-005
  0.11100000000000002          4.8295773012796417E-005
  0.11210000000000001          5.3213643695926294E-005
  0.11320000000000002          5.8397170505486429E-005
  0.11430000000000001          6.3826664700172842E-005
  0.11540000000000003          6.9469781010411680E-005
  0.11650000000000002          7.5281204772181809E-005
  0.11760000000000001          8.1203921581618488E-005
  0.11870000000000003          8.7170497863553464E-005
  0.11980000000000002          9.3103837571106851E-005
  0.12090000000000001          9.8917640571016818E-005
  0.12200000000000003          1.0451708658365533E-004
  0.12310000000000001          1.0979915532516316E-004
  0.12420000000000003          1.1465196439530700E-004
  0.12530000000000002          1.1895353964064270E-004
  0.12640000000000001          1.2257054913789034E-004
  0.12750000000000003          1.2535913265310228E-004
  0.12860000000000002          1.2716848868876696E-004
  0.12970000000000001          1.2784544378519058E-004
  0.13080000000000003          1.2723851250484586E-004
  0.13190000000000002          1.2520005111582577E-004
  0.13300000000000001          1.2158708705101162E-004
  0.13410000000000000          1.1626307968981564E-004
  0.13520000000000004          1.0910179116763175E-004
  0.13630000000000003          9.9991892057005316E-005
  0.13740000000000002          8.8840708485804498E-005
  0.13850000000000001          7.5577067036647350E-005
  0.13960000000000000          6.0153623053338379E-005
  0.14070000000000005          4.2550051148282364E-005
  0.14180000000000004          2.2778756829211488E-005
  0.14290000000000003          8.9129207481164485E-007
  0.14400000000000002         -2.3016527848085389E-005
  0.14510000000000001         -4.8802885430632159E-005
  0.14620000000000000         -7.6281066867522895E-005
  0.14730000000000004         -1.0522145748836920E-004
  0.14840000000000003         -1.3535520702134818E-004
  0.14950000000000002         -1.6637884255032986E-004
  0.15060000000000001         -1.9795836124103516E-004
  0.15170000000000000         -2.2973123122937977E-004
  0.15280000000000005         -2.6130492915399373E-004
  0.15390000000000004         -2.9225356411188841E-004
  0.15500000000000003         -3.2211732468567789E-004
  0.15610000000000002         -3.5040997317992151E-004
  0.15720000000000001         -3.7663505645468831E-004
  0.15830000000000000         -4.0030560921877623E-004
  0.15940000000000004         -4.2096019024029374E-004
  0.16050000000000003         -4.3817042023874819E-004
  0.16160000000000002         -4.5154168037697673E-004
  0.16270000000000001         -4.6071328688412905E-004
  0.16380000000000000         -4.6536384616047144E-004
  0.16490000000000005         -4.6522205229848623E-004
  0.16600000000000004         -4.6007902710698545E-004
  0.16710000000000003         -4.4979681842960417E-004
  0.16820000000000002         -4.3431195081211627E-004
  0.16930000000000001         -4.1363772470504045E-004
  0.17040000000000000         -3.8786805816926062E-004
  0.17150000000000004         -3.5718127037398517E-004
  0.17260000000000003         -3.2184206065721810E-004
  0.17370000000000002         -2.8219923842698336E-004
  0.17480000000000001         -2.3867882555350661E-004
  0.17590000000000000         -1.9177628564648330E-004
  0.17700000000000005         -1.4204908802639693E-004
  0.17810000000000004         -9.0109082520939410E-005
  0.17920000000000003         -3.6610948882298544E-005
  0.18030000000000002          1.7761769413482398E-005
  0.18140000000000001          7.2309412644244730E-005
  0.18250000000000000          1.2632693687919527E-004
  0.18360000000000004          1.7911165195982903E-004
  0.18470000000000003          2.2996996995061636E-004
  0.18580000000000002          2.7822871925309300E-004
  0.18690000000000001          3.2325205393135548E-004
  0.18800000000000000          3.6446066224016249E-004
  0.18910000000000005          4.0134534356184304E-004
  0.19020000000000004          4.3347181053832173E-004
  0.19130000000000003          4.6048325020819902E-004
  0.19240000000000002          4.8210396198555827E-004
  0.19350000000000001          4.9814442172646523E-004
  0.19460000000000005          5.0850509433075786E-004
  0.19570000000000004          5.1317480392754078E-004
  0.19680000000000003          5.1222444744780660E-004
  0.19790000000000002          5.0580158131197095E-004
  0.19900000000000001          4.9413007218390703E-004
  0.20010000000000000          4.7751329839229584E-004
  0.20120000000000005          4.5633345143869519E-004
  0.20230000000000004          4.3104047654196620E-004
  0.20340000000000003          4.0213225292973220E-004
  0.20450000000000002          3.7013398832641542E-004
  0.20560000000000000          3.3558430732227862E-004
  0.20670000000000005          2.9902916867285967E-004
  0.20780000000000004          2.6101869298145175E-004
  0.20890000000000003          2.2210141469258815E-004
