 -0.12000000000000000          0.0000000000000000
 -0.11889999999999999          0.0000000000000000
 -0.11780000000000000          0.0000000000000000
 -0.11670000000000000          0.0000000000000000
 -0.11559999999999999          0.0000000000000000
 -0.11449999999999999          0.0000000000000000
 -0.11340000000000000          0.0000000000000000
 -0.11230000000000000          0.0000000000000000
 -0.11119999999999999          0.0000000000000000
 -0.11009999999999999          0.0000000000000000
 -0.10900000000000000          0.0000000000000000
 -0.10790000000000000         -2.4360782708220673E-031
 -0.10679999999999999         -4.3040791483041703E-030
 -0.10569999999999999         -1.7371874556677946E-029
 -0.10460000000000000          4.4082751932559732E-029
 -0.10349999999999999          5.8311592778506223E-028
 -0.10239999999999999          1.7190671572115639E-027
 -0.10130000000000000         -8.1354160116183701E-028
 -0.10020000000000000         -2.0404465092524787E-026
  -9.9099999999999994E-002    -5.8455437404564594E-026
  -9.7999999999999990E-002    -2.1154508494530685E-026
  -9.6899999999999986E-002     3.3859763875213096E-025
  -9.5799999999999996E-002     1.0707667591965953E-024
  -9.4699999999999993E-002     9.4035375345965491E-025
  -9.3599999999999989E-002    -3.2102509155656348E-024
  -9.2499999999999999E-002    -1.2780643181238648E-023
  -9.1399999999999995E-002    -1.6803213753194305E-023
  -9.0299999999999991E-002     1.5094998571810622E-023
  -8.9200000000000002E-002     1.0561171980346659E-022
  -8.8099999999999984E-002     1.8786928192762478E-022
  -8.6999999999999994E-002     3.6088707717854980E-023
  -8.5899999999999990E-002    -5.9283838611735509E-022
  -8.4799999999999986E-002    -1.4493920893258806E-021
  -8.3699999999999997E-002    -1.2356074013754248E-021
  -8.2599999999999993E-002     1.9206263425912918E-021
  -8.1499999999999989E-002     7.9070873300540150E-021
  -8.0399999999999999E-002     1.1079082641124792E-020
  -7.9299999999999995E-002     5.9903774735978666E-022
  -7.8199999999999992E-002    -2.9403559821049462E-020
  -7.7100000000000002E-002    -6.1752916598553394E-020
  -7.5999999999999984E-002    -4.8490881702681287E-020
  -7.4899999999999994E-002     5.8800489272501429E-020
  -7.3799999999999991E-002     2.3529527340285935E-019
  -7.2699999999999987E-002     3.2078229590928924E-019
  -7.1599999999999997E-002     7.6268579255666560E-020
  -7.0499999999999993E-002    -5.7775577596866135E-019
  -6.9399999999999989E-002    -1.2651632343228115E-018
  -6.8300000000000000E-002    -1.1419702951170999E-018
  -6.7199999999999996E-002     5.1348746128847102E-019
  -6.6099999999999992E-002     3.2666417045000068E-018
  -6.5000000000000002E-002     4.9378315055781472E-018
  -6.3899999999999985E-002     2.6045853673666522E-018
  -6.2799999999999995E-002    -4.6272305622384669E-018
  -6.1699999999999991E-002    -1.2915900832507169E-017
  -6.0599999999999994E-002    -1.4268018533592473E-017
  -5.9499999999999990E-002    -2.2303709261991938E-018
  -5.8399999999999994E-002     2.0102902598066002E-017
  -5.7299999999999990E-002     3.7144164903611933E-017
  -5.6199999999999986E-002     2.9424422427621997E-017
  -5.5099999999999996E-002    -8.6459754853543509E-018
  -5.3999999999999992E-002    -5.5919705661965118E-017
  -5.2899999999999989E-002    -7.3150804263730744E-017
  -5.1799999999999985E-002    -3.4834329217506608E-017
  -5.0699999999999995E-002     3.9157654863464011E-017
  -4.9599999999999991E-002     8.7472735120926973E-017
  -4.8499999999999988E-002     5.9462725366321649E-017
  -4.7399999999999998E-002    -2.1387085609803552E-017
  -4.6299999999999994E-002    -5.3241182341955107E-017
  -4.5199999999999990E-002     5.0589860029208290E-017
  -4.4099999999999986E-002     2.2876107327094548E-016
  -4.2999999999999997E-002     2.4215745519714387E-016
  -4.1899999999999993E-002    -1.4561007230047736E-016
  -4.0799999999999989E-002    -8.5438953428032234E-016
  -3.9699999999999985E-002    -1.3237773948033844E-015
  -3.8599999999999995E-002    -7.8985298229827393E-016
  -3.7499999999999992E-002     1.0204312853482147E-015
  -3.6399999999999988E-002     3.2657613626438462E-015
  -3.5299999999999984E-002     4.1262011473872876E-015
  -3.4199999999999994E-002     1.9762633912158434E-015
  -3.3099999999999991E-002    -3.0181736321614142E-015
  -3.1999999999999987E-002    -8.1857729890776575E-015
  -3.0899999999999997E-002    -9.5494392829496150E-015
  -2.9799999999999993E-002    -4.6072874858239972E-015
  -2.8699999999999989E-002     5.1861171912091168E-015
  -2.7599999999999986E-002     1.4448991252058972E-014
  -2.6499999999999996E-002     1.7036109393846199E-014
  -2.5399999999999992E-002     1.0379121607312358E-014
  -2.4299999999999988E-002    -2.3888961267454862E-015
  -2.3199999999999985E-002    -1.4567453891930170E-014
  -2.2099999999999995E-002    -2.0809295584421628E-014
  -2.0999999999999991E-002    -2.0566163247241753E-014
  -1.9899999999999987E-002    -1.6653745168928452E-014
  -1.8799999999999983E-002    -1.0063078368098728E-014
  -1.7699999999999994E-002     3.3503134619881914E-015
  -1.6599999999999990E-002     2.8963668215111621E-014
  -1.5499999999999986E-002     6.3318192919728511E-014
  -1.4399999999999996E-002     8.6808496860008716E-014
  -1.3299999999999992E-002     6.9717608151397686E-014
  -1.2199999999999989E-002    -6.4802281040678665E-015
  -1.1099999999999985E-002    -1.2494833726700572E-013
  -9.9999999999999950E-003    -2.2714978769461380E-013
  -8.8999999999999913E-003    -2.3758797121527231E-013
  -7.7999999999999875E-003    -1.1138215593982717E-013
  -6.6999999999999837E-003     1.2447749536854957E-013
  -5.5999999999999939E-003     3.6805744541533458E-013
  -4.4999999999999901E-003     4.8792328684321706E-013
  -3.3999999999999864E-003     3.9451631523267083E-013
  -2.2999999999999826E-003     9.4551875552163767E-014
  -1.1999999999999927E-003    -3.0554137236786516E-013
  -9.9999999999988987E-005    -6.4805718300378623E-013
   1.0000000000000148E-003    -7.9258013997371424E-013
   2.1000000000000185E-003    -6.6550839275189566E-013
   3.2000000000000084E-003    -2.7336032742963923E-013
   4.3000000000000121E-003     3.0671222939898657E-013
   5.4000000000000159E-003     9.3515104514219072E-013
   6.5000000000000058E-003     1.4126464754904422E-012
   7.6000000000000234E-003     1.5035012080819032E-012
   8.7000000000000133E-003     1.0126055809828172E-012
   9.8000000000000032E-003    -8.7261219029657194E-014
   1.0900000000000021E-002    -1.5408778853559513E-012
   1.2000000000000011E-002    -2.8062936089506829E-012
   1.3100000000000001E-002    -3.2251039946279425E-012
   1.4200000000000018E-002    -2.3330280849581664E-012
   1.5300000000000008E-002    -1.6805953601418261E-013
   1.6400000000000026E-002     2.6084856930702616E-012
   1.7500000000000016E-002     4.8939064606345895E-012
   1.8600000000000005E-002     5.5901234162492042E-012
   1.9700000000000023E-002     4.1195618964706693E-012
   2.0800000000000013E-002     7.5620889758432064E-013
   2.1900000000000003E-002    -3.4053207302597865E-012
   2.3000000000000020E-002    -6.8435994718396564E-012
   2.4100000000000010E-002    -8.1924579967140865E-012
   2.5200000000000000E-002    -6.7592403028837733E-012
   2.6300000000000018E-002    -2.7815078799259263E-012
   2.7400000000000008E-002     2.6378721255937432E-012
   2.8500000000000025E-002     7.8486496815632911E-012
   2.9600000000000015E-002     1.1104175738629873E-011
   3.0700000000000005E-002     1.1047725234636374E-011
   3.1800000000000023E-002     7.1677100019207352E-012
   3.2900000000000013E-002     1.3470833877624738E-013
   3.4000000000000002E-002    -8.1302889767820297E-012
   3.5100000000000020E-002    -1.4826711039472862E-011
   3.6200000000000010E-002    -1.7136307997600575E-011
   3.7300000000000028E-002    -1.3370330884110437E-011
   3.8400000000000017E-002    -3.9332369826394764E-012
   3.9500000000000007E-002     8.4321464741132779E-012
   4.0600000000000025E-002     1.9403650561300445E-011
   4.1700000000000015E-002     2.4646045621024015E-011
   4.2800000000000005E-002     2.1539398736836191E-011
   4.3900000000000022E-002     1.0296021847600034E-011
   4.5000000000000012E-002    -6.0169321781933238E-012
   4.6100000000000002E-002    -2.2495299026314974E-011
   4.7200000000000020E-002    -3.3950890709899539E-011
   4.8300000000000010E-002    -3.6382157703185314E-011
   4.9400000000000027E-002    -2.7969741106526058E-011
   5.0500000000000017E-002    -9.5283945664159653E-012
   5.1600000000000007E-002     1.5492895161228759E-011
   5.2700000000000025E-002     4.1443355691672679E-011
   5.3800000000000014E-002     6.1445348809030520E-011
   5.4900000000000004E-002     6.8958595778045861E-011
   5.6000000000000022E-002     5.9651575345931462E-011
   5.7100000000000012E-002     3.2913709951953862E-011
   5.8200000000000002E-002    -7.7486914454305555E-012
   5.9300000000000019E-002    -5.5790250891307736E-011
   6.0400000000000009E-002    -1.0381082798938124E-010
   6.1500000000000027E-002    -1.4588362462486515E-010
   6.2600000000000017E-002    -1.7902596072261190E-010
   6.3700000000000007E-002    -2.0339468997931931E-010
   6.4800000000000024E-002    -2.2160843993201951E-010
   6.5900000000000014E-002    -2.3806981386265136E-010
   6.7000000000000004E-002    -2.5892576971386916E-010
   6.8100000000000022E-002    -2.9252186783956802E-010
   6.9200000000000012E-002    -3.4947811311525356E-010
   7.0300000000000029E-002    -4.4146980515691325E-010
   7.1400000000000019E-002    -5.7860993774028202E-010
   7.2500000000000009E-002    -7.6652173497393505E-010
   7.3600000000000027E-002    -1.0049036047732329E-009
   7.4700000000000016E-002    -1.2889722622588806E-009
   7.5800000000000006E-002    -1.6136976199732089E-009
   7.6900000000000024E-002    -1.9790669103514347E-009
   7.8000000000000014E-002    -2.3938522275557261E-009
   7.9100000000000004E-002    -2.8761151238398952E-009
   8.0200000000000021E-002    -3.4505731605349865E-009
   8.1300000000000011E-002    -4.1447778542647029E-009
   8.2400000000000029E-002    -4.9865711559959891E-009
   8.3500000000000019E-002    -6.0041540628219536E-009
   8.4600000000000009E-002    -7.2281034491084029E-009
   8.5700000000000026E-002    -8.6933056309135281E-009
   8.6800000000000016E-002    -1.0438975905913139E-008
   8.7900000000000006E-002    -1.2506678359613943E-008
   8.9000000000000024E-002    -1.4938080994397751E-008
   9.0100000000000013E-002    -1.7774816285509587E-008
   9.1200000000000003E-002    -2.1061524080323579E-008
   9.2300000000000021E-002    -2.4851015467675097E-008
   9.3400000000000011E-002    -2.9208830909510652E-008
   9.4500000000000028E-002    -3.4214718169778280E-008
   9.5600000000000018E-002    -3.9960390552096214E-008
   9.6700000000000008E-002    -4.6545203247205791E-008
   9.7800000000000026E-002    -5.4072238242497406E-008
   9.8900000000000016E-002    -6.2646627441154124E-008
  0.10000000000000001         -7.2375932802515308E-008
  0.10110000000000002         -8.3370821357675595E-008
  0.10220000000000001         -9.5744312034184986E-008
  0.10330000000000003         -1.0960920349134540E-007
  0.10440000000000002         -1.2507497615388274E-007
  0.10550000000000001         -1.4224626454506506E-007
  0.10660000000000003         -1.6122359625114768E-007
  0.10770000000000002         -1.8210558039299940E-007
  0.10880000000000001         -2.0498963237969292E-007
  0.10990000000000003         -2.2996862014679209E-007
  0.11100000000000002         -2.5712304818625853E-007
  0.11210000000000001         -2.8651038519456051E-007
  0.11320000000000002         -3.1815534384804778E-007
  0.11430000000000001         -3.5204422488277487E-007
  0.11540000000000003         -3.8812396496723522E-007
  0.11650000000000002         -4.2630387042663642E-007
  0.11760000000000001         -4.6645621409879823E-007
  0.11870000000000003         -5.0841288157243980E-007
  0.11980000000000002         -5.5195800996443722E-007
  0.12090000000000001         -5.9681809716494172E-007
  0.12200000000000003         -6.4265418586728629E-007
  0.12310000000000001         -6.8905734451618628E-007
  0.12420000000000003         -7.3554826940380735E-007
  0.12530000000000002         -7.8157933103284449E-007
  0.12640000000000001         -8.2653644994934439E-007
  0.12750000000000003         -8.6974029045450152E-007
  0.12860000000000002         -9.1044745431645424E-007
  0.12970000000000001         -9.4785315241097123E-007
  0.13080000000000003         -9.8109603641205467E-007
  0.13190000000000002         -1.0092666116179316E-006
  0.13300000000000001         -1.0314176961401245E-006
  0.13410000000000000         -1.0465774948897888E-006
  0.13520000000000004         -1.0537638672758476E-006
  0.13630000000000003         -1.0519986517465441E-006
  0.13740000000000002         -1.0403231271993718E-006
  0.13850000000000001         -1.0178124512094655E-006
  0.13960000000000000         -9.8359021194482921E-007
  0.14070000000000005         -9.3684536750515690E-007
  0.14180000000000004         -8.7685265270920354E-007
  0.14290000000000003         -8.0299645333070657E-007
  0.14400000000000002         -7.1479763619208825E-007
  0.14510000000000001         -6.1193884448584868E-007
  0.14620000000000000         -4.9428621196057065E-007
  0.14730000000000004         -3.6190490959597810E-007
  0.14840000000000003         -2.1507001690679317E-007
  0.14950000000000002         -5.4274583050073488E-008
  0.15060000000000001          1.1976293023963080E-007
  0.15170000000000000          3.0609209034082596E-007
  0.15280000000000005          5.0352582547930069E-007
  0.15390000000000004          7.1064039275370305E-007
  0.15500000000000003          9.2578181920544012E-007
  0.15610000000000002          1.1470783647382632E-006
  0.15720000000000001          1.3724584277952090E-006
  0.15830000000000000          1.5996708953025518E-006
  0.15940000000000004          1.8263083347846987E-006
  0.16050000000000003          2.0498328012763523E-006
  0.16160000000000002          2.2676074422633974E-006
  0.16270000000000001          2.4769358333287528E-006
  0.16380000000000000          2.6751069981401088E-006
  0.16490000000000005          2.8594442937901476E-006
  0.16600000000000004          3.0273529318947112E-006
  0.16710000000000003          3.1763611332280561E-006
  0.16820000000000002          3.3041569622582756E-006
  0.16930000000000001          3.4086219784512650E-006
  0.17040000000000000          3.4878662518167403E-006
  0.17150000000000004          3.5402676985540893E-006
  0.17260000000000003          3.5645120988192502E-006
  0.17370000000000002          3.5596285670180805E-006
  0.17480000000000001          3.5250172913947608E-006
  0.17590000000000000          3.4604643133206991E-006
  0.17700000000000005          3.3661492579994956E-006
  0.17810000000000004          3.2426457892142935E-006
  0.17920000000000003          3.0909175166016212E-006
  0.18030000000000002          2.9123073090886464E-006
  0.18140000000000001          2.7085211513622198E-006
  0.18250000000000000          2.4816019958961988E-006
  0.18360000000000004          2.2338970211421838E-006
  0.18470000000000003          1.9680219338624738E-006
  0.18580000000000002          1.6868232250999426E-006
  0.18690000000000001          1.3933395166532136E-006
  0.18800000000000000          1.0907593832598650E-006
  0.18910000000000005          7.8237292200356023E-007
  0.19020000000000004          4.7151777948784002E-007
  0.19130000000000003          1.6152009152392566E-007
  0.19240000000000002         -1.4436325557198870E-007
  0.19350000000000001         -4.4299704882178048E-007
  0.19460000000000005         -7.3141131906595547E-007
  0.19570000000000004         -1.0068366691484698E-006
  0.19680000000000003         -1.2667342161876149E-006
  0.19790000000000002         -1.5088249938344234E-006
  0.19900000000000001         -1.7311208466708194E-006
  0.20010000000000000         -1.9319545572216157E-006
  0.20120000000000005         -2.1100049707456492E-006
  0.20230000000000004         -2.2643100692221196E-006
  0.20340000000000003         -2.3942636744322954E-006
  0.20450000000000002         -2.4996018055389868E-006
  0.20560000000000000         -2.5803828975767829E-006
  0.20670000000000005         -2.6369682473159628E-006
  0.20780000000000004         -2.6700067792262416E-006
  0.20890000000000003         -2.6804232220456470E-006
