 -0.12000000000000000          0.0000000000000000
 -0.11889999999999999          0.0000000000000000
 -0.11780000000000000          0.0000000000000000
 -0.11670000000000000          0.0000000000000000
 -0.11559999999999999          0.0000000000000000
 -0.11449999999999999          0.0000000000000000
 -0.11340000000000000          0.0000000000000000
 -0.11230000000000000          0.0000000000000000
 -0.11119999999999999          0.0000000000000000
 -0.11009999999999999          0.0000000000000000
 -0.10900000000000000         -1.2226408470779048E-036
 -0.10790000000000000          4.2856026105485105E-034
 -0.10679999999999999         -1.3158053054627705E-033
 -0.10569999999999999          1.7779653276614497E-032
 -0.10460000000000000          2.0942482751848687E-031
 -0.10349999999999999          2.1555063420915302E-031
 -0.10239999999999999         -2.2993692652366899E-030
 -0.10130000000000000         -2.4135857506563712E-030
 -0.10020000000000000          3.6199430159900065E-029
  -9.9099999999999994E-002     9.8006085045683580E-029
  -9.7999999999999990E-002    -2.2576102290322029E-028
  -9.6899999999999986E-002    -1.4442815394257179E-027
  -9.5799999999999996E-002    -9.6074485645022554E-028
  -9.4699999999999993E-002     9.6920090224195047E-027
  -9.3599999999999989E-002     2.7343798682585991E-026
  -9.2499999999999999E-002    -9.1795914791839702E-027
  -9.1399999999999995E-002    -1.9323491767439554E-025
  -9.0299999999999991E-002    -3.4838535647795080E-025
  -8.9200000000000002E-002     3.5724120760757503E-025
  -8.8099999999999984E-002     2.5813725796452547E-024
  -8.6999999999999994E-002     3.5331273453376163E-024
  -8.5899999999999990E-002    -5.0483859660128823E-024
  -8.4799999999999986E-002    -2.6350674226782996E-023
  -8.3699999999999997E-002    -3.1505299640776066E-023
  -8.2599999999999993E-002     4.6269248000545258E-023
  -8.1499999999999989E-002     2.1883655318749115E-022
  -8.0399999999999999E-002     2.5739201002331050E-022
  -7.9299999999999995E-002    -3.0448279039232741E-022
  -7.8199999999999992E-002    -1.5238523798688788E-021
  -7.7100000000000002E-002    -1.9193469995296406E-021
  -7.5999999999999984E-002     1.4093916665036370E-021
  -7.4899999999999994E-002     9.0028980777079062E-021
  -7.3799999999999991E-002     1.2798596456372903E-020
  -7.2699999999999987E-002    -3.4353109722947009E-021
  -7.1599999999999997E-002    -4.5090878579404243E-020
  -7.0499999999999993E-002    -7.4970009091534875E-020
  -6.9399999999999989E-002    -1.1350296100052750E-020
  -6.8300000000000000E-002     1.8877825466805700E-019
  -6.7199999999999996E-002     3.8137503353760019E-019
  -6.6099999999999992E-002     1.9844773753486047E-019
  -6.5000000000000002E-002    -6.3526555975519889E-019
  -6.3899999999999985E-002    -1.6699988677912172E-018
  -6.2799999999999995E-002    -1.4366775833720332E-018
  -6.1699999999999991E-002     1.5230815614368723E-018
  -6.0599999999999994E-002     6.2199544240001334E-018
  -5.9499999999999990E-002     7.5190808670937596E-018
  -5.8399999999999994E-002    -1.1202818262511127E-018
  -5.7299999999999990E-002    -1.9238133244117340E-017
  -5.6199999999999986E-002    -3.1444645637660257E-017
  -5.5099999999999996E-002    -1.2602482098410826E-017
  -5.3999999999999992E-002     4.6559114783355793E-017
  -5.2899999999999989E-002     1.0816071414678031E-016
  -5.1799999999999985E-002     8.9139484202886623E-017
  -5.0699999999999995E-002    -7.1262569300953896E-017
  -4.9599999999999991E-002    -3.0527202414920953E-016
  -4.8499999999999988E-002    -3.7844190650658820E-016
  -4.7399999999999998E-002    -3.6951097639919606E-017
  -4.6299999999999994E-002     6.8019524991378495E-016
  -4.5199999999999990E-002     1.2205209021595330E-015
  -4.4099999999999986E-002     7.5437103683558731E-016
  -4.2999999999999997E-002    -1.0350445095124827E-015
  -4.1899999999999993E-002    -3.1275958893865665E-015
  -4.0799999999999989E-002    -3.2951919459126705E-015
  -3.9699999999999985E-002     2.1229864383392333E-016
  -3.8599999999999995E-002     6.2361987589968498E-015
  -3.7499999999999992E-002     9.8463683766755045E-015
  -3.6399999999999988E-002     5.2058632232755090E-015
  -3.5299999999999984E-002    -8.4789971606922566E-015
  -3.4199999999999994E-002    -2.2559445224433830E-014
  -3.3099999999999991E-002    -2.2096104649758572E-014
  -3.1999999999999987E-002     1.9875337998537723E-015
  -3.0899999999999997E-002     3.9376454299879654E-014
  -2.9799999999999993E-002     5.9329358917045716E-014
  -2.8699999999999989E-002     3.0787282716705083E-014
  -2.7599999999999986E-002    -4.5406336161716090E-014
  -2.6499999999999996E-002    -1.1925993504378896E-013
  -2.5399999999999992E-002    -1.1566374485787179E-013
  -2.4299999999999988E-002     2.9685491481553370E-015
  -2.3199999999999985E-002     1.7949193292701032E-013
  -2.2099999999999995E-002     2.7115050656167927E-013
  -2.0999999999999991E-002     1.4855269249956782E-013
  -1.9899999999999987E-002    -1.7135693363388993E-013
  -1.8799999999999983E-002    -4.7436333290226673E-013
  -1.7699999999999994E-002    -4.6735223113367197E-013
  -1.6599999999999990E-002    -2.4788393790408682E-014
  -1.5499999999999986E-002     6.2116799334419048E-013
  -1.4399999999999996E-002     9.5374641344292410E-013
  -1.3299999999999992E-002     5.4438262708442209E-013
  -1.2199999999999989E-002    -5.1192627610954777E-013
  -1.1099999999999985E-002    -1.4874685684562738E-012
  -9.9999999999999950E-003    -1.4640318037745237E-012
  -8.8999999999999913E-003    -1.1291877535010014E-013
  -7.7999999999999875E-003     1.7954902972391884E-012
  -6.6999999999999837E-003     2.7210573204372590E-012
  -5.5999999999999939E-003     1.5034132792857147E-012
  -4.4999999999999901E-003    -1.4546342646040711E-012
  -3.3999999999999864E-003    -4.0461575062655797E-012
  -2.2999999999999826E-003    -3.8257938483887699E-012
  -1.1999999999999927E-003    -1.1260889681667663E-013
  -9.9999999999988987E-005     4.8506710800810815E-012
   1.0000000000000148E-003     7.0180146416465305E-012
   2.1000000000000185E-003     3.6144201780857754E-012
   3.2000000000000084E-003    -4.0164356215899311E-012
   4.3000000000000121E-003    -1.0399284731954506E-011
   5.4000000000000159E-003    -9.5692290896787213E-012
   6.5000000000000058E-003    -1.7183417232516374E-013
   7.6000000000000234E-003     1.2067738301702047E-011
   8.7000000000000133E-003     1.7384180900359425E-011
   9.8000000000000032E-003     9.3354751012908466E-012
   1.0900000000000021E-002    -8.7741185844647518E-012
   1.2000000000000011E-002    -2.4207774673712379E-011
   1.3100000000000001E-002    -2.3276044286424380E-011
   1.4200000000000018E-002    -2.7317807304444441E-012
   1.5300000000000008E-002     2.4950000399037719E-011
   1.6400000000000026E-002     3.8366466253991760E-011
   1.7500000000000016E-002     2.3120966946565957E-011
   1.8600000000000005E-002    -1.4490099224662156E-011
   1.9700000000000023E-002    -4.8118096312999015E-011
   2.0800000000000013E-002    -4.9003488766796721E-011
   2.1900000000000003E-002    -9.5198831456810851E-012
   2.3000000000000020E-002     4.5896883515972320E-011
   2.4100000000000010E-002     7.4353204149169017E-011
   2.5200000000000000E-002     4.6478293436180707E-011
   2.6300000000000018E-002    -2.6139134259861585E-011
   2.7400000000000008E-002    -9.2024138309554360E-011
   2.8500000000000025E-002    -9.4497472347132572E-011
   2.9600000000000015E-002    -1.7972002358535022E-011
   3.0700000000000005E-002     9.0417721920754701E-011
   3.1800000000000023E-002     1.4700299311165566E-010
   3.2900000000000013E-002     9.3577159909763452E-011
   3.4000000000000002E-002    -4.9067725577112142E-011
   3.5100000000000020E-002    -1.8219070696545714E-010
   3.6200000000000010E-002    -1.9474297174859601E-010
   3.7300000000000028E-002    -5.2096535418932888E-011
   3.8400000000000017E-002     1.6075020481398639E-010
   3.9500000000000007E-002     2.8566837784183008E-010
   4.0600000000000025E-002     2.0628750097007043E-010
   4.1700000000000015E-002    -5.0114593030947674E-011
   4.2800000000000005E-002    -3.0924865446202432E-010
   4.3900000000000022E-002    -3.6517266988056463E-010
   4.5000000000000012E-002    -1.4111257995441662E-010
   4.6100000000000002E-002     2.2728463555665712E-010
   4.7200000000000020E-002     4.6699655253945593E-010
   4.8300000000000010E-002     3.6626215949020491E-010
   4.9400000000000027E-002    -4.4329477588700428E-011
   5.0500000000000017E-002    -4.7833781380290930E-010
   5.1600000000000007E-002    -5.8561810956092586E-010
   5.2700000000000025E-002    -2.2698022628109271E-010
   5.3800000000000014E-002     3.7870501179426697E-010
   5.4900000000000004E-002     7.7495104777725032E-010
   5.6000000000000022E-002     6.0062071982613929E-010
   5.7100000000000012E-002    -1.0082776974451590E-010
   5.8200000000000002E-002    -8.5016260698012047E-010
   5.9300000000000019E-002    -1.0485684542871354E-009
   6.0400000000000009E-002    -4.4073608651551410E-010
   6.1500000000000027E-002     6.2503285880310955E-010
   6.2600000000000017E-002     1.3798415743337955E-009
   6.3700000000000007E-002     1.1810750155660799E-009
   6.4800000000000024E-002     4.0610542706431829E-011
   6.5900000000000014E-002    -1.2893692780124866E-009
   6.7000000000000004E-002    -1.8047843219903825E-009
   6.8100000000000022E-002    -1.0051577348235696E-009
   6.9200000000000012E-002     6.4650496067741869E-010
   7.0300000000000029E-002     1.9644244009242584E-009
   7.1400000000000019E-002     1.8840269344622129E-009
   7.2500000000000009E-002     3.1887453788570497E-010
   7.3600000000000027E-002    -1.6488059806363253E-009
   7.4700000000000016E-002    -2.4830031364331262E-009
   7.5800000000000006E-002    -1.3639046558822088E-009
   7.6900000000000024E-002     1.0592430266243014E-009
   7.8000000000000014E-002     2.9877738061401260E-009
   7.9100000000000004E-002     2.7544277969582254E-009
   8.0200000000000021E-002     1.7571158417162280E-010
   8.1300000000000011E-002    -3.0871032397072895E-009
   8.2400000000000029E-002    -4.5747130528184243E-009
   8.3500000000000019E-002    -2.8429207876712326E-009
   8.4600000000000009E-002     1.2828013096211066E-009
   8.5700000000000026E-002     5.0603787826730695E-009
   8.6800000000000016E-002     5.7072107040312403E-009
   8.7900000000000006E-002     2.5140383108634978E-009
   8.9000000000000024E-002    -2.4199653392287246E-009
   9.0100000000000013E-002    -5.5497855200314916E-009
   9.1200000000000003E-002    -4.5031511852755557E-009
   9.2300000000000021E-002    -4.0308735516081384E-011
   9.3400000000000011E-002     4.2507344311104589E-009
   9.4500000000000028E-002     4.5298178541486323E-009
   9.5600000000000018E-002    -2.1936952254719699E-010
   9.6700000000000008E-002    -6.9675563096893711E-009
   9.7800000000000026E-002    -1.0437653408246206E-008
   9.8900000000000016E-002    -6.8679919529301969E-009
  0.10000000000000001          2.9402511536602560E-009
  0.10110000000000002          1.3686195288187264E-008
  0.10220000000000001          1.8975809368271257E-008
  0.10330000000000003          1.5766826066965223E-008
  0.10440000000000002          6.5635621382398313E-009
  0.10550000000000001         -2.4565647294139126E-009
  0.10660000000000003         -6.2058855831992332E-009
  0.10770000000000002         -4.8310506706172873E-009
  0.10880000000000001         -3.9387137995561261E-009
  0.10990000000000003         -1.0400379224506651E-008
  0.11100000000000002         -2.6666151953236295E-008
  0.11210000000000001         -4.7960043048078660E-008
  0.11320000000000002         -6.4885405492987047E-008
  0.11430000000000001         -6.9989283701943350E-008
  0.11540000000000003         -6.3633400770868320E-008
  0.11650000000000002         -5.4650822534085819E-008
  0.11760000000000001         -5.4905143542782753E-008
  0.11870000000000003         -7.1474495655365899E-008
  0.11980000000000002         -1.0225620172832350E-007
  0.12090000000000001         -1.3852333324848587E-007
  0.12200000000000003         -1.7279110409162968E-007
  0.12310000000000001         -2.0608361239737860E-007
  0.12420000000000003         -2.4874003656805144E-007
  0.12530000000000002         -3.1357566854239849E-007
  0.12640000000000001         -4.0622768437970080E-007
  0.12750000000000003         -5.2025700369995320E-007
  0.12860000000000002         -6.4160627744058729E-007
  0.12970000000000001         -7.6013662919649505E-007
  0.13080000000000003         -8.8019254462778918E-007
  0.13190000000000002         -1.0220593367193942E-006
  0.13300000000000001         -1.2123344959036331E-006
  0.13410000000000000         -1.4694272749693482E-006
  0.13520000000000004         -1.7945244508155156E-006
  0.13630000000000003         -2.1749613097199472E-006
  0.13740000000000002         -2.5980975806305651E-006
  0.13850000000000001         -3.0658518426207593E-006
  0.13960000000000000         -3.5991029108117800E-006
  0.14070000000000005         -4.2283404582121875E-006
  0.14180000000000004         -4.9772506827139296E-006
  0.14290000000000003         -5.8516507124295458E-006
  0.14400000000000002         -6.8426602410909254E-006
  0.14510000000000001         -7.9424844443565235E-006
  0.14620000000000000         -9.1612200776580721E-006
  0.14730000000000004         -1.0531533007451799E-005
  0.14840000000000003         -1.2096546925022267E-005
  0.14950000000000002         -1.3888865396438632E-005
  0.15060000000000001         -1.5916017218842171E-005
  0.15170000000000000         -1.8163727872888558E-005
  0.15280000000000005         -2.0615529138012789E-005
  0.15390000000000004         -2.3274584236787632E-005
  0.15500000000000003         -2.6170962883043103E-005
  0.15610000000000002         -2.9347509553190321E-005
  0.15720000000000001         -3.2833260775078088E-005
  0.15830000000000000         -3.6623285268433392E-005
  0.15940000000000004         -4.0679904486751184E-005
  0.16050000000000003         -4.4955264456802979E-005
  0.16160000000000002         -4.9419377319281921E-005
  0.16270000000000001         -5.4072606872068718E-005
  0.16380000000000000         -5.8932186220772564E-005
  0.16490000000000005         -6.4001069404184818E-005
  0.16600000000000004         -6.9240733864717185E-005
  0.16710000000000003         -7.4566960392985493E-005
  0.16820000000000002         -7.9871562775224447E-005
  0.16930000000000001         -8.5054300143383443E-005
  0.17040000000000000         -9.0041336079593748E-005
  0.17150000000000004         -9.4777125923428684E-005
  0.17260000000000003         -9.9196382507216185E-005
  0.17370000000000002         -1.0319751891074702E-004
  0.17480000000000001         -1.0663789726095274E-004
  0.17590000000000000         -1.0935472528217360E-004
  0.17700000000000005         -1.1119638656964526E-004
  0.17810000000000004         -1.1204061593161896E-004
  0.17920000000000003         -1.1178562999702990E-004
  0.18030000000000002         -1.1032240581698716E-004
  0.18140000000000001         -1.0751093941507861E-004
  0.18250000000000000         -1.0318134445697069E-004
  0.18360000000000004         -9.7164105682168156E-005
  0.18470000000000003         -8.9329296315554529E-005
  0.18580000000000002         -7.9607772931922227E-005
  0.18690000000000001         -6.7979795858263969E-005
  0.18800000000000000         -5.4440522944787517E-005
  0.18910000000000005         -3.8969250454101712E-005
  0.19020000000000004         -2.1527048374991864E-005
  0.19130000000000003         -2.0881993805232923E-006
  0.19240000000000002          1.9315011741127819E-005
  0.19350000000000001          4.2564595787553117E-005
  0.19460000000000005          6.7464628955349326E-005
  0.19570000000000004          9.3776739959139377E-005
  0.19680000000000003          1.2125727516831830E-004
  0.19790000000000002          1.4966836897656322E-004
  0.19900000000000001          1.7875574121717364E-004
  0.20010000000000000          2.0821203361265361E-004
  0.20120000000000005          2.3765550577081740E-004
  0.20230000000000004          2.6664327015168965E-004
  0.20340000000000003          2.9471138259395957E-004
  0.20450000000000002          3.2141560222953558E-004
  0.20560000000000000          3.4634646726772189E-004
  0.20670000000000005          3.6911107599735260E-004
  0.20780000000000004          3.8930002483539283E-004
  0.20890000000000003          4.0647044079378247E-004
