 -0.12000000000000000          0.0000000000000000
 -0.11889999999999999          0.0000000000000000
 -0.11780000000000000          0.0000000000000000
 -0.11670000000000000          0.0000000000000000
 -0.11559999999999999          0.0000000000000000
 -0.11449999999999999          0.0000000000000000
 -0.11340000000000000          0.0000000000000000
 -0.11230000000000000          0.0000000000000000
 -0.11119999999999999          0.0000000000000000
 -0.11009999999999999         -6.3120635580316628E-041
 -0.10900000000000000         -5.4248236892998109E-028
 -0.10790000000000000         -2.3918062349632805E-027
 -0.10679999999999999         -1.1541397118221619E-026
 -0.10569999999999999         -3.5216171375003623E-026
 -0.10460000000000000          1.7130743180411526E-025
 -0.10349999999999999          1.4731400550469778E-024
 -0.10239999999999999          2.7012183005201221E-024
 -0.10130000000000000         -6.9408565723201705E-024
 -0.10020000000000000         -3.6633715940064928E-023
  -9.9099999999999994E-002    -2.2152208183372042E-023
  -9.7999999999999990E-002     2.0357341995780276E-022
  -9.6899999999999986E-002     5.2084499615379969E-022
  -9.5799999999999996E-002    -2.1325013055726984E-022
  -9.4699999999999993E-002    -3.2310379526212939E-021
  -9.3599999999999989E-002    -4.8681287532160391E-021
  -9.2499999999999999E-002     6.5622047451404853E-021
  -9.1399999999999995E-002     3.3444841176562591E-020
  -9.0299999999999991E-002     2.9496743655774931E-020
  -8.9200000000000002E-002    -8.9175821523407588E-020
  -8.8099999999999984E-002    -2.7106181345727785E-019
  -8.6999999999999994E-002    -1.0314941592312876E-019
  -8.5899999999999990E-002     8.9574685429847968E-019
  -8.4799999999999986E-002     1.9791239141233954E-018
  -8.3699999999999997E-002     1.1857285114200966E-019
  -8.2599999999999993E-002    -7.2223331310630577E-018
  -8.1499999999999989E-002    -1.3903200450596337E-017
  -8.0399999999999999E-002    -5.0999934404767362E-019
  -7.9299999999999995E-002     4.7125405939433100E-017
  -7.8199999999999992E-002     9.1941568454094512E-017
  -7.7100000000000002E-002     2.3258035806529452E-017
  -7.5999999999999984E-002    -2.4518625972806513E-016
  -7.4899999999999994E-002    -5.4131440439306877E-016
  -7.3799999999999991E-002    -3.0738013033640412E-016
  -7.2699999999999987E-002     9.7600737187996789E-016
  -7.1599999999999997E-002     2.7154133518686705E-015
  -7.0499999999999993E-002     2.4640808887268612E-015
  -6.9399999999999989E-002    -2.5969269950740673E-015
  -6.8300000000000000E-002    -1.1255354321358031E-014
  -6.7199999999999996E-002    -1.4354294662624528E-014
  -6.6099999999999992E-002     1.3152188680219199E-015
  -6.5000000000000002E-002     3.7164675091745956E-014
  -6.3899999999999985E-002     6.4862293324999660E-014
  -6.2799999999999995E-002     3.1816434523896293E-014
  -6.1699999999999991E-002    -8.9727528250302564E-014
  -6.0599999999999994E-002    -2.3211546074966894E-013
  -5.9499999999999990E-002    -2.1919957710931086E-013
  -5.8399999999999994E-002     1.0711359100033723E-013
  -5.7299999999999990E-002     6.4965155650855094E-013
  -5.6199999999999986E-002     9.2069201654981846E-013
  -5.5099999999999996E-002     2.9300623342556314E-013
  -5.3999999999999992E-002    -1.3226678866745057E-012
  -5.2899999999999989E-002    -2.8571149352648354E-012
  -5.1799999999999985E-002    -2.3636949602478009E-012
  -5.0699999999999995E-002     1.3642184170516396E-012
  -4.9599999999999991E-002     6.7077034031361213E-012
  -4.8499999999999988E-002     8.8206638174113492E-012
  -4.7399999999999998E-002     2.7247312479202254E-012
  -4.6299999999999994E-002    -1.1070665217882160E-011
  -4.5199999999999990E-002    -2.3079418584594110E-011
  -4.4099999999999986E-002    -1.8998292522501454E-011
  -4.2999999999999997E-002     7.8915519952067442E-012
  -4.1899999999999993E-002     4.4385859571117033E-011
  -4.0799999999999989E-002     5.8689587911780297E-011
  -3.9699999999999985E-002     2.2502770480332970E-011
  -3.8599999999999995E-002    -5.7340882042563345E-011
  -3.7499999999999992E-002    -1.2570479379637104E-010
  -3.6399999999999988E-002    -1.0866352956330360E-010
  -3.5299999999999984E-002     2.1807923522564208E-011
  -3.4199999999999994E-002     1.9613875801294189E-010
  -3.3099999999999991E-002     2.6780513917580803E-010
  -3.1999999999999987E-002     1.2082744527133473E-010
  -3.0899999999999997E-002    -2.0274341927527191E-010
  -2.9799999999999993E-002    -4.7333337249712124E-010
  -2.8699999999999989E-002    -4.1497857927733974E-010
  -2.7599999999999986E-002     4.8650899281374814E-011
  -2.6499999999999996E-002     6.4059035853602805E-010
  -2.5399999999999992E-002     8.5632273494344667E-010
  -2.4299999999999988E-002     3.5683439536532973E-010
  -2.3199999999999985E-002    -6.4804339672261293E-010
  -2.2099999999999995E-002    -1.3979075674797456E-009
  -2.0999999999999991E-002    -1.1022460721933162E-009
  -1.9899999999999987E-002     3.2657695991915026E-010
  -1.8799999999999983E-002     1.9480375090808134E-009
  -1.7699999999999994E-002     2.3206234711638135E-009
  -1.6599999999999990E-002     6.7080158094882745E-010
  -1.5499999999999986E-002    -2.1753221446374064E-009
  -1.4399999999999996E-002    -4.0324357186706568E-009
  -1.3299999999999992E-002    -2.9078479624192068E-009
  -1.2199999999999989E-002     1.1544583067289127E-009
  -1.1099999999999985E-002     5.5135749299495820E-009
  -9.9999999999999950E-003     6.5115086655968027E-009
  -8.8999999999999913E-003     2.3675779114999773E-009
  -7.7999999999999875E-003    -4.8126751472919046E-009
  -6.6999999999999837E-003    -9.8763290878880369E-009
  -5.5999999999999939E-003    -8.2517930266595615E-009
  -4.4999999999999901E-003     1.1746612016363718E-010
  -3.3999999999999864E-003     9.8161239137083182E-009
  -2.2999999999999826E-003     1.3390326181195562E-008
  -1.1999999999999927E-003     7.1264234513541416E-009
  -9.9999999999988987E-005    -5.2520352511460556E-009
   1.0000000000000148E-003    -1.4459934583044390E-008
   2.1000000000000185E-003    -1.2518619030288906E-008
   3.2000000000000084E-003     2.8420985009837131E-010
   4.3000000000000121E-003     1.4209208032412002E-008
   5.4000000000000159E-003     1.6728018081835895E-008
   6.5000000000000058E-003     2.8893456516249963E-009
   7.6000000000000234E-003    -1.8651913791245719E-008
   8.7000000000000133E-003    -2.9922908595382483E-008
   9.8000000000000032E-003    -1.6834794891453392E-008
   1.0900000000000021E-002     1.7739930413539620E-008
   1.2000000000000011E-002     5.1796750000222469E-008
   1.3100000000000001E-002     5.7098990424722931E-008
   1.4200000000000018E-002     2.0100248576685681E-008
   1.5300000000000008E-002    -4.3909647473581591E-008
   1.6400000000000026E-002    -9.5799038035694711E-008
   1.7500000000000016E-002    -9.6576862063106834E-008
   1.8600000000000005E-002    -3.5612899296216250E-008
   1.9700000000000023E-002     5.7336091430212875E-008
   2.0800000000000013E-002     1.2761366008362616E-007
   2.1900000000000003E-002     1.3078391702947924E-007
   2.3000000000000020E-002     6.3621115486971104E-008
   2.4100000000000010E-002    -3.2437394992255053E-008
   2.5200000000000000E-002    -1.0011964235445660E-007
   2.6300000000000018E-002    -1.0749398171583365E-007
   2.7400000000000008E-002    -6.9873976826782705E-008
   2.8500000000000025E-002    -3.3467301818743567E-008
   2.9600000000000015E-002    -3.1709539882740309E-008
   3.0700000000000005E-002    -4.9951967895372769E-008
   3.1800000000000023E-002    -3.2019233486846231E-008
   3.2900000000000013E-002     6.9329281870965716E-008
   3.4000000000000002E-002     2.3477974764318224E-007
   3.5100000000000020E-002     3.6461531749410582E-007
   3.6200000000000010E-002     3.3278737987531710E-007
   3.7300000000000028E-002     8.0764245069552598E-008
   3.8400000000000017E-002    -3.1557155466542589E-007
   3.9500000000000007E-002    -6.6374030893712400E-007
   4.0600000000000025E-002    -7.5879700034421816E-007
   4.1700000000000015E-002    -5.1058219696644451E-007
   4.2800000000000005E-002    -7.4299970620595605E-009
   4.3900000000000022E-002     5.3046272796564153E-007
   4.5000000000000012E-002     8.7768330558902447E-007
   4.6100000000000002E-002     9.2292850695230893E-007
   4.7200000000000020E-002     7.0152350417629064E-007
   4.8300000000000010E-002     3.2997894550134285E-007
   4.9400000000000027E-002    -9.2653742456156922E-008
   5.0500000000000017E-002    -5.2958785090595007E-007
   5.1600000000000007E-002    -9.6174881036857523E-007
   5.2700000000000025E-002    -1.3035082702117381E-006
   5.3800000000000014E-002    -1.3755211512034338E-006
   5.4900000000000004E-002    -9.9444366696845995E-007
   5.6000000000000022E-002    -1.3830756984136862E-007
   5.7100000000000012E-002     9.4077643097990341E-007
   5.8200000000000002E-002     1.7795249505071037E-006
   5.9300000000000019E-002     1.9520243768057532E-006
   6.0400000000000009E-002     1.3641702025780681E-006
   6.1500000000000027E-002     3.8139035041244750E-007
   6.2600000000000017E-002    -3.4510583191158429E-007
   6.3700000000000007E-002    -2.9025741810097248E-007
   6.4800000000000024E-002     5.4711171060228420E-007
   6.5900000000000014E-002     1.5479068906639631E-006
   6.7000000000000004E-002     1.7928510942508446E-006
   6.8100000000000022E-002     6.3091863466973297E-007
   6.9200000000000012E-002    -1.8719179024627165E-006
   7.0300000000000029E-002    -4.9274381126447613E-006
   7.1400000000000019E-002    -7.5001444201909748E-006
   7.2500000000000009E-002    -8.9549448603056503E-006
   7.3600000000000027E-002    -9.4215210992831613E-006
   7.4700000000000016E-002    -9.6004587248886490E-006
   7.5800000000000006E-002    -1.0142886821994249E-005
   7.6900000000000024E-002    -1.1077198905694632E-005
   7.8000000000000014E-002    -1.1761961104638564E-005
   7.9100000000000004E-002    -1.1473345693957035E-005
   8.0200000000000021E-002    -1.0239086805085760E-005
   8.1300000000000011E-002    -9.2794743977714937E-006
   8.2400000000000029E-002    -1.0633176316331572E-005
   8.3500000000000019E-002    -1.6104144378912770E-005
   8.4600000000000009E-002    -2.6188305128013812E-005
   8.5700000000000026E-002    -3.9717371691945891E-005
   8.6800000000000016E-002    -5.4518299293699445E-005
   8.7900000000000006E-002    -6.8710593041026549E-005
   8.9000000000000024E-002    -8.1822545325842036E-005
   9.0100000000000013E-002    -9.5021816377985271E-005
   9.1200000000000003E-002    -1.1035487841580946E-004
   9.2300000000000021E-002    -1.2955314014105848E-004
   9.3400000000000011E-002    -1.5323402476495661E-004
   9.4500000000000028E-002    -1.8102322064804206E-004
   9.5600000000000018E-002    -2.1246552933005625E-004
   9.6700000000000008E-002    -2.4803509586488501E-004
   9.7800000000000026E-002    -2.8949504485351236E-004
   9.8900000000000016E-002    -3.3932746737261045E-004
  0.10000000000000001         -3.9958613342601948E-004
  0.10110000000000002         -4.7096749767656899E-004
  0.10220000000000001         -5.5273901671166288E-004
  0.10330000000000003         -6.4356357324862749E-004
  0.10440000000000002         -7.4271607445546364E-004
  0.10550000000000001         -8.5083016892887524E-004
  0.10660000000000003         -9.6976832719511082E-004
  0.10770000000000002         -1.1017302749677508E-003
  0.10880000000000001         -1.2482572346924623E-003
  0.10990000000000003         -1.4098350657148894E-003
  0.11100000000000002         -1.5862191794438736E-003
  0.11210000000000001         -1.7770968843249879E-003
  0.11320000000000002         -1.9825219642369166E-003
  0.11430000000000001         -2.2026412189004832E-003
  0.11540000000000003         -2.4370045866815050E-003
  0.11650000000000002         -2.6841151993719317E-003
  0.11760000000000001         -2.9415311291811214E-003
  0.11870000000000003         -3.2064972911027174E-003
  0.11980000000000002         -3.4763354342427703E-003
  0.12090000000000001         -3.7483230698850348E-003
  0.12200000000000003         -4.0188985876735391E-003
  0.12310000000000001         -4.2828563600774711E-003
  0.12420000000000003         -4.5332787558432291E-003
  0.12530000000000002         -4.7622504644091587E-003
  0.12640000000000001         -4.9621416255827226E-003
  0.12750000000000003         -5.1263011991973043E-003
  0.12860000000000002         -5.2486448548729409E-003
  0.12970000000000001         -5.3221769630904109E-003
  0.13080000000000003         -5.3383298218245383E-003
  0.13190000000000002         -5.2860160358245284E-003
  0.13300000000000001         -5.1532993093128220E-003
  0.13410000000000000         -4.9287048168475834E-003
  0.13520000000000004         -4.6022334136064528E-003
  0.13630000000000003         -4.1662682779129399E-003
  0.13740000000000002         -3.6141669843342441E-003
  0.13850000000000001         -2.9388414695856110E-003
  0.13960000000000000         -2.1329922601578495E-003
  0.14070000000000005         -1.1891279136760741E-003
  0.14180000000000004         -1.0259919508822872E-004
  0.14290000000000003          1.1266953079029135E-003
  0.14400000000000002          2.4945968762038139E-003
  0.14510000000000001          3.9922590367492683E-003
  0.14620000000000000          5.6085963733489503E-003
  0.14730000000000004          7.3318178765469418E-003
  0.14840000000000003          9.1486945748321183E-003
  0.14950000000000002          1.1043837293981534E-002
  0.15060000000000001          1.2998157180844589E-002
  0.15170000000000000          1.4986543916164498E-002
  0.15280000000000005          1.6979025676844992E-002
  0.15390000000000004          1.8941566348074174E-002
  0.15500000000000003          2.0837662741539992E-002
  0.15610000000000002          2.2631557658312668E-002
  0.15720000000000001          2.4286361411211682E-002
  0.15830000000000000          2.5764977559444957E-002
  0.15940000000000004          2.7029009535906246E-002
  0.16050000000000003          2.8039528056976629E-002
  0.16160000000000002          2.8757778927681207E-002
  0.16270000000000001          2.9148411005732733E-002
  0.16380000000000000          2.9178814962503616E-002
  0.16490000000000005          2.8819968923923699E-002
  0.16600000000000004          2.8047645464536936E-002
  0.16710000000000003          2.6843093335626018E-002
  0.16820000000000002          2.5196144357321298E-002
  0.16930000000000001          2.3106390610335092E-002
  0.17040000000000000          2.0582763478157962E-002
  0.17150000000000004          1.7642369493840442E-002
  0.17260000000000003          1.4308434911070868E-002
  0.17370000000000002          1.0609703138469595E-002
  0.17480000000000001          6.5816850401454220E-003
  0.17590000000000000          2.2678812965747693E-003
  0.17700000000000005         -2.2789584472774327E-003
  0.17810000000000004         -6.9972295314068133E-003
  0.17920000000000003         -1.1817069724201172E-002
  0.18030000000000002         -1.6663463786242966E-002
  0.18140000000000001         -2.1459899842737235E-002
  0.18250000000000000         -2.6130173355338657E-002
  0.18360000000000004         -3.0597928911444808E-002
  0.18470000000000003         -3.4791294485327473E-002
  0.18580000000000002         -3.8638871163126337E-002
  0.18690000000000001         -4.2071864008899708E-002
  0.18800000000000000         -4.5027181506152841E-002
  0.18910000000000005         -4.7445748001332742E-002
  0.19020000000000004         -4.9280628561969082E-002
  0.19130000000000003         -5.0492119044060861E-002
  0.19240000000000002         -5.1052305847401704E-002
  0.19350000000000001         -5.0946038216347779E-002
  0.19460000000000005         -5.0168875604863307E-002
  0.19570000000000004         -4.8728391528125074E-002
  0.19680000000000003         -4.6644404530520878E-002
  0.19790000000000002         -4.3947972357269008E-002
  0.19900000000000001         -4.0682893246408475E-002
  0.20010000000000000         -3.6902762949463243E-002
  0.20120000000000005         -3.2670058310028803E-002
  0.20230000000000004         -2.8053469955918505E-002
  0.20340000000000003         -2.3126792162654564E-002
  0.20450000000000002         -1.7968598753212134E-002
  0.20560000000000000         -1.2659328058360746E-002
  0.20670000000000005         -7.2823576629154159E-003
  0.20780000000000004         -1.9215648062524441E-003
  0.20890000000000003          3.3393476624039675E-003
