 -0.12000000000000000          0.0000000000000000
 -0.11889999999999999          0.0000000000000000
 -0.11780000000000000          0.0000000000000000
 -0.11670000000000000          0.0000000000000000
 -0.11559999999999999          1.1578480873592400E-015
 -0.11449999999999999          5.6051155910956125E-015
 -0.11340000000000000          1.2649686596051708E-014
 -0.11230000000000000          1.7809813004790800E-014
 -0.11119999999999999          2.0551992386034189E-014
 -0.11009999999999999          2.5988780084137270E-014
 -0.10900000000000000          1.9405895822026918E-014
 -0.10790000000000000         -6.0392541119912158E-014
 -0.10679999999999999         -2.6978460155972772E-013
 -0.10569999999999999         -5.1192638452976502E-013
 -0.10460000000000000         -4.5494451305153061E-013
 -0.10349999999999999          2.3899456090374638E-013
 -0.10239999999999999          1.4030198444009434E-012
 -0.10130000000000000          2.0892627905499950E-012
 -0.10020000000000000          1.1389583937440606E-012
  -9.9099999999999994E-002    -1.5274033123360842E-012
  -9.7999999999999990E-002    -4.1055986735316630E-012
  -9.6899999999999986E-002    -3.9240125905559697E-012
  -9.5799999999999996E-002    -6.1410728932620451E-014
  -9.4699999999999993E-002     4.7730378677224294E-012
  -9.3599999999999989E-002     5.7047526424991446E-012
  -9.2499999999999999E-002     3.1870426436819699E-013
  -9.1399999999999995E-002    -7.5456672160578719E-012
  -9.0299999999999991E-002    -9.5180070422418162E-012
  -8.9200000000000002E-002    -1.9478328997478422E-013
  -8.8099999999999984E-002     1.5682252371695959E-011
  -8.6999999999999994E-002     2.4236395876342520E-011
  -8.5899999999999990E-002     1.3320280642381555E-011
  -8.4799999999999986E-002    -1.4905490036687397E-011
  -8.3699999999999997E-002    -4.1778438347739311E-011
  -8.2599999999999993E-002    -4.4988644753995999E-011
  -8.1499999999999989E-002    -1.7439088367821043E-011
  -8.0399999999999999E-002     2.4323829408978703E-011
  -7.9299999999999995E-002     5.1250372001820921E-011
  -7.8199999999999992E-002     4.4694740963802104E-011
  -7.7100000000000002E-002     1.1877719294228761E-011
  -7.5999999999999984E-002    -1.9855552965686307E-011
  -7.4899999999999994E-002    -2.5512092438617628E-011
  -7.3799999999999991E-002    -2.6920681395897761E-012
  -7.2699999999999987E-002     2.6772377717532159E-011
  -7.1599999999999997E-002     3.3305042751452518E-011
  -7.0499999999999993E-002    -1.0815518402748636E-012
  -6.9399999999999989E-002    -7.5269068755545732E-011
  -6.8300000000000000E-002    -1.7463883117407875E-010
  -6.7199999999999996E-002    -2.8012733799265277E-010
  -6.6099999999999992E-002    -3.7329314639400479E-010
  -6.5000000000000002E-002    -4.4028999890421971E-010
  -6.3899999999999985E-002    -4.8136999941661429E-010
  -6.2799999999999995E-002    -5.2313858800445701E-010
  -6.1699999999999991E-002    -6.1904537052015485E-010
  -6.0599999999999994E-002    -8.2659695754827567E-010
  -5.9499999999999990E-002    -1.1703191749035113E-009
  -5.8399999999999994E-002    -1.6191701313061913E-009
  -5.7299999999999990E-002    -2.1031427710482831E-009
  -5.6199999999999986E-002    -2.5640787271186127E-009
  -5.5099999999999996E-002    -3.0050002486348149E-009
  -5.3999999999999992E-002    -3.5001694875802514E-009
  -5.2899999999999989E-002    -4.1591605715041169E-009
  -5.1799999999999985E-002    -5.0752078095683828E-009
  -5.0699999999999995E-002    -6.2972493886093162E-009
  -4.9599999999999991E-002    -7.8394366553879991E-009
  -4.8499999999999988E-002    -9.7082653027769084E-009
  -4.7399999999999998E-002    -1.1919025766360392E-008
  -4.6299999999999994E-002    -1.4495252109725243E-008
  -4.5199999999999990E-002    -1.7470053848001044E-008
  -4.4099999999999986E-002    -2.0906499642592280E-008
  -4.2999999999999997E-002    -2.4926485764353856E-008
  -4.1899999999999993E-002    -2.9715906180172169E-008
  -4.0799999999999989E-002    -3.5487119021127000E-008
  -3.9699999999999985E-002    -4.2419703305540679E-008
  -3.8599999999999995E-002    -5.0627573244810264E-008
  -3.7499999999999992E-002    -6.0183566574778524E-008
  -3.6399999999999988E-002    -7.1184132366397534E-008
  -3.5299999999999984E-002    -8.3802511596786644E-008
  -3.4199999999999994E-002    -9.8292829875390453E-008
  -3.3099999999999991E-002    -1.1495517782122988E-007
  -3.1999999999999987E-002    -1.3410503640898241E-007
  -3.0899999999999997E-002    -1.5607591308253177E-007
  -2.9799999999999993E-002    -1.8123988354545872E-007
  -2.8699999999999989E-002    -2.1000589356390265E-007
  -2.7599999999999986E-002    -2.4277920829263167E-007
  -2.6499999999999996E-002    -2.7991498541268811E-007
  -2.5399999999999992E-002    -3.2171709563044715E-007
  -2.4299999999999988E-002    -3.6849752405032632E-007
  -2.3199999999999985E-002    -4.2065329353135894E-007
  -2.2099999999999995E-002    -4.7869411901046988E-007
  -2.0999999999999991E-002    -5.4319417586157215E-007
  -1.9899999999999987E-002    -6.1470632317650598E-007
  -1.8799999999999983E-002    -6.9370543087643455E-007
  -1.7699999999999994E-002    -7.8059213137748884E-007
  -1.6599999999999990E-002    -8.7572897200516309E-007
  -1.5499999999999986E-002    -9.7945553534373175E-007
  -1.4399999999999996E-002    -1.0920609838649398E-006
  -1.3299999999999992E-002    -1.2137461453676224E-006
  -1.2199999999999989E-002    -1.3446169759845361E-006
  -1.1099999999999985E-002    -1.4847148577246116E-006
  -9.9999999999999950E-003    -1.6340433148798184E-006
  -8.8999999999999913E-003    -1.7925443671629182E-006
  -7.7999999999999875E-003    -1.9600270206865389E-006
  -6.6999999999999837E-003    -2.1360976916184882E-006
  -5.5999999999999939E-003    -2.3201375825010473E-006
  -4.4999999999999901E-003    -2.5113270112342434E-006
  -3.3999999999999864E-003    -2.7086682621302316E-006
  -2.2999999999999826E-003    -2.9109751267242245E-006
  -1.1999999999999927E-003    -3.1168344776233425E-006
  -9.9999999999988987E-005    -3.3245937629544642E-006
   1.0000000000000148E-003    -3.5323917018104112E-006
   2.1000000000000185E-003    -3.7382042137323879E-006
   3.2000000000000084E-003    -3.9398523767886218E-006
   4.3000000000000121E-003    -4.1349549064761959E-006
   5.4000000000000159E-003    -4.3208688111917581E-006
   6.5000000000000058E-003    -4.4946855268790387E-006
   7.6000000000000234E-003    -4.6532995838788338E-006
   8.7000000000000133E-003    -4.7934936446836218E-006
   9.8000000000000032E-003    -4.9119898903882131E-006
   1.0900000000000021E-002    -5.0054400162480306E-006
   1.2000000000000011E-002    -5.0704202294582501E-006
   1.3100000000000001E-002    -5.1034753596468363E-006
   1.4200000000000018E-002    -5.1012270887440536E-006
   1.5300000000000008E-002    -5.0604667194420472E-006
   1.6400000000000026E-002    -4.9781892812461592E-006
   1.7500000000000016E-002    -4.8515712478547357E-006
   1.8600000000000005E-002    -4.6779687181697227E-006
   1.9700000000000023E-002    -4.4549974518304225E-006
   2.0800000000000013E-002    -4.1806661101873033E-006
   2.1900000000000003E-002    -3.8534831219294574E-006
   2.3000000000000020E-002    -3.4724791930784704E-006
   2.4100000000000010E-002    -3.0371706998266745E-006
   2.5200000000000000E-002    -2.5475658276263857E-006
   2.6300000000000018E-002    -2.0042562027811073E-006
   2.7400000000000008E-002    -1.4085410384723218E-006
   2.8500000000000025E-002    -7.6248875302553643E-007
   2.9600000000000015E-002    -6.8882215487064968E-008
   3.0700000000000005E-002     6.6888321725855349E-007
   3.1800000000000023E-002     1.4468382687482517E-006
   3.2900000000000013E-002     2.2603767320106272E-006
   3.4000000000000002E-002     3.1041699912748300E-006
   3.5100000000000020E-002     3.9721749089949299E-006
   3.6200000000000010E-002     4.8577662710158620E-006
   3.7300000000000028E-002     5.7538995861250442E-006
   3.8400000000000017E-002     6.6531733864394482E-006
   3.9500000000000007E-002     7.5477782957023010E-006
   4.0600000000000025E-002     8.4294433690956794E-006
   4.1700000000000015E-002     9.2895243142265826E-006
   4.2800000000000005E-002     1.0119237231265288E-005
   4.3900000000000022E-002     1.0909906450251583E-005
   4.5000000000000012E-002     1.1653075489448383E-005
   4.6100000000000002E-002     1.2340459761617240E-005
   4.7200000000000020E-002     1.2963897461304441E-005
   4.8300000000000010E-002     1.3515461432689335E-005
   4.9400000000000027E-002     1.3987717466079630E-005
   5.0500000000000017E-002     1.4373977137438487E-005
   5.1600000000000007E-002     1.4668379662907682E-005
   5.2700000000000025E-002     1.4865800949337427E-005
   5.3800000000000014E-002     1.4961779925215524E-005
   5.4900000000000004E-002     1.4952623132558074E-005
   5.6000000000000022E-002     1.4835670299362391E-005
   5.7100000000000012E-002     1.4609532627218869E-005
   5.8200000000000002E-002     1.4274108252720907E-005
   5.9300000000000019E-002     1.3830419447913300E-005
   6.0400000000000009E-002     1.3280448001751211E-005
   6.1500000000000027E-002     1.2627170690393541E-005
   6.2600000000000017E-002     1.1874747542606201E-005
   6.3700000000000007E-002     1.1028660082956776E-005
   6.4800000000000024E-002     1.0095624929817859E-005
   6.5900000000000014E-002     9.0833309513982385E-006
   6.7000000000000004E-002     8.0002100730780512E-006
   6.8100000000000022E-002     6.8553963501472026E-006
   6.9200000000000012E-002     5.6588287407066673E-006
   7.0300000000000029E-002     4.4212938519194722E-006
   7.1400000000000019E-002     3.1542444958176930E-006
   7.2500000000000009E-002     1.8694651089390391E-006
   7.3600000000000027E-002     5.7879378800862469E-007
   7.4700000000000016E-002    -7.0595518764093868E-007
   7.5800000000000006E-002    -1.9729416180780390E-006
   7.6900000000000024E-002    -3.2103353078127839E-006
   7.8000000000000014E-002    -4.4065632209822070E-006
   7.9100000000000004E-002    -5.5506725402665325E-006
   8.0200000000000021E-002    -6.6325769694230985E-006
   8.1300000000000011E-002    -7.6430806075222790E-006
   8.2400000000000029E-002    -8.5737738118041307E-006
   8.3500000000000019E-002    -9.4170418378780596E-006
   8.4600000000000009E-002    -1.0166274478251580E-005
   8.5700000000000026E-002    -1.0816150279424619E-005
   8.6800000000000016E-002    -1.1362780242052395E-005
   8.7900000000000006E-002    -1.1803608686022926E-005
   8.9000000000000024E-002    -1.2137228623032570E-005
   9.0100000000000013E-002    -1.2363309906504583E-005
   9.1200000000000003E-002    -1.2482738384278491E-005
   9.2300000000000021E-002    -1.2497789612098131E-005
   9.3400000000000011E-002    -1.2412121577654034E-005
   9.4500000000000028E-002    -1.2230529137013946E-005
   9.5600000000000018E-002    -1.1958615687035490E-005
   9.6700000000000008E-002    -1.1602631275309250E-005
   9.7800000000000026E-002    -1.1169532626809087E-005
   9.8900000000000016E-002    -1.0667081369319931E-005
  0.10000000000000001         -1.0103763997904025E-005
  0.10110000000000002         -9.4884726422606036E-006
  0.10220000000000001         -8.8301485448027961E-006
  0.10330000000000003         -8.1376183516113088E-006
  0.10440000000000002         -7.4196486821165308E-006
  0.10550000000000001         -6.6850334405899048E-006
  0.10660000000000003         -5.9424996834422927E-006
  0.10770000000000002         -5.2004106692038476E-006
  0.10880000000000001         -4.4664584493148141E-006
  0.10990000000000003         -3.7475622320926050E-006
  0.11100000000000002         -3.0499791137117427E-006
  0.11210000000000001         -2.3794475509930635E-006
  0.11320000000000002         -1.7411615544915549E-006
  0.11430000000000001         -1.1395732144592330E-006
  0.11540000000000003         -5.7820682286546798E-007
  0.11650000000000002         -5.9669517327165522E-008
  0.11760000000000001          4.1415782447984384E-007
  0.11870000000000003          8.4193777638574829E-007
  0.11980000000000002          1.2228683772264048E-006
  0.12090000000000001          1.5568203934890334E-006
  0.12200000000000003          1.8444338820700068E-006
  0.12310000000000001          2.0870206753897946E-006
  0.12420000000000003          2.2863218873681035E-006
  0.12530000000000002          2.4443099846394034E-006
  0.12640000000000001          2.5631716198404320E-006
  0.12750000000000003          2.6454217731952667E-006
  0.12860000000000002          2.6939524104818702E-006
  0.12970000000000001          2.7118990146846045E-006
  0.13080000000000003          2.7023997972719371E-006
  0.13190000000000002          2.6684401746024378E-006
  0.13300000000000001          2.6128975605388405E-006
  0.13410000000000000          2.5386948436789680E-006
  0.13520000000000004          2.4488599592586979E-006
  0.13630000000000003          2.3463917386834510E-006
  0.13740000000000002          2.2340311716106953E-006
  0.13850000000000001          2.1141436263860669E-006
  0.13960000000000000          1.9888113911292749E-006
  0.14070000000000005          1.8600220528242062E-006
  0.14180000000000004          1.7297445538133616E-006
  0.14290000000000003          1.5998103890524362E-006
  0.14400000000000002          1.4717118119733641E-006
  0.14510000000000001          1.3465298707160400E-006
  0.14620000000000000          1.2250732197571779E-006
  0.14730000000000004          1.1081001503043808E-006
  0.14840000000000003          9.9641511042136699E-007
  0.14950000000000002          8.9075558662443655E-007
  0.15060000000000001          7.9159804045048077E-007
  0.15170000000000000          6.9908810473862104E-007
  0.15280000000000005          6.1317189192777732E-007
  0.15390000000000004          5.3380426834337413E-007
  0.15500000000000003          4.6103414774734119E-007
  0.15610000000000002          3.9489864889219461E-007
  0.15720000000000001          3.3525111575727351E-007
  0.15830000000000000          2.8171385224595724E-007
  0.15940000000000004          2.3381485902973509E-007
  0.16050000000000003          1.9117985061711806E-007
  0.16160000000000002          1.5359631788669503E-007
  0.16270000000000001          1.2089734013898124E-007
  0.16380000000000000          9.2795367834241915E-008
  0.16490000000000005          6.8840755318433366E-008
  0.16600000000000004          4.8546418440764683E-008
  0.16710000000000003          3.1547394030440046E-008
  0.16820000000000002          1.7630057413953182E-008
  0.16930000000000001          6.6038303714321955E-009
  0.17040000000000000         -1.8476222773955442E-009
  0.17150000000000004         -8.1765767490082908E-009
  0.17260000000000003         -1.2827647388746755E-008
  0.17370000000000002         -1.6084387155501645E-008
  0.17480000000000001         -1.8060928752561267E-008
  0.17590000000000000         -1.8843170579430080E-008
  0.17700000000000005         -1.8629513931500696E-008
  0.17810000000000004         -1.7723401413149986E-008
  0.17920000000000003         -1.6386559664738343E-008
  0.18030000000000002         -1.4711557305702172E-008
  0.18140000000000001         -1.2656615311357200E-008
  0.18250000000000000         -1.0217935830780789E-008
  0.18360000000000004         -7.5665855803208615E-009
  0.18470000000000003         -5.0045194655012892E-009
  0.18580000000000002         -2.7739843755369975E-009
  0.18690000000000001         -9.0596574686685472E-010
  0.18800000000000000          7.4124256732588378E-010
  0.18910000000000005          2.2918551501049933E-009
  0.19020000000000004          3.7024125987272782E-009
  0.19130000000000003          4.8018660159243609E-009
  0.19240000000000002          5.4767128609967131E-009
  0.19350000000000001          5.8040554584692927E-009
  0.19460000000000005          5.9855529421781739E-009
  0.19570000000000004          6.1396820960624154E-009
  0.19680000000000003          6.1606511003731157E-009
  0.19790000000000002          5.7924895990879577E-009
  0.19900000000000001          4.8519943618430261E-009
  0.20010000000000000          3.3818943201424645E-009
  0.20120000000000005          1.5827787969158180E-009
  0.20230000000000004         -4.0533840173218039E-010
  0.20340000000000003         -2.6486093318567328E-009
  0.20450000000000002         -5.3438324876253773E-009
  0.20560000000000000         -8.6017006850624966E-009
  0.20670000000000005         -1.2317192599198279E-008
  0.20780000000000004         -1.6269185110218132E-008
  0.20890000000000003         -2.0355454211085089E-008
