 -0.12000000000000000          0.0000000000000000
 -0.11889999999999999          0.0000000000000000
 -0.11780000000000000          0.0000000000000000
 -0.11670000000000000          0.0000000000000000
 -0.11559999999999999          0.0000000000000000
 -0.11449999999999999          0.0000000000000000
 -0.11340000000000000          0.0000000000000000
 -0.11230000000000000          0.0000000000000000
 -0.11119999999999999          0.0000000000000000
 -0.11009999999999999          0.0000000000000000
 -0.10900000000000000          0.0000000000000000
 -0.10790000000000000         -8.7311582638964622E-031
 -0.10679999999999999         -7.2577436155362360E-030
 -0.10569999999999999         -2.3034332783459008E-030
 -0.10460000000000000          1.8444378299091357E-028
 -0.10349999999999999          7.7558662567231722E-028
 -0.10239999999999999          8.2791593578357913E-029
 -0.10130000000000000         -8.8530354200455370E-027
 -0.10020000000000000         -2.7556328903809011E-026
  -9.9099999999999994E-002    -1.1454109158308457E-027
  -9.7999999999999990E-002     2.1495160511969286E-025
  -9.6899999999999986E-002     5.9085834642854171E-025
  -9.5799999999999996E-002     1.5600067062201214E-025
  -9.4699999999999993E-002    -3.1540274183439492E-024
  -9.3599999999999989E-002    -8.8497019588680334E-024
  -9.2499999999999999E-002    -5.5590073469229385E-024
  -9.1399999999999995E-002     2.9499557680379226E-023
  -9.0299999999999991E-002     9.5723360978295687E-023
  -8.9200000000000002E-002     9.6679283690580784E-023
  -8.8099999999999984E-002    -1.6954086241217082E-022
  -8.6999999999999994E-002    -7.6030939111019633E-022
  -8.5899999999999990E-002    -1.0629737372091317E-021
  -8.4799999999999986E-002     3.7422859573023515E-022
  -8.3699999999999997E-002     4.4410232527688844E-021
  -8.2599999999999993E-002     8.2481070778632057E-021
  -8.1499999999999989E-002     3.3138206373615006E-021
  -8.0399999999999999E-002    -1.8316418631300813E-020
  -7.9299999999999995E-002    -4.7442439969793128E-020
  -7.8199999999999992E-002    -4.3971800145848030E-020
  -7.7100000000000002E-002     4.3308045865411045E-020
  -7.5999999999999984E-002     2.0452312064012103E-019
  -7.4899999999999994E-002     2.8879328291730299E-019
  -7.3799999999999991E-002     4.1164736887755188E-020
  -7.2699999999999987E-002    -6.3683756481056763E-019
  -7.1599999999999997E-002    -1.3143492547015927E-018
  -7.0499999999999993E-002    -9.8230654911361913E-019
  -6.9399999999999989E-002     1.1844950300229917E-018
  -6.8300000000000000E-002     4.4010020413791954E-018
  -6.7199999999999996E-002     5.4814905865046431E-018
  -6.6099999999999992E-002     5.3226549516919044E-019
  -6.5000000000000002E-002    -1.0535356093279585E-017
  -6.3899999999999985E-002    -1.9894990751100799E-017
  -6.2799999999999995E-002    -1.4020008279253149E-017
  -6.1699999999999991E-002     1.4555725185528217E-017
  -6.0599999999999994E-002     5.2226281361189295E-017
  -5.9499999999999990E-002     6.2221127863724680E-017
  -5.8399999999999994E-002     9.2569881612482833E-018
  -5.7299999999999990E-002    -9.7106345232515550E-017
  -5.6199999999999986E-002    -1.7803814635095701E-016
  -5.5099999999999996E-002    -1.2395331919353662E-016
  -5.3999999999999992E-002     1.0245570901900618E-016
  -5.2899999999999989E-002     3.7266413595468900E-016
  -5.1799999999999985E-002     4.2336932812234434E-016
  -5.0699999999999995E-002     6.0869117696119008E-017
  -4.9599999999999991E-002    -5.8042276260066809E-016
  -4.8499999999999988E-002    -9.8332827764316096E-016
  -4.7399999999999998E-002    -5.8468503239125173E-016
  -4.6299999999999994E-002     6.3711743061747698E-016
  -4.5199999999999990E-002     1.8300403052895703E-015
  -4.4099999999999986E-002     1.7063927649899925E-015
  -4.2999999999999997E-002    -2.9845417654742086E-016
  -4.1899999999999993E-002    -3.0210753552804706E-015
  -4.0799999999999989E-002    -3.9015963853791802E-015
  -3.9699999999999985E-002    -1.0056771360773473E-015
  -3.8599999999999995E-002     4.5628089387307266E-015
  -3.7499999999999992E-002     8.2523252147763751E-015
  -3.6399999999999988E-002     5.1147927818855684E-015
  -3.5299999999999984E-002    -5.1869443188821106E-015
  -3.4199999999999994E-002    -1.5716266043566338E-014
  -3.3099999999999991E-002    -1.5833168448748693E-014
  -3.1999999999999987E-002    -2.2542299583515508E-016
  -3.0899999999999997E-002     2.3320387436995098E-014
  -2.9799999999999993E-002     3.5775242902651161E-014
  -2.8699999999999989E-002     2.0565272168581242E-014
  -2.7599999999999986E-002    -1.9559822037333759E-014
  -2.6499999999999996E-002    -5.7674168446684299E-014
  -2.5399999999999992E-002    -5.8995058729686967E-014
  -2.4299999999999988E-002    -1.0315492492314615E-014
  -2.3199999999999985E-002     6.0918426607412673E-014
  -2.2099999999999995E-002     9.9244749788077180E-014
  -2.0999999999999991E-002     6.3517672566938688E-014
  -1.9899999999999987E-002    -3.1882286253333975E-014
  -1.8799999999999983E-002    -1.1585998545109166E-013
  -1.7699999999999994E-002    -1.1169181763281619E-013
  -1.6599999999999990E-002    -6.6575963797064434E-015
  -1.5499999999999986E-002     1.2034383906067703E-013
  -1.4399999999999996E-002     1.5048319578284119E-013
  -1.3299999999999992E-002     2.8328954240481978E-014
  -1.2199999999999989E-002    -1.6706708445054369E-013
  -1.1099999999999985E-002    -2.5927862829823456E-013
  -9.9999999999999950E-003    -1.1451478871063459E-013
  -8.8999999999999913E-003     2.1802457300483524E-013
  -7.7999999999999875E-003     4.9501884796104845E-013
  -6.6999999999999837E-003     4.4164078318899291E-013
  -5.5999999999999939E-003    -1.3328869800412202E-014
  -4.4999999999999901E-003    -6.1963514831273048E-013
  -3.3999999999999864E-003    -9.3448447764654663E-013
  -2.2999999999999826E-003    -6.4168397158337331E-013
  -1.1999999999999927E-003     1.6914379239677674E-013
  -9.9999999999988987E-005     1.0015668849838733E-012
   1.0000000000000148E-003     1.2753963466935470E-012
   2.1000000000000185E-003     7.5855576160688276E-013
   3.2000000000000084E-003    -2.2637485419182979E-013
   4.3000000000000121E-003    -1.0120085108464294E-012
   5.4000000000000159E-003    -1.0840845365497898E-012
   6.5000000000000058E-003    -4.8848474093823868E-013
   7.6000000000000234E-003     1.9632070220789583E-013
   8.7000000000000133E-003     3.3944928031631738E-013
   9.8000000000000032E-003    -1.7052554030297373E-013
   1.0900000000000021E-002    -7.4651650963306060E-013
   1.2000000000000011E-002    -5.3479486464280690E-013
   1.3100000000000001E-002     8.1121047379451028E-013
   1.4200000000000018E-002     2.6217782285453683E-012
   1.5300000000000008E-002     3.4640059917712129E-012
   1.6400000000000026E-002     2.1204487818393680E-012
   1.7500000000000016E-002    -1.3411985281056027E-012
   1.8600000000000005E-002    -5.2402067060586255E-012
   1.9700000000000023E-002    -7.1097403138431492E-012
   2.0800000000000013E-002    -5.2802848898858556E-012
   2.1900000000000003E-002    -1.7973662380481314E-013
   2.3000000000000020E-002     5.6447212355703602E-012
   2.4100000000000010E-002     8.9753109458468039E-012
   2.5200000000000000E-002     7.9727691462694317E-012
   2.6300000000000018E-002     3.4070990386630973E-012
   2.7400000000000008E-002    -1.8884321190126840E-012
   2.8500000000000025E-002    -5.0455698646922897E-012
   2.9600000000000015E-002    -5.2060543376253321E-012
   3.0700000000000005E-002    -3.9716042954385244E-012
   3.1800000000000023E-002    -3.7866381037698904E-012
   3.2900000000000013E-002    -5.4569677769567004E-012
   3.4000000000000002E-002    -6.9075652316119562E-012
   3.5100000000000020E-002    -4.5304289833514311E-012
   3.6200000000000010E-002     3.5624146861590322E-012
   3.7300000000000028E-002     1.4872417533617899E-011
   3.8400000000000017E-002     2.2931342588683457E-011
   3.9500000000000007E-002     2.1189222251805084E-011
   4.0600000000000025E-002     7.9512386258473455E-012
   4.1700000000000015E-002    -1.1349809980742975E-011
   4.2800000000000005E-002    -2.6741730357882076E-011
   4.3900000000000022E-002    -2.9874436258126025E-011
   4.5000000000000012E-002    -1.9571596079903664E-011
   4.6100000000000002E-002    -2.6562868658125405E-012
   4.7200000000000020E-002     1.0796267525814418E-011
   4.8300000000000010E-002     1.4458035463293939E-011
   4.9400000000000027E-002     9.8237824125435580E-012
   5.0500000000000017E-002     4.2575973129010958E-012
   5.1600000000000007E-002     4.5036292403710654E-012
   5.2700000000000025E-002     1.0790738962096480E-011
   5.3800000000000014E-002     1.6400297786489659E-011
   5.4900000000000004E-002     1.3391105932458736E-011
   5.6000000000000022E-002     1.6236643106404269E-013
   5.7100000000000012E-002    -1.5390144020299701E-011
   5.8200000000000002E-002    -2.0458129981748563E-011
   5.9300000000000019E-002    -7.1343876986706967E-012
   6.0400000000000009E-002     1.9526325001351097E-011
   6.1500000000000027E-002     4.1718042215199702E-011
   6.2600000000000017E-002     3.8406958169368011E-011
   6.3700000000000007E-002    -1.5960909894099928E-012
   6.4800000000000024E-002    -7.1946983093429395E-011
   6.5900000000000014E-002    -1.5227966110309410E-010
   6.7000000000000004E-002    -2.2112088549075537E-010
   6.8100000000000022E-002    -2.6956370469122248E-010
   6.9200000000000012E-002    -3.0610727841384744E-010
   7.0300000000000029E-002    -3.4919278579792490E-010
   7.1400000000000019E-002    -4.1311301601787420E-010
   7.2500000000000009E-002    -4.9841031302122474E-010
   7.3600000000000027E-002    -5.9505006477778011E-010
   7.4700000000000016E-002    -6.9696415305742221E-010
   7.5800000000000006E-002    -8.1694978559809783E-010
   7.6900000000000024E-002    -9.8908337076153430E-010
   7.8000000000000014E-002    -1.2541800931131775E-009
   7.9100000000000004E-002    -1.6369453570419523E-009
   8.0200000000000021E-002    -2.1314261466898188E-009
   8.1300000000000011E-002    -2.7072282193785213E-009
   8.2400000000000029E-002    -3.3346414518575784E-009
   8.3500000000000019E-002    -4.0125023303971830E-009
   8.4600000000000009E-002    -4.7794435076298214E-009
   8.5700000000000026E-002    -5.7004658771120376E-009
   8.6800000000000016E-002    -6.8387175922168808E-009
   8.7900000000000006E-002    -8.2335018802837112E-009
   8.9000000000000024E-002    -9.9010186715986492E-009
   9.0100000000000013E-002    -1.1857050452590556E-008
   9.1200000000000003E-002    -1.4143759052842597E-008
   9.2300000000000021E-002    -1.6839264205259497E-008
   9.3400000000000011E-002    -2.0041627024625086E-008
   9.4500000000000028E-002    -2.3838865104153228E-008
   9.5600000000000018E-002    -2.8288125619724269E-008
   9.6700000000000008E-002    -3.3421425627011558E-008
   9.7800000000000026E-002    -3.9275935392879546E-008
   9.8900000000000016E-002    -4.5928299385877835E-008
  0.10000000000000001         -5.3508582453787312E-008
  0.10110000000000002         -6.2183381999147969E-008
  0.10220000000000001         -7.2119469507470058E-008
  0.10330000000000003         -8.3453429056135064E-008
  0.10440000000000002         -9.6288481188366859E-008
  0.10550000000000001         -1.1072021521840725E-007
  0.10660000000000003         -1.2687149819612387E-007
  0.10770000000000002         -1.4490932187527505E-007
  0.10880000000000001         -1.6502856681199773E-007
  0.10990000000000003         -1.8741154406143323E-007
  0.11100000000000002         -2.1219081247636495E-007
  0.11210000000000001         -2.3944218696669850E-007
  0.11320000000000002         -2.6921350126940524E-007
  0.11430000000000001         -3.0156775210343767E-007
  0.11540000000000003         -3.3660620601949631E-007
  0.11650000000000002         -3.7444957001753210E-007
  0.11760000000000001         -4.1518472926327377E-007
  0.11870000000000003         -4.5881122900937044E-007
  0.11980000000000002         -5.0522305627964670E-007
  0.12090000000000001         -5.5423606681870297E-007
  0.12200000000000003         -6.0563695569726406E-007
  0.12310000000000001         -6.5921420855374890E-007
  0.12420000000000003         -7.1474175911134807E-007
  0.12530000000000002         -7.7192476055643056E-007
  0.12640000000000001         -8.3034399267489789E-007
  0.12750000000000003         -8.8943892251336365E-007
  0.12860000000000002         -9.4853965038055321E-007
  0.12970000000000001         -1.0069221616504365E-006
  0.13080000000000003         -1.0638439107424347E-006
  0.13190000000000002         -1.1185333050889312E-006
  0.13300000000000001         -1.1701421271936852E-006
  0.13410000000000000         -1.2177002872704179E-006
  0.13520000000000004         -1.2601100252140895E-006
  0.13630000000000003         -1.2961885431650444E-006
  0.13740000000000002         -1.3247348533695913E-006
  0.13850000000000001         -1.3445807098833029E-006
  0.13960000000000000         -1.3545998172048712E-006
  0.14070000000000005         -1.3536827054849709E-006
  0.14180000000000004         -1.3407086498773424E-006
  0.14290000000000003         -1.3145489674570854E-006
  0.14400000000000002         -1.2741129467030987E-006
  0.14510000000000001         -1.2184199249531957E-006
  0.14620000000000000         -1.1466607929833117E-006
  0.14730000000000004         -1.0582215281829122E-006
  0.14840000000000003         -9.5266750577138737E-007
  0.14950000000000002         -8.2971638448725571E-007
  0.15060000000000001         -6.8923219487260212E-007
  0.15170000000000000         -5.3126552757021273E-007
  0.15280000000000005         -3.5612396231954335E-007
  0.15390000000000004         -1.6443713946046046E-007
  0.15500000000000003          4.2822449586310540E-008
  0.15610000000000002          2.6437257361067168E-007
  0.15720000000000001          4.9868106088979403E-007
  0.15830000000000000          7.4400844596311799E-007
  0.15940000000000004          9.9840463008149527E-007
  0.16050000000000003          1.2596710803336464E-006
  0.16160000000000002          1.5253303899953607E-006
  0.16270000000000001          1.7926446389537887E-006
  0.16380000000000000          2.0586874143191380E-006
  0.16490000000000005          2.3204356693895534E-006
  0.16600000000000004          2.5748356620169943E-006
  0.16710000000000003          2.8188217129354598E-006
  0.16820000000000002          3.0493104077322641E-006
  0.16930000000000001          3.2632112834107829E-006
  0.17040000000000000          3.4574834444356384E-006
  0.17150000000000004          3.6292319691710873E-006
  0.17260000000000003          3.7758074995508650E-006
  0.17370000000000002          3.8948696783336345E-006
  0.17480000000000001          3.9844053389970213E-006
  0.17590000000000000          4.0427248677588068E-006
  0.17700000000000005          4.0684653868083842E-006
  0.17810000000000004          4.0606223592476454E-006
  0.17920000000000003          4.0185955185734201E-006
  0.18030000000000002          3.9422407098754775E-006
  0.18140000000000001          3.8318976294249296E-006
  0.18250000000000000          3.6883866414427757E-006
  0.18360000000000004          3.5129826301272260E-006
  0.18470000000000003          3.3073765735025518E-006
  0.18580000000000002          3.0736364351469092E-006
  0.18690000000000001          2.8141826078353915E-006
  0.18800000000000000          2.5317715426353971E-006
  0.18910000000000005          2.2294761947705410E-006
  0.19020000000000004          1.9106475974695059E-006
  0.19130000000000003          1.5788483551659738E-006
  0.19240000000000002          1.2377684015518753E-006
  0.19350000000000001          8.9114615775542916E-007
  0.19460000000000005          5.4271453109322465E-007
  0.19570000000000004          1.9616965118984808E-007
  0.19680000000000003         -1.4485809174402675E-007
  0.19790000000000002         -4.7685443860245869E-007
  0.19900000000000001         -7.9649561257610912E-007
  0.20010000000000000         -1.1007240345861646E-006
  0.20120000000000005         -1.3867982033843873E-006
  0.20230000000000004         -1.6523052863703924E-006
  0.20340000000000003         -1.8951582205772866E-006
  0.20450000000000002         -2.1136038412805647E-006
  0.20560000000000000         -2.3062550553731853E-006
  0.20670000000000005         -2.4721302906982601E-006
  0.20780000000000004         -2.6106683890247950E-006
  0.20890000000000003         -2.7217060960538220E-006
