 -0.12000000000000000          0.0000000000000000
 -0.11889999999999999          0.0000000000000000
 -0.11780000000000000          0.0000000000000000
 -0.11670000000000000          5.0944589258944406E-013
 -0.11559999999999999          2.5932402926420739E-012
 -0.11449999999999999          5.1103986493938880E-012
 -0.11340000000000000          1.5143464824132757E-012
 -0.11230000000000000         -1.6499156207938626E-011
 -0.11119999999999999         -4.7149957549397215E-011
 -0.11009999999999999         -7.0611821945121278E-011
 -0.10900000000000000         -5.8740144692759344E-011
 -0.10790000000000000          2.2888676631110938E-012
 -0.10679999999999999          9.9271715847670805E-011
 -0.10569999999999999          2.0207593931509393E-010
 -0.10460000000000000          2.7901692067899830E-010
 -0.10349999999999999          2.9186592032104386E-010
 -0.10239999999999999          1.8048566807760125E-010
 -0.10130000000000000         -1.1640181873939781E-010
 -0.10020000000000000         -5.8497373611743342E-010
  -9.9099999999999994E-002    -1.0679286344128514E-009
  -9.7999999999999990E-002    -1.3042530389029139E-009
  -9.6899999999999986E-002    -1.0876805012216550E-009
  -9.5799999999999996E-002    -4.0773109888370129E-010
  -9.4699999999999993E-002     5.8316801387903183E-010
  -9.3599999999999989E-002     1.7460618506603964E-009
  -9.2499999999999999E-002     3.0285414176489667E-009
  -9.1399999999999995E-002     4.2366630204071498E-009
  -9.0299999999999991E-002     4.6777177686863070E-009
  -8.9200000000000002E-002     3.1821749679750155E-009
  -8.8099999999999984E-002    -1.1471082972391855E-009
  -8.6999999999999994E-002    -7.7950819132865945E-009
  -8.5899999999999990E-002    -1.4259744496314397E-008
  -8.4799999999999986E-002    -1.6844015959804892E-008
  -8.3699999999999997E-002    -1.2631002022089888E-008
  -8.2599999999999993E-002    -1.4386103419639085E-009
  -8.1499999999999989E-002     1.3561110456805636E-008
  -8.0399999999999999E-002     2.6938808517229518E-008
  -7.9299999999999995E-002     3.3088191742081108E-008
  -7.8199999999999992E-002     2.8243286820384128E-008
  -7.7100000000000002E-002     1.1917305364761432E-008
  -7.5999999999999984E-002    -1.2273485339164836E-008
  -7.4899999999999994E-002    -3.6715942286491554E-008
  -7.3799999999999991E-002    -5.1684594382095383E-008
  -7.2699999999999987E-002    -4.9374044408523332E-008
  -7.1599999999999997E-002    -2.8573541754894904E-008
  -7.0499999999999993E-002     3.2801352745082113E-009
  -6.9399999999999989E-002     3.3292526069317319E-008
  -6.8300000000000000E-002     5.0595332368175150E-008
  -6.7199999999999996E-002     5.3208598416176756E-008
  -6.6099999999999992E-002     4.8795609330909429E-008
  -6.5000000000000002E-002     4.8049727752186300E-008
  -6.3899999999999985E-002     5.5503779350374316E-008
  -6.2799999999999995E-002     6.5219865064136684E-008
  -6.1699999999999991E-002     6.5341907884430839E-008
  -6.0599999999999994E-002     4.8429853904963238E-008
  -5.9499999999999990E-002     1.9725124644764946E-008
  -5.8399999999999994E-002    -2.9947297974786125E-009
  -5.7299999999999990E-002     2.0027635105890340E-009
  -5.6199999999999986E-002     4.9110870037338827E-008
  -5.5099999999999996E-002     1.3803324350192270E-007
  -5.3999999999999992E-002     2.5356385435770790E-007
  -5.2899999999999989E-002     3.7159551879994979E-007
  -5.1799999999999985E-002     4.6861526925567887E-007
  -5.0699999999999995E-002     5.3183396175882081E-007
  -4.9599999999999991E-002     5.6666044656594750E-007
  -4.8499999999999988E-002     5.9742120583905489E-007
  -4.7399999999999998E-002     6.5862428755281144E-007
  -4.6299999999999994E-002     7.7930690167704597E-007
  -4.5199999999999990E-002     9.6917642622429412E-007
  -4.4099999999999986E-002     1.2163027349743061E-006
  -4.2999999999999997E-002     1.4989618648542091E-006
  -4.1899999999999993E-002     1.8033849755738629E-006
  -4.0799999999999989E-002     2.1340256353141740E-006
  -3.9699999999999985E-002     2.5090846520470222E-006
  -3.8599999999999995E-002     2.9467755666701123E-006
  -3.7499999999999992E-002     3.4556696846266277E-006
  -3.6399999999999988E-002     4.0378286030318122E-006
  -3.5299999999999984E-002     4.7005023589008488E-006
  -3.4199999999999994E-002     5.4635470405628439E-006
  -3.3099999999999991E-002     6.3540746850776486E-006
  -3.1999999999999987E-002     7.3930827966250945E-006
  -3.0899999999999997E-002     8.5875381046207622E-006
  -2.9799999999999993E-002     9.9363969638943672E-006
  -2.8699999999999989E-002     1.1444971278251614E-005
  -2.7599999999999986E-002     1.3133088941685855E-005
  -2.6499999999999996E-002     1.5028122106741648E-005
  -2.5399999999999992E-002     1.7149026461993344E-005
  -2.4299999999999988E-002     1.9496896129567176E-005
  -2.3199999999999985E-002     2.2061563868192025E-005
  -2.2099999999999995E-002     2.4838202079990879E-005
  -2.0999999999999991E-002     2.7838281312142499E-005
  -1.9899999999999987E-002     3.1085022783372551E-005
  -1.8799999999999983E-002     3.4598528145579621E-005
  -1.7699999999999994E-002     3.8384587242035195E-005
  -1.6599999999999990E-002     4.2435047362232581E-005
  -1.5499999999999986E-002     4.6734032366657630E-005
  -1.4399999999999996E-002     5.1258524763397872E-005
  -1.3299999999999992E-002     5.5970212997635826E-005
  -1.2199999999999989E-002     6.0808335547335446E-005
  -1.1099999999999985E-002     6.5695843659341335E-005
  -9.9999999999999950E-003     7.0558264269493520E-005
  -8.8999999999999913E-003     7.5338888564147055E-005
  -7.7999999999999875E-003     7.9993071267381310E-005
  -6.6999999999999837E-003     8.4461476944852620E-005
  -5.5999999999999939E-003     8.8641951151657850E-005
  -4.4999999999999901E-003     9.2382768343668431E-005
  -3.3999999999999864E-003     9.5502065960317850E-005
  -2.2999999999999826E-003     9.7816002380568534E-005
  -1.1999999999999927E-003     9.9152319307904691E-005
  -9.9999999999988987E-005     9.9341479653958231E-005
   1.0000000000000148E-003     9.8198266641702503E-005
   2.1000000000000185E-003     9.5513409178238362E-005
   3.2000000000000084E-003     9.1062138380948454E-005
   4.3000000000000121E-003     8.4618935943581164E-005
   5.4000000000000159E-003     7.5963944254908711E-005
   6.5000000000000058E-003     6.4879219280555844E-005
   7.6000000000000234E-003     5.1145696488674730E-005
   8.7000000000000133E-003     3.4551765565993264E-005
   9.8000000000000032E-003     1.4910835488990415E-005
   1.0900000000000021E-002    -7.9259743870352395E-006
   1.2000000000000011E-002    -3.4071585105266422E-005
   1.3100000000000001E-002    -6.3613137172069401E-005
   1.4200000000000018E-002    -9.6613817731849849E-005
   1.5300000000000008E-002    -1.3309674977790564E-004
   1.6400000000000026E-002    -1.7301872139796615E-004
   1.7500000000000016E-002    -2.1625138469971716E-004
   1.8600000000000005E-002    -2.6257993886247277E-004
   1.9700000000000023E-002    -3.1171174487099051E-004
   2.0800000000000013E-002    -3.6327910493128002E-004
   2.1900000000000003E-002    -4.1683000745251775E-004
   2.3000000000000020E-002    -4.7181683476082981E-004
   2.4100000000000010E-002    -5.2759703248739243E-004
   2.5200000000000000E-002    -5.8344745775684714E-004
   2.6300000000000018E-002    -6.3857773784548044E-004
   2.7400000000000008E-002    -6.9212767994031310E-004
   2.8500000000000025E-002    -7.4315158417448401E-004
   2.9600000000000015E-002    -7.9060916323214769E-004
   3.0700000000000005E-002    -8.3338137483224273E-004
   3.1800000000000023E-002    -8.7030889699235559E-004
   3.2900000000000013E-002    -9.0023165103048086E-004
   3.4000000000000002E-002    -9.2200888320803642E-004
   3.5100000000000020E-002    -9.3452160945162177E-004
   3.6200000000000010E-002    -9.3667767941951752E-004
   3.7300000000000028E-002    -9.2743686400353909E-004
   3.8400000000000017E-002    -9.0585381258279085E-004
   3.9500000000000007E-002    -8.7111670291051269E-004
   4.0600000000000025E-002    -8.2256586756557226E-004
   4.1700000000000015E-002    -7.5970141915604472E-004
   4.2800000000000005E-002    -6.8219861714169383E-004
   4.3900000000000022E-002    -5.8994261780753732E-004
   4.5000000000000012E-002    -4.8307047109119594E-004
   4.6100000000000002E-002    -3.6199629539623857E-004
   4.7200000000000020E-002    -2.2740670829080045E-004
   4.8300000000000010E-002    -8.0241901741828769E-005
   4.9400000000000027E-002     7.8311415563803166E-005
   5.0500000000000017E-002     2.4680493515916169E-004
   5.1600000000000007E-002     4.2350715375505388E-004
   5.2700000000000025E-002     6.0640694573521614E-004
   5.3800000000000014E-002     7.9325074329972267E-004
   5.4900000000000004E-002     9.8159501794725657E-004
   5.6000000000000022E-002     1.1688518570736051E-003
   5.7100000000000012E-002     1.3523133238777518E-003
   5.8200000000000002E-002     1.5291740419343114E-003
   5.9300000000000019E-002     1.6965765971690416E-003
   6.0400000000000009E-002     1.8516808049753308E-003
   6.1500000000000027E-002     1.9917374011129141E-003
   6.2600000000000017E-002     2.1141392644494772E-003
   6.3700000000000007E-002     2.2164487745612860E-003
   6.4800000000000024E-002     2.2964284289628267E-003
   6.5900000000000014E-002     2.3520933464169502E-003
   6.7000000000000004E-002     2.3817867040634155E-003
   6.8100000000000022E-002     2.3842498194426298E-003
   6.9200000000000012E-002     2.3586582392454147E-003
   7.0300000000000029E-002     2.3046245332807302E-003
   7.1400000000000019E-002     2.2221945691853762E-003
   7.2500000000000009E-002     2.1118589211255312E-003
   7.3600000000000027E-002     1.9745747558772564E-003
   7.4700000000000016E-002     1.8117768922820687E-003
   7.5800000000000006E-002     1.6253538196906447E-003
   7.6900000000000024E-002     1.4175983378663659E-003
   7.8000000000000014E-002     1.1911562178283930E-003
   7.9100000000000004E-002     9.4899022951722145E-004
   8.0200000000000021E-002     6.9435109617188573E-004
   8.1300000000000011E-002     4.3073014239780605E-004
   8.2400000000000029E-002     1.6178336227312684E-004
   8.3500000000000019E-002    -1.0875898442463949E-004
   8.4600000000000009E-002    -3.7716768565587699E-004
   8.5700000000000026E-002    -6.3976645469665527E-004
   8.6800000000000016E-002    -8.9297746308147907E-004
   8.7900000000000006E-002    -1.1333811562508345E-003
   8.9000000000000024E-002    -1.3577990466728806E-003
   9.0100000000000013E-002    -1.5633720904588699E-003
   9.1200000000000003E-002    -1.7476107459515333E-003
   9.2300000000000021E-002    -1.9084152299910784E-003
   9.3400000000000011E-002    -2.0440842490643263E-003
   9.4500000000000028E-002    -2.1533379331231117E-003
   9.5600000000000018E-002    -2.2353539243340492E-003
   9.6700000000000008E-002    -2.2897897288203239E-003
   9.7800000000000026E-002    -2.3167699109762907E-003
   9.8900000000000016E-002    -2.3168423213064671E-003
  0.10000000000000001         -2.2909340914338827E-003
  0.10110000000000002         -2.2403283510357141E-003
  0.10220000000000001         -2.1666546817868948E-003
  0.10330000000000003         -2.0718665327876806E-003
  0.10440000000000002         -1.9581846427172422E-003
  0.10550000000000001         -1.8280189251527190E-003
  0.10660000000000003         -1.6838993178680539E-003
  0.10770000000000002         -1.5284338733181357E-003
  0.10880000000000001         -1.3642837293446064E-003
  0.10990000000000003         -1.1941250413656235E-003
  0.11100000000000002         -1.0205834405496716E-003
  0.11210000000000001         -8.4615993546321988E-004
  0.11320000000000002         -6.7318178480491042E-004
  0.11430000000000001         -5.0379103049635887E-004
  0.11540000000000003         -3.3995104604400694E-004
  0.11650000000000002         -1.8343716510571539E-004
  0.11760000000000001         -3.5800498153548688E-005
  0.11870000000000003          1.0167231084778905E-004
  0.11980000000000002          2.2797207930125296E-004
  0.12090000000000001          3.4234535996802151E-004
  0.12200000000000003          4.4426161912269890E-004
  0.12310000000000001          5.3339678561314940E-004
  0.12420000000000003          6.0964003205299377E-004
  0.12530000000000002          6.7310378653928638E-004
  0.12640000000000001          7.2410615393891931E-004
  0.12750000000000003          7.6312420424073935E-004
  0.12860000000000002          7.9074635868892074E-004
  0.12970000000000001          8.0765178427100182E-004
  0.13080000000000003          8.1461400259286165E-004
  0.13190000000000002          8.1250135554000735E-004
  0.13300000000000001          8.0225005513057113E-004
  0.13410000000000000          7.8481418313458562E-004
  0.13520000000000004          7.6112389797344804E-004
  0.13630000000000003          7.3207536479458213E-004
  0.13740000000000002          6.9854647153988481E-004
  0.13850000000000001          6.6140899434685707E-004
  0.13960000000000000          6.2151451129466295E-004
  0.14070000000000005          5.7966099120676517E-004
  0.14180000000000004          5.3656823001801968E-004
  0.14290000000000003          4.9287930596619844E-004
  0.14400000000000002          4.4917801278643310E-004
  0.14510000000000001          4.0599706699140370E-004
  0.14620000000000000          3.6380486562848091E-004
  0.14730000000000004          3.2298464793711901E-004
  0.14840000000000003          2.8383091557770967E-004
  0.14950000000000002          2.4657126050442457E-004
  0.15060000000000001          2.1139583259355277E-004
  0.15170000000000000          1.7846889386419207E-004
  0.15280000000000005          1.4791596913710237E-004
  0.15390000000000004          1.1980497947661206E-004
  0.15500000000000003          9.4144757895264775E-005
  0.15610000000000002          7.0904563472140580E-005
  0.15720000000000001          5.0036152970278636E-005
  0.15830000000000000          3.1478557502850890E-005
  0.15940000000000004          1.5146307305258233E-005
  0.16050000000000003          9.2041364041506313E-007
  0.16160000000000002         -1.1342030120431446E-005
  0.16270000000000001         -2.1785115677630529E-005
  0.16380000000000000         -3.0539686122210696E-005
  0.16490000000000005         -3.7730384065071121E-005
  0.16600000000000004         -4.3493924749782309E-005
  0.16710000000000003         -4.7985733544919640E-005
  0.16820000000000002         -5.1364135288167745E-005
  0.16930000000000001         -5.3765856137033552E-005
  0.17040000000000000         -5.5296939535764977E-005
  0.17150000000000004         -5.6047825637506321E-005
  0.17260000000000003         -5.6116721680155024E-005
  0.17370000000000002         -5.5617107136640698E-005
  0.17480000000000001         -5.4662483307765797E-005
  0.17590000000000000         -5.3345644118962809E-005
  0.17700000000000005         -5.1734288717852905E-005
  0.17810000000000004         -4.9885955377249047E-005
  0.17920000000000003         -4.7863581130513921E-005
  0.18030000000000002         -4.5732504077022895E-005
  0.18140000000000001         -4.3541265767998993E-005
  0.18250000000000000         -4.1308358049718663E-005
  0.18360000000000004         -3.9032765926094726E-005
  0.18470000000000003         -3.6721310607390478E-005
  0.18580000000000002         -3.4406799386488274E-005
  0.18690000000000001         -3.2138839742401615E-005
  0.18800000000000000         -2.9956478101667017E-005
  0.18910000000000005         -2.7870082703884691E-005
  0.19020000000000004         -2.5869920136756264E-005
  0.19130000000000003         -2.3950975446496159E-005
  0.19240000000000002         -2.2127340344013646E-005
  0.19350000000000001         -2.0421559383976273E-005
  0.19460000000000005         -1.8841845303541049E-005
  0.19570000000000004         -1.7373298760503531E-005
  0.19680000000000003         -1.5993908164091408E-005
  0.19790000000000002         -1.4698931408929639E-005
  0.19900000000000001         -1.3507325093087275E-005
  0.20010000000000000         -1.2442339539120439E-005
  0.20120000000000005         -1.1505856491567101E-005
  0.20230000000000004         -1.0673148608475458E-005
  0.20340000000000003         -9.9138405857956968E-006
  0.20450000000000002         -9.2175705503905192E-006
  0.20560000000000000         -8.5979099821997806E-006
  0.20670000000000005         -8.0707150118541904E-006
  0.20780000000000004         -7.6294163591228426E-006
  0.20890000000000003         -7.2425218604621477E-006
