 -0.12000000000000000          0.0000000000000000
 -0.11889999999999999          0.0000000000000000
 -0.11780000000000000          0.0000000000000000
 -0.11670000000000000          0.0000000000000000
 -0.11559999999999999          0.0000000000000000
 -0.11449999999999999          0.0000000000000000
 -0.11340000000000000          0.0000000000000000
 -0.11230000000000000          0.0000000000000000
 -0.11119999999999999          0.0000000000000000
 -0.11009999999999999          0.0000000000000000
 -0.10900000000000000          0.0000000000000000
 -0.10790000000000000          3.8341639027776449E-029
 -0.10679999999999999          7.5211454706809222E-028
 -0.10569999999999999          6.2091241849945839E-027
 -0.10460000000000000          2.7987281151140921E-026
 -0.10349999999999999          6.4070173386402612E-026
 -0.10239999999999999         -2.4575644166078662E-026
 -0.10130000000000000         -7.5255515978002518E-025
 -0.10020000000000000         -2.8411210071226035E-024
  -9.9099999999999994E-002    -5.1310641109063809E-024
  -9.7999999999999990E-002     3.8578276215224687E-025
  -9.6899999999999986E-002     3.0977362368565956E-023
  -9.5799999999999996E-002     9.5142582647210253E-023
  -9.4699999999999993E-002     1.3596200717214150E-022
  -9.3599999999999989E-002    -3.1924563434682929E-023
  -9.2499999999999999E-002    -6.4871296227205243E-022
  -9.1399999999999995E-002    -1.6047599737922631E-021
  -9.0299999999999991E-002    -1.7864395122696128E-021
  -8.9200000000000002E-002     1.0142268285665811E-021
  -8.8099999999999984E-002     8.2186969296778243E-021
  -8.6999999999999994E-002     1.6238201659269490E-020
  -8.5899999999999990E-002     1.3245231174092490E-020
  -8.4799999999999986E-002    -1.5579324836389728E-020
  -8.3699999999999997E-002    -6.9064088151922576E-020
  -8.2599999999999993E-002    -1.0684283551920010E-019
  -8.1499999999999989E-002    -5.2508459163760129E-020
  -8.0399999999999999E-002     1.4469574479827184E-019
  -7.9299999999999995E-002     4.0422884479030980E-019
  -7.8199999999999992E-002     4.6355015411833846E-019
  -7.7100000000000002E-002     2.0649859596395959E-020
  -7.5999999999999984E-002    -9.0877081304311439E-019
  -7.4899999999999994E-002    -1.6754518491843199E-018
  -7.3799999999999991E-002    -1.1908443650073721E-018
  -7.2699999999999987E-002     1.1168538863951164E-018
  -7.1599999999999997E-002     4.1039850580588610E-018
  -7.0499999999999993E-002     4.7904618348263124E-018
  -6.9399999999999989E-002     4.2600995788490299E-019
  -6.8300000000000000E-002    -7.9763322476426599E-018
  -6.7199999999999996E-002    -1.3794911755062156E-017
  -6.6099999999999992E-002    -8.2193876901127914E-018
  -6.5000000000000002E-002     1.1165689226740919E-017
  -6.3899999999999985E-002     3.2989895122525668E-017
  -6.2799999999999995E-002     3.5261746674902558E-017
  -6.1699999999999991E-002     2.3833373009755625E-018
  -6.0599999999999994E-002    -5.4455380910786995E-017
  -5.9499999999999990E-002    -9.3908359105267139E-017
  -5.8399999999999994E-002    -7.0761046386840545E-017
  -5.7299999999999990E-002     2.1789604930761656E-017
  -5.6199999999999986E-002     1.3157996414594493E-016
  -5.5099999999999996E-002     1.7893863501811693E-016
  -5.3999999999999992E-002     1.2467058404629360E-016
  -5.2899999999999989E-002     1.0879327570481186E-017
  -5.1799999999999985E-002    -8.2156174008807747E-017
  -5.0699999999999995E-002    -1.3840268218718032E-016
  -4.9599999999999991E-002    -2.5108798825784198E-016
  -4.8499999999999988E-002    -5.0447281223128240E-016
  -4.7399999999999998E-002    -7.4863217685970261E-016
  -4.6299999999999994E-002    -5.2064918276014901E-016
  -4.5199999999999990E-002     6.3512817374085026E-016
  -4.4099999999999986E-002     2.5248336915932503E-015
  -4.2999999999999997E-002     3.8855163119085045E-015
  -4.1899999999999993E-002     2.8653570300154769E-015
  -4.0799999999999989E-002    -1.4839468782061995E-015
  -3.9699999999999985E-002    -7.6270844566288243E-015
  -3.8599999999999995E-002    -1.1440509794396515E-014
  -3.7499999999999992E-002    -8.4998417944912377E-015
  -3.6399999999999988E-002     2.2157428988106836E-015
  -3.5299999999999984E-002     1.5967816194176025E-014
  -3.4199999999999994E-002     2.3893520422293459E-014
  -3.3099999999999991E-002     1.8615136355656405E-014
  -3.1999999999999987E-002     2.6404923347716808E-016
  -3.0899999999999997E-002    -2.2007213624141916E-014
  -2.9799999999999993E-002    -3.5221401939759464E-014
  -2.8699999999999989E-002    -3.1321211629072726E-014
  -2.7599999999999986E-002    -1.2705096103329296E-014
  -2.6499999999999996E-002     1.0260134654046810E-014
  -2.5399999999999992E-002     2.7803641347253806E-014
  -2.4299999999999988E-002     3.7509231154029751E-014
  -2.3199999999999985E-002     4.2388977798766408E-014
  -2.2099999999999995E-002     4.1817928514518293E-014
  -2.0999999999999991E-002     2.5622299421046435E-014
  -1.9899999999999987E-002    -1.8687779595278828E-014
  -1.8799999999999983E-002    -8.7407023893065761E-014
  -1.7699999999999994E-002    -1.4717181195510881E-013
  -1.6599999999999990E-002    -1.4537489593201280E-013
  -1.5499999999999986E-002    -4.6890612323980535E-014
  -1.4399999999999996E-002     1.2581507558874494E-013
  -1.3299999999999992E-002     2.8457379681878781E-013
  -1.2199999999999989E-002     3.1847929241740625E-013
  -1.1099999999999985E-002     1.6870496156746323E-013
  -9.9999999999999950E-003    -1.1578237012806886E-013
  -8.8999999999999913E-003    -3.8870528974374596E-013
  -7.7999999999999875E-003    -4.8720521974437991E-013
  -6.6999999999999837E-003    -3.3406616231981823E-013
  -5.5999999999999939E-003     8.1699978474679934E-015
  -4.4999999999999901E-003     3.7002269737823612E-013
  -3.3999999999999864E-003     5.7253241860996673E-013
  -2.2999999999999826E-003     5.2285676873167763E-013
  -1.1999999999999927E-003     2.4874899232432690E-013
  -9.9999999999988987E-005    -1.3656610564627414E-013
   1.0000000000000148E-003    -4.9749679202626407E-013
   2.1000000000000185E-003    -7.1800893139059574E-013
   3.2000000000000084E-003    -7.1039040535486597E-013
   4.3000000000000121E-003    -4.2106503830505182E-013
   5.4000000000000159E-003     1.3388805851759916E-013
   6.5000000000000058E-003     8.1458667935963014E-013
   7.6000000000000234E-003     1.3440677607348683E-012
   8.7000000000000133E-003     1.3945354203001581E-012
   9.8000000000000032E-003     7.6611406021193096E-013
   1.0900000000000021E-002    -4.3595048361197430E-013
   1.2000000000000011E-002    -1.7560958113019276E-012
   1.3100000000000001E-002    -2.5491718111392281E-012
   1.4200000000000018E-002    -2.2970206466077503E-012
   1.5300000000000008E-002    -9.1870413186645461E-013
   1.6400000000000026E-002     1.1101752113093499E-012
   1.7500000000000016E-002     2.9239041743345240E-012
   1.8600000000000005E-002     3.6599048444663218E-012
   1.9700000000000023E-002     2.8891741429837303E-012
   2.0800000000000013E-002     8.6097996137082800E-013
   2.1900000000000003E-002    -1.5759492235506434E-012
   2.3000000000000020E-002    -3.3516464343491537E-012
   2.4100000000000010E-002    -3.6732925728921728E-012
   2.5200000000000000E-002    -2.3995718606562022E-012
   2.6300000000000018E-002    -1.1028807397504489E-013
   2.7400000000000008E-002     2.1512960683700566E-012
   2.8500000000000025E-002     3.3251621942009812E-012
   2.9600000000000015E-002     2.7628413879626779E-012
   3.0700000000000005E-002     4.8156986211245201E-013
   3.1800000000000023E-002    -2.7982093638717620E-012
   3.2900000000000013E-002    -5.7983509486880802E-012
   3.4000000000000002E-002    -6.9862041499058058E-012
   3.5100000000000020E-002    -5.0476636759277937E-012
   3.6200000000000010E-002     4.9936151134272189E-013
   3.7300000000000028E-002     8.7402246898293789E-012
   3.8400000000000017E-002     1.7202763519241770E-011
   3.9500000000000007E-002     2.2424916090724167E-011
   4.0600000000000025E-002     2.1237577668697938E-011
   4.1700000000000015E-002     1.2244526573224057E-011
   4.2800000000000005E-002    -3.3379926427101747E-012
   4.3900000000000022E-002    -2.2134670832341108E-011
   4.5000000000000012E-002    -4.0321804922749394E-011
   4.6100000000000002E-002    -5.5761156109168653E-011
   4.7200000000000020E-002    -6.9361315302440829E-011
   4.8300000000000010E-002    -8.4847379122621192E-011
   4.9400000000000027E-002    -1.0704099412395252E-010
   5.0500000000000017E-002    -1.3963824541107783E-010
   5.1600000000000007E-002    -1.8375660715275188E-010
   5.2700000000000025E-002    -2.3804277993200174E-010
   5.3800000000000014E-002    -3.0022734298640330E-010
   5.4900000000000004E-002    -3.6925537627574556E-010
   5.6000000000000022E-002    -4.4693149181540548E-010
   5.7100000000000012E-002    -5.3841880953697796E-010
   5.8200000000000002E-002    -6.5159538875647627E-010
   5.9300000000000019E-002    -7.9579642875415857E-010
   6.0400000000000009E-002    -9.8060193298721288E-010
   6.1500000000000027E-002    -1.2151030182039335E-009
   6.2600000000000017E-002    -1.5077108450611831E-009
   6.3700000000000007E-002    -1.8663219858439106E-009
   6.4800000000000024E-002    -2.2986799130819691E-009
   6.5900000000000014E-002    -2.8130104912094112E-009
   6.7000000000000004E-002    -3.4191911524317220E-009
   6.8100000000000022E-002    -4.1306060793999677E-009
   6.9200000000000012E-002    -4.9663224643836656E-009
   7.0300000000000029E-002    -5.9526508167095926E-009
   7.1400000000000019E-002    -7.1229946385642506E-009
   7.2500000000000009E-002    -8.5155837936667922E-009
   7.3600000000000027E-002    -1.0169945774407552E-008
   7.4700000000000016E-002    -1.2124067971797103E-008
   7.5800000000000006E-002    -1.4414187177180793E-008
   7.6900000000000024E-002    -1.7077841363288826E-008
   7.8000000000000014E-002    -2.0158827496175036E-008
   7.9100000000000004E-002    -2.3711429264494654E-008
   8.0200000000000021E-002    -2.7801579705055701E-008
   8.1300000000000011E-002    -3.2504537728073046E-008
   8.2400000000000029E-002    -3.7900736771234733E-008
   8.3500000000000019E-002    -4.4072486105051212E-008
   8.4600000000000009E-002    -5.1103409504094088E-008
   8.5700000000000026E-002    -5.9080498715502472E-008
   8.6800000000000016E-002    -6.8096788652383111E-008
   8.7900000000000006E-002    -7.8252377022636210E-008
   8.9000000000000024E-002    -8.9652552048846701E-008
   9.0100000000000013E-002    -1.0240372461112202E-007
   9.1200000000000003E-002    -1.1660934262636147E-007
   9.2300000000000021E-002    -1.3236774520919425E-007
   9.3400000000000011E-002    -1.4977312901010009E-007
   9.4500000000000028E-002    -1.6891786458472779E-007
   9.5600000000000018E-002    -1.8989392458479415E-007
   9.6700000000000008E-002    -2.1279052475620119E-007
   9.7800000000000026E-002    -2.3768714640937105E-007
   9.8900000000000016E-002    -2.6464388724889432E-007
  0.10000000000000001         -2.9369306275839335E-007
  0.10110000000000002         -3.2483521295034734E-007
  0.10220000000000001         -3.5804083609036752E-007
  0.10330000000000003         -3.9325487932728720E-007
  0.10440000000000002         -4.3039904085162561E-007
  0.10550000000000001         -4.6936810349507141E-007
  0.10660000000000003         -5.1002024292756687E-007
  0.10770000000000002         -5.5216497685250943E-007
  0.10880000000000001         -5.9555469533734140E-007
  0.10990000000000003         -6.3988267129388987E-007
  0.11100000000000002         -6.8478794901238871E-007
  0.11210000000000001         -7.2986250643225503E-007
  0.11320000000000002         -7.7465602998927352E-007
  0.11430000000000001         -8.1867631251952844E-007
  0.11540000000000003         -8.6138578581085312E-007
  0.11650000000000002         -9.0219884896214353E-007
  0.11760000000000001         -9.4048158416626393E-007
  0.11870000000000003         -9.7555766842560843E-007
  0.11980000000000002         -1.0067184348372393E-006
  0.12090000000000001         -1.0332344118069159E-006
  0.12200000000000003         -1.0543675443841494E-006
  0.12310000000000001         -1.0693813692341791E-006
  0.12420000000000003         -1.0775490864034509E-006
  0.12530000000000002         -1.0781636774481740E-006
  0.12640000000000001         -1.0705505246733082E-006
  0.12750000000000003         -1.0540845778450603E-006
  0.12860000000000002         -1.0282099083269713E-006
  0.12970000000000001         -9.9245517048984766E-007
  0.13080000000000003         -9.4644423143108725E-007
  0.13190000000000002         -8.8990270796784898E-007
  0.13300000000000001         -8.2266552681176108E-007
  0.13410000000000000         -7.4468812272243667E-007
  0.13520000000000004         -6.5606269572526799E-007
  0.13630000000000003         -5.5703395673845080E-007
  0.13740000000000002         -4.4800981413573027E-007
  0.13850000000000001         -3.2956313589238562E-007
  0.13960000000000000         -2.0242649156898551E-007
  0.14070000000000005         -6.7484734245226718E-008
  0.14180000000000004          7.4231635949217889E-008
  0.14290000000000003          2.2155163037496095E-007
  0.14400000000000002          3.7317082046683936E-007
  0.14510000000000001          5.2766364433409763E-007
  0.14620000000000000          6.8350124138305546E-007
  0.14730000000000004          8.3907349335277104E-007
  0.14840000000000003          9.9271187536942307E-007
  0.14950000000000002          1.1427108574935119E-006
  0.15060000000000001          1.2873497325927019E-006
  0.15170000000000000          1.4249156947698793E-006
  0.15280000000000005          1.5537292483713827E-006
  0.15390000000000004          1.6721754718673765E-006
  0.15500000000000003          1.7787396018320578E-006
  0.15610000000000002          1.8720419348028372E-006
  0.15720000000000001          1.9508665900502820E-006
  0.15830000000000000          2.0141781078564236E-006
  0.15940000000000004          2.0611237232515123E-006
  0.16050000000000003          2.0910308649035869E-006
  0.16160000000000002          2.1034111341577955E-006
  0.16270000000000001          2.0979775854357285E-006
  0.16380000000000000          2.0746767859236570E-006
  0.16490000000000005          2.0337181467766641E-006
  0.16600000000000004          1.9755866560444701E-006
  0.16710000000000003          1.9010251435247483E-006
  0.16820000000000002          1.8109948314304347E-006
  0.16930000000000001          1.7066289501599385E-006
  0.17040000000000000          1.5891971543169348E-006
  0.17150000000000004          1.4600889244320570E-006
  0.17260000000000003          1.3208120890340069E-006
  0.17370000000000002          1.1729955531336600E-006
  0.17480000000000001          1.0183817948927754E-006
  0.17590000000000000          8.5880492406431586E-007
  0.17700000000000005          6.9615430220437702E-007
  0.17810000000000004          5.3232815844239667E-007
  0.17920000000000003          3.6918439150213089E-007
  0.18030000000000002          2.0849576287673699E-007
  0.18140000000000001          5.1918330967737347E-008
  0.18250000000000000         -9.9023324651170697E-008
  0.18360000000000004         -2.4293711931022699E-007
  0.18470000000000003         -3.7856079870834947E-007
  0.18580000000000002         -5.0476495516704745E-007
  0.18690000000000001         -6.2056426486378768E-007
  0.18800000000000000         -7.2513142868046998E-007
  0.18910000000000005         -8.1780603977676947E-007
  0.19020000000000004         -8.9809799419526826E-007
  0.19130000000000003         -9.6569056040607393E-007
  0.19240000000000002         -1.0204490763499052E-006
  0.19350000000000001         -1.0624280548654497E-006
  0.19460000000000005         -1.0918656698777340E-006
  0.19570000000000004         -1.1091543683505733E-006
  0.19680000000000003         -1.1147919849463506E-006
  0.19790000000000002         -1.1093342209278489E-006
  0.19900000000000001         -1.0933697467407910E-006
  0.20010000000000000         -1.0675227031242684E-006
  0.20120000000000005         -1.0324686172680231E-006
  0.20230000000000004         -9.8894327038578922E-007
  0.20340000000000003         -9.3773053322365740E-007
  0.20450000000000002         -8.7963576334004756E-007
  0.20560000000000000         -8.1545704233576544E-007
  0.20670000000000005         -7.4596255217329599E-007
  0.20780000000000004         -6.7186999785917578E-007
  0.20890000000000003         -5.9382375638961094E-007
