 -0.12000000000000000          0.0000000000000000
 -0.11889999999999999          0.0000000000000000
 -0.11780000000000000          0.0000000000000000
 -0.11670000000000000          0.0000000000000000
 -0.11559999999999999          0.0000000000000000
 -0.11449999999999999          0.0000000000000000
 -0.11340000000000000          0.0000000000000000
 -0.11230000000000000          0.0000000000000000
 -0.11119999999999999          0.0000000000000000
 -0.11009999999999999          0.0000000000000000
 -0.10900000000000000         -1.8070768352885892E-028
 -0.10790000000000000         -2.8202031584403831E-027
 -0.10679999999999999         -1.1006898402979024E-026
 -0.10569999999999999          2.2412552126851671E-026
 -0.10460000000000000          2.9520516136909137E-025
 -0.10349999999999999          6.8834819298227659E-025
 -0.10239999999999999         -1.4538311066694506E-024
 -0.10130000000000000         -1.1932183045767284E-023
 -0.10020000000000000         -2.2512741282859749E-023
  -9.9099999999999994E-002     3.2178245324583902E-023
  -9.7999999999999990E-002     2.5569433086817695E-022
  -9.6899999999999986E-002     4.8643657478565535E-022
  -9.5799999999999996E-002    -2.5259644253893783E-022
  -9.4699999999999993E-002    -3.3589940692122725E-021
  -9.3599999999999989E-002    -7.1594630747352622E-021
  -9.2499999999999999E-002    -1.4225390116766677E-021
  -9.1399999999999995E-002     2.9001831155509988E-020
  -9.0299999999999991E-002     7.4501165705279234E-020
  -8.9200000000000002E-002     5.4918272163848647E-020
  -8.8099999999999984E-002    -1.6240354913801542E-019
  -8.6999999999999994E-002    -5.6545580705515097E-019
  -8.5899999999999990E-002    -6.7304636214931073E-019
  -8.4799999999999986E-002     4.5157392301706602E-019
  -8.3699999999999997E-002     3.1552756902950019E-018
  -8.2599999999999993E-002     5.2472756368311721E-018
  -8.1499999999999989E-002     1.3933902913389442E-018
  -8.0399999999999999E-002    -1.2478893870269891E-017
  -7.9299999999999995E-002    -2.9341085635268505E-017
  -7.8199999999999992E-002    -2.4770459455937348E-017
  -7.7100000000000002E-002     2.8895546305012743E-017
  -7.5999999999999984E-002     1.2098809507321573E-016
  -7.4899999999999994E-002     1.6285741011202862E-016
  -7.3799999999999991E-002     1.7424998009154181E-017
  -7.2699999999999987E-002    -3.5537156128979844E-016
  -7.1599999999999997E-002    -7.1148697632596376E-016
  -7.0499999999999993E-002    -5.2380480400514491E-016
  -6.9399999999999989E-002     6.0545798602707141E-016
  -6.8300000000000000E-002     2.2410058682207799E-015
  -6.7199999999999996E-002     2.7864385468033201E-015
  -6.6099999999999992E-002     3.8109452252981305E-016
  -6.5000000000000002E-002    -4.9391304306027617E-015
  -6.3899999999999985E-002    -9.4357403563737757E-015
  -6.2799999999999995E-002    -6.8954165497576124E-015
  -6.1699999999999991E-002     5.9258729921771863E-015
  -6.0599999999999994E-002     2.2802752050400839E-014
  -5.9499999999999990E-002     2.7640677290399762E-014
  -5.8399999999999994E-002     5.5997127914415509E-015
  -5.7299999999999990E-002    -3.8675764928988374E-014
  -5.6199999999999986E-002    -7.2092024461668097E-014
  -5.5099999999999996E-002    -5.0712797676488730E-014
  -5.3999999999999992E-002     3.7952558034227285E-014
  -5.2899999999999989E-002     1.4020150329325382E-013
  -5.1799999999999985E-002     1.5395800953554861E-013
  -5.0699999999999995E-002     1.2607199423417433E-014
  -4.9599999999999991E-002    -2.1928330462203660E-013
  -4.8499999999999988E-002    -3.3983536470993947E-013
  -4.7399999999999998E-002    -1.5439368262603476E-013
  -4.6299999999999994E-002     3.0295202652942665E-013
  -4.5199999999999990E-002     6.7509301100721064E-013
  -4.4099999999999986E-002     4.9428272889603941E-013
  -4.2999999999999997E-002    -3.6035456845058544E-013
  -4.1899999999999993E-002    -1.3291845922525081E-012
  -4.0799999999999989E-002    -1.3989924670110288E-012
  -3.9699999999999985E-002     4.8986995151512405E-014
  -3.8599999999999995E-002     2.3511561621225585E-012
  -3.7499999999999992E-002     3.5620200365682475E-012
  -3.6399999999999988E-002     1.8017827898078598E-012
  -3.5299999999999984E-002    -2.7765947093610910E-012
  -3.4199999999999994E-002    -7.1225881095871024E-012
  -3.3099999999999991E-002    -6.9219261399078302E-012
  -3.1999999999999987E-002    -2.2455783977096133E-013
  -3.0899999999999997E-002     9.6531029697421999E-012
  -2.9799999999999993E-002     1.5087549265491162E-011
  -2.8699999999999989E-002     9.5748990333599515E-012
  -2.7599999999999986E-002    -5.8753145577850052E-012
  -2.6499999999999996E-002    -2.1094091751105992E-011
  -2.5399999999999992E-002    -2.3031113474680787E-011
  -2.4299999999999988E-002    -6.6577169124948377E-012
  -2.3199999999999985E-002     1.8256408537697943E-011
  -2.2099999999999995E-002     3.2061579086084535E-011
  -2.0999999999999991E-002     2.0630766192630823E-011
  -1.9899999999999987E-002    -1.0240326815680323E-011
  -1.8799999999999983E-002    -3.5285933897011290E-011
  -1.7699999999999994E-002    -2.8783768771245555E-011
  -1.6599999999999990E-002     1.0738668634879822E-011
  -1.5499999999999986E-002     5.2026466468291233E-011
  -1.4399999999999996E-002     5.1602527806338117E-011
  -1.3299999999999992E-002    -7.7422452129938257E-012
  -1.2199999999999989E-002    -9.1457799666905260E-011
  -1.1099999999999985E-002    -1.2831140316915679E-010
  -9.9999999999999950E-003    -6.3875522926526429E-011
  -8.8999999999999913E-003     8.5158921581118818E-011
  -7.7999999999999875E-003     2.2383125908298496E-010
  -6.6999999999999837E-003     2.3712554142463205E-010
  -5.5999999999999939E-003     7.9285147891461349E-011
  -4.4999999999999901E-003    -1.7393428364265162E-010
  -3.3999999999999864E-003    -3.6048281026879181E-010
  -2.2999999999999826E-003    -3.4144581606554425E-010
  -1.1999999999999927E-003    -1.0820927487387166E-010
  -9.9999999999988987E-005     1.9835637299348008E-010
   1.0000000000000148E-003     3.8195296925280786E-010
   2.1000000000000185E-003     3.3432173696112955E-010
   3.2000000000000084E-003     1.1731085547417308E-010
   4.3000000000000121E-003    -8.7777632384877791E-011
   5.4000000000000159E-003    -1.3168589829692934E-010
   6.5000000000000058E-003    -2.9631387621353866E-011
   7.6000000000000234E-003     4.2552707885112895E-011
   8.7000000000000133E-003    -9.6512312031116210E-011
   9.8000000000000032E-003    -4.4157347223183763E-010
   1.0900000000000021E-002    -7.3716405202262081E-010
   1.2000000000000011E-002    -6.2860883165427595E-010
   1.3100000000000001E-002     5.1347519985922574E-011
   1.4200000000000018E-002     1.0683233186981056E-009
   1.5300000000000008E-002     1.8365479137472107E-009
   1.6400000000000026E-002     1.7546490926889646E-009
   1.7500000000000016E-002     6.3151062157373872E-010
   1.8600000000000005E-002    -1.0956745510881660E-009
   1.9700000000000023E-002    -2.5428144034833622E-009
   2.0800000000000013E-002    -2.8874451718507999E-009
   2.1900000000000003E-002    -1.8868919759995606E-009
   2.3000000000000020E-002    -4.7866342833824405E-011
   2.4100000000000010E-002     1.6917710565778066E-009
   2.5200000000000000E-002     2.5645776613458793E-009
   2.6300000000000018E-002     2.4325832459481944E-009
   2.7400000000000008E-002     1.7629682158570859E-009
   2.8500000000000025E-002     1.1382621512012747E-009
   2.9600000000000015E-002     6.9714461981007503E-010
   3.0700000000000005E-002    -4.9951596678421417E-012
   3.1800000000000023E-002    -1.5333978531373305E-009
   3.2900000000000013E-002    -3.8348186848224941E-009
   3.4000000000000002E-002    -5.8593636609316491E-009
   3.5100000000000020E-002    -5.9991247525204017E-009
   3.6200000000000010E-002    -3.1923528265309642E-009
   3.7300000000000028E-002     2.0556216728806476E-009
   3.8400000000000017E-002     7.5733845861236659E-009
   3.9500000000000007E-002     1.0610170519953499E-008
   4.0600000000000025E-002     9.4964800467778332E-009
   4.1700000000000015E-002     4.7487205279139744E-009
   4.2800000000000005E-002    -1.2183604125581837E-009
   4.3900000000000022E-002    -5.6448197227609853E-009
   4.5000000000000012E-002    -7.1737127349535967E-009
   4.6100000000000002E-002    -6.5340213240006051E-009
   4.7200000000000020E-002    -5.6617457389052106E-009
   4.8300000000000010E-002    -5.9431348731209255E-009
   4.9400000000000027E-002    -6.9628796062204401E-009
   5.0500000000000017E-002    -6.7847514273466913E-009
   5.1600000000000007E-002    -3.6068812381273574E-009
   5.2700000000000025E-002     2.4929567299381006E-009
   5.3800000000000014E-002     9.1844905014681899E-009
   5.4900000000000004E-002     1.3376888041705115E-008
   5.6000000000000022E-002     1.3630453210566884E-008
   5.7100000000000012E-002     1.1717618875195512E-008
   5.8200000000000002E-002     1.2023414264206167E-008
   5.9300000000000019E-002     1.8963874026667327E-008
   6.0400000000000009E-002     3.4076542476668692E-008
   6.1500000000000027E-002     5.4811902572282634E-008
   6.2600000000000017E-002     7.5987713898939546E-008
   6.3700000000000007E-002     9.3051568228474935E-008
   6.4800000000000024E-002     1.0500076541575254E-007
   6.5900000000000014E-002     1.1499362528866186E-007
   6.7000000000000004E-002     1.2829028150918020E-007
   6.8100000000000022E-002     1.4908141565683763E-007
   6.9200000000000012E-002     1.7860116940937587E-007
   7.0300000000000029E-002     2.1598835076019895E-007
   7.1400000000000019E-002     2.6125368890461687E-007
   7.2500000000000009E-002     3.1796614052836958E-007
   7.3600000000000027E-002     3.9327781564679754E-007
   7.4700000000000016E-002     4.9482355279906187E-007
   7.5800000000000006E-002     6.2652821952724480E-007
   7.6900000000000024E-002     7.8652936963408138E-007
   7.8000000000000014E-002     9.6921155545715010E-007
   7.9100000000000004E-002     1.1704490816555335E-006
   8.0200000000000021E-002     1.3926786550655379E-006
   8.1300000000000011E-002     1.6463023939650157E-006
   8.2400000000000029E-002     1.9464071101538138E-006
   8.3500000000000019E-002     2.3071556825016160E-006
   8.4600000000000009E-002     2.7378980576031609E-006
   8.5700000000000026E-002     3.2437346817459911E-006
   8.6800000000000016E-002     3.8298921936075203E-006
   8.7900000000000006E-002     4.5063429752190132E-006
   8.9000000000000024E-002     5.2889358812535647E-006
   9.0100000000000013E-002     6.1960408856975846E-006
   9.1200000000000003E-002     7.2432253546139691E-006
   9.2300000000000021E-002     8.4401563071878627E-006
   9.3400000000000011E-002     9.7923330031335354E-006
   9.4500000000000028E-002     1.1306650776532479E-005
   9.5600000000000018E-002     1.2996879377169535E-005
   9.6700000000000008E-002     1.4884956726746168E-005
   9.7800000000000026E-002     1.6996908016153611E-005
   9.8900000000000016E-002     1.9355909898877144E-005
  0.10000000000000001          2.1977013602736406E-005
  0.10110000000000002          2.4866892999853007E-005
  0.10220000000000001          2.8028365704813041E-005
  0.10330000000000003          3.1466126529267058E-005
  0.10440000000000002          3.5189335903851315E-005
  0.10550000000000001          3.9208785892697051E-005
  0.10660000000000003          4.3530078983167186E-005
  0.10770000000000002          4.8147248890018091E-005
  0.10880000000000001          5.3040941565996036E-005
  0.10990000000000003          5.8182024076813832E-005
  0.11100000000000002          6.3537670939695090E-005
  0.11210000000000001          6.9075125793460757E-005
  0.11320000000000002          7.4759773269761354E-005
  0.11430000000000001          8.0548212281428277E-005
  0.11540000000000003          8.6380852735601366E-005
  0.11650000000000002          9.2179077910259366E-005
  0.11760000000000001          9.7848926088772714E-005
  0.11870000000000003          1.0328817734261975E-004
  0.11980000000000002          1.0839186870725825E-004
  0.12090000000000001          1.1305246152915061E-004
  0.12200000000000003          1.1715471191564575E-004
  0.12310000000000001          1.2057000276399776E-004
  0.12420000000000003          1.2315524509176612E-004
  0.12530000000000002          1.2475821131374687E-004
  0.12640000000000001          1.2522640463430434E-004
  0.12750000000000003          1.2441413127817214E-004
  0.12860000000000002          1.2218396295793355E-004
  0.12970000000000001          1.1840355728054419E-004
  0.13080000000000003          1.1294295109109953E-004
  0.13190000000000002          1.0567600111244246E-004
  0.13300000000000001          9.6487339760642499E-005
  0.13410000000000000          8.5282496002037078E-005
  0.13520000000000004          7.1996139013208449E-005
  0.13630000000000003          5.6595563364680856E-005
  0.13740000000000002          3.9080518035916612E-005
  0.13850000000000001          1.9481411072774790E-005
  0.13960000000000000         -2.1410235149232903E-006
  0.14070000000000005         -2.5692606868688017E-005
  0.14180000000000004         -5.1040071411989629E-005
  0.14290000000000003         -7.8005388786550611E-005
  0.14400000000000002         -1.0636364459060133E-004
  0.14510000000000001         -1.3584572297986597E-004
  0.14620000000000000         -1.6614442574791610E-004
  0.14730000000000004         -1.9692149362526834E-004
  0.14840000000000003         -2.2781174629926682E-004
  0.14950000000000002         -2.5842330069281161E-004
  0.15060000000000001         -2.8833610122092068E-004
  0.15170000000000000         -3.1710366602055728E-004
  0.15280000000000005         -3.4426114871166646E-004
  0.15390000000000004         -3.6933805677108467E-004
  0.15500000000000003         -3.9187254151329398E-004
  0.15610000000000002         -4.1142228292301297E-004
  0.15720000000000001         -4.2757057235576212E-004
  0.15830000000000000         -4.3993038707412779E-004
  0.15940000000000004         -4.4815003639087081E-004
  0.16050000000000003         -4.5192224206402898E-004
  0.16160000000000002         -4.5099548879079521E-004
  0.16270000000000001         -4.4518441427499056E-004
  0.16380000000000000         -4.3437606655061245E-004
  0.16490000000000005         -4.1853124275803566E-004
  0.16600000000000004         -3.9768448914401233E-004
  0.16710000000000003         -3.7194538163021207E-004
  0.16820000000000002         -3.4150024293921888E-004
  0.16930000000000001         -3.0661371420137584E-004
  0.17040000000000000         -2.6762895868159831E-004
  0.17150000000000004         -2.2496524616144598E-004
  0.17260000000000003         -1.7911335453391075E-004
  0.17370000000000002         -1.3062654761597514E-004
  0.17480000000000001         -8.0109282862395048E-005
  0.17590000000000000         -2.8204820409882814E-005
  0.17700000000000005          2.4419492547167465E-005
  0.17810000000000004          7.7084572694730014E-005
  0.17920000000000003          1.2910792429465801E-004
  0.18030000000000002          1.7981155542656779E-004
  0.18140000000000001          2.2853056725580245E-004
  0.18250000000000000          2.7462517027743161E-004
  0.18360000000000004          3.1749613117426634E-004
  0.18470000000000003          3.5659936838783324E-004
  0.18580000000000002          3.9145717164501548E-004
  0.18690000000000001          4.2166255298070610E-004
  0.18800000000000000          4.4688209891319275E-004
  0.18910000000000005          4.6686053974553943E-004
  0.19020000000000004          4.8142549348995090E-004
  0.19130000000000003          4.9049203516915441E-004
  0.19240000000000002          4.9406464677304029E-004
  0.19350000000000001          4.9223424866795540E-004
  0.19460000000000005          4.8517136019654572E-004
  0.19570000000000004          4.7311896923929453E-004
  0.19680000000000003          4.5638615847565234E-004
  0.19790000000000002          4.3534202268347144E-004
  0.19900000000000001          4.1040903306566179E-004
  0.20010000000000000          3.8205491728149354E-004
  0.20120000000000005          3.5078352084383368E-004
  0.20230000000000004          3.1712464988231659E-004
  0.20340000000000003          2.8162274975329638E-004
  0.20450000000000002          2.4482450680807233E-004
  0.20560000000000000          2.0726610091514885E-004
  0.20670000000000005          1.6946315008681267E-004
  0.20780000000000004          1.3190502068027854E-004
  0.20890000000000003          9.5052135293371975E-005
