 -0.12000000000000000          0.0000000000000000
 -0.11889999999999999          0.0000000000000000
 -0.11780000000000000          0.0000000000000000
 -0.11670000000000000          0.0000000000000000
 -0.11559999999999999         -4.2698222804484935E-017
 -0.11449999999999999         -2.5520777122482968E-016
 -0.11340000000000000         -7.3758353203527672E-016
 -0.11230000000000000         -1.2790879365062475E-015
 -0.11119999999999999         -1.2553197684898182E-015
 -0.11009999999999999         -1.8230838354520076E-016
 -0.10900000000000000          1.2348385118252092E-015
 -0.10790000000000000          7.9556336079130720E-016
 -0.10679999999999999         -3.3845083938270843E-015
 -0.10569999999999999         -9.5218598901870150E-015
 -0.10460000000000000         -1.0858402495021995E-014
 -0.10349999999999999         -4.7065973343292356E-016
 -0.10239999999999999          1.8776821392760094E-014
 -0.10130000000000000          2.8317441368662898E-014
 -0.10020000000000000          3.8282767899483743E-015
  -9.9099999999999994E-002    -5.8195317325943768E-014
  -9.7999999999999990E-002    -1.1734808003788233E-013
  -9.6899999999999986E-002    -1.0113748217816659E-013
  -9.5799999999999996E-002     3.5940997086033460E-014
  -9.4699999999999993E-002     2.4058394707850150E-013
  -9.3599999999999989E-002     3.4777866350643727E-013
  -9.2499999999999999E-002     1.7776273888211319E-013
  -9.1399999999999995E-002    -2.9405454850597867E-013
  -9.0299999999999991E-002    -8.2606512775973417E-013
  -8.9200000000000002E-002    -9.9591331275544759E-013
  -8.8099999999999984E-002    -4.9103803705444204E-013
  -8.6999999999999994E-002     5.7705516797249001E-013
  -8.5899999999999990E-002     1.6052681102787791E-012
  -8.4799999999999986E-002     1.8188459635984366E-012
  -8.3699999999999997E-002     8.2541379330461351E-013
  -8.2599999999999993E-002    -9.8715794653175815E-013
  -8.1499999999999989E-002    -2.5586494728502274E-012
  -8.0399999999999999E-002    -2.7840652960103851E-012
  -7.9299999999999995E-002    -1.2784643135810292E-012
  -7.8199999999999992E-002     1.2478792955558649E-012
  -7.7100000000000002E-002     3.2935995510768867E-012
  -7.5999999999999984E-002     3.3889883087334649E-012
  -7.4899999999999994E-002     9.4242734276217544E-013
  -7.3799999999999991E-002    -3.3827311611556166E-012
  -7.2699999999999987E-002    -7.9598784161194480E-012
  -7.1599999999999997E-002    -1.0993784875512613E-011
  -7.0499999999999993E-002    -1.1408923285272099E-011
  -6.9399999999999989E-002    -9.3523105926252015E-012
  -6.8300000000000000E-002    -5.9215020040137567E-012
  -6.7199999999999996E-002    -2.0051809605098336E-012
  -6.6099999999999992E-002     3.3931293105110560E-012
  -6.5000000000000002E-002     1.4455097709087372E-011
  -6.3899999999999985E-002     3.8417765496623346E-011
  -6.2799999999999995E-002     8.3521148330767403E-011
  -6.1699999999999991E-002     1.5570680855780950E-010
  -6.0599999999999994E-002     2.5579241502704519E-010
  -5.9499999999999990E-002     3.7891795257039007E-010
  -5.8399999999999994E-002     5.1689724722692176E-010
  -5.7299999999999990E-002     6.6243727170345323E-010
  -5.6199999999999986E-002     8.1321233080799971E-010
  -5.5099999999999996E-002     9.7418340061494746E-010
  -5.3999999999999992E-002     1.1578702441283895E-009
  -5.2899999999999989E-002     1.3833372225491303E-009
  -5.1799999999999985E-002     1.6746521946942039E-009
  -5.0699999999999995E-002     2.0588724058967500E-009
  -4.9599999999999991E-002     2.5632846956114008E-009
  -4.8499999999999988E-002     3.2123101956216260E-009
  -4.7399999999999998E-002     4.0255847544301560E-009
  -4.6299999999999994E-002     5.0189363776098617E-009
  -4.5199999999999990E-002     6.2086784602399803E-009
  -4.4099999999999986E-002     7.6176140950678928E-009
  -4.2999999999999997E-002     9.2801428763777949E-009
  -4.1899999999999993E-002     1.1244677189381491E-008
  -4.0799999999999989E-002     1.3573556501000894E-008
  -3.9699999999999985E-002     1.6341914488293696E-008
  -3.8599999999999995E-002     1.9636654968735456E-008
  -3.7499999999999992E-002     2.3555518424700495E-008
  -3.6399999999999988E-002     2.8205784374790710E-008
  -3.5299999999999984E-002     3.3703116741889971E-008
  -3.4199999999999994E-002     4.0172263737758840E-008
  -3.3099999999999991E-002     4.7750944531799178E-008
  -3.1999999999999987E-002     5.6595897746092305E-008
  -3.0899999999999997E-002     6.6887842820051446E-008
  -2.9799999999999993E-002     7.8832215422153240E-008
  -2.8699999999999989E-002     9.2655390915297176E-008
  -2.7599999999999986E-002     1.0859984200806139E-007
  -2.6499999999999996E-002     1.2692235884514957E-007
  -2.5399999999999992E-002     1.4789695512718026E-007
  -2.4299999999999988E-002     1.7182010481064935E-007
  -2.3199999999999985E-002     1.9901420955648064E-007
  -2.2099999999999995E-002     2.2982727898579469E-007
  -2.0999999999999991E-002     2.6462973323759797E-007
  -1.9899999999999987E-002     3.0381102078536060E-007
  -1.8799999999999983E-002     3.4777653468154313E-007
  -1.7699999999999994E-002     3.9694373299425934E-007
  -1.6599999999999990E-002     4.5173524654273933E-007
  -1.5499999999999986E-002     5.1256989763714955E-007
  -1.4399999999999996E-002     5.7985505463875597E-007
  -1.3299999999999992E-002     6.5398234028180013E-007
  -1.2199999999999989E-002     7.3532612532289932E-007
  -1.1099999999999985E-002     8.2423883895899053E-007
  -9.9999999999999950E-003     9.2103994120407151E-007
  -8.8999999999999913E-003     1.0259983582727727E-006
  -7.7999999999999875E-003     1.1393148042770918E-006
  -6.6999999999999837E-003     1.2611091051439871E-006
  -5.5999999999999939E-003     1.3914119563196437E-006
  -4.4999999999999901E-003     1.5301577604986960E-006
  -3.3999999999999864E-003     1.6771724631325924E-006
  -2.2999999999999826E-003     1.8321561583434232E-006
  -1.1999999999999927E-003     1.9946651264035609E-006
  -9.9999999999988987E-005     2.1641003513650503E-006
   1.0000000000000148E-003     2.3397014956572093E-006
   2.1000000000000185E-003     2.5205429210473085E-006
   3.2000000000000084E-003     2.7055266400566325E-006
   4.3000000000000121E-003     2.8933702651556814E-006
   5.4000000000000159E-003     3.0825990506855305E-006
   6.5000000000000058E-003     3.2715440738684265E-006
   7.6000000000000234E-003     3.4583508750074543E-006
   8.7000000000000133E-003     3.6409917356650112E-006
   9.8000000000000032E-003     3.8172765925992280E-006
   1.0900000000000021E-002     3.9848614505899604E-006
   1.2000000000000011E-002     4.1412622522329912E-006
   1.3100000000000001E-002     4.2838764784391969E-006
   1.4200000000000018E-002     4.4100179366068915E-006
   1.5300000000000008E-002     4.5169526856625453E-006
   1.6400000000000026E-002     4.6019376895856112E-006
   1.7500000000000016E-002     4.6622562877018936E-006
   1.8600000000000005E-002     4.6952559387136716E-006
   1.9700000000000023E-002     4.6983914216980338E-006
   2.0800000000000013E-002     4.6692725845787209E-006
   2.1900000000000003E-002     4.6057116378506180E-006
   2.3000000000000020E-002     4.5057677198201418E-006
   2.4100000000000010E-002     4.3677850953827146E-006
   2.5200000000000000E-002     4.1904331737896428E-006
   2.6300000000000018E-002     3.9727510738885030E-006
   2.7400000000000008E-002     3.7141890061320737E-006
   2.8500000000000025E-002     3.4146457892347826E-006
   2.9600000000000015E-002     3.0744945433980320E-006
   3.0700000000000005E-002     2.6945958779833745E-006
   3.1800000000000023E-002     2.2763063043385046E-006
   3.2900000000000013E-002     1.8214809642813634E-006
   3.4000000000000002E-002     1.3324706742423587E-006
   3.5100000000000020E-002     8.1210822600041865E-007
   3.6200000000000010E-002     2.6368186922809400E-007
   3.7300000000000028E-002    -3.0909967563275131E-007
   3.8400000000000017E-002    -9.0214729198123678E-007
   3.9500000000000007E-002    -1.5110340427781921E-006
   4.0600000000000025E-002    -2.1310438569344115E-006
   4.1700000000000015E-002    -2.7572309591050725E-006
   4.2800000000000005E-002    -3.3844903555291239E-006
   4.3900000000000022E-002    -4.0076333789329510E-006
   4.5000000000000012E-002    -4.6214613576012198E-006
   4.6100000000000002E-002    -5.2208379202056676E-006
   4.7200000000000020E-002    -5.8007553889183328E-006
   4.8300000000000010E-002    -6.3564093579770997E-006
   4.9400000000000027E-002    -6.8832687247777358E-006
   5.0500000000000017E-002    -7.3771443567238748E-006
   5.1600000000000007E-002    -7.8342436609091237E-006
   5.2700000000000025E-002    -8.2512087828945369E-006
   5.3800000000000014E-002    -8.6251529864966869E-006
   5.4900000000000004E-002    -8.9536815721658058E-006
   5.6000000000000022E-002    -9.2349200713215396E-006
   5.7100000000000012E-002    -9.4675215223105624E-006
   5.8200000000000002E-002    -9.6506664704065770E-006
   5.9300000000000019E-002    -9.7840475064003840E-006
   6.0400000000000009E-002    -9.8678483482217416E-006
   6.1500000000000027E-002    -9.9027147371089086E-006
   6.2600000000000017E-002    -9.8897216957993805E-006
   6.3700000000000007E-002    -9.8303307822789066E-006
   6.4800000000000024E-002    -9.7263409770675935E-006
   6.5900000000000014E-002    -9.5798268375801854E-006
   6.7000000000000004E-002    -9.3930793809704483E-006
   6.8100000000000022E-002    -9.1685533334384672E-006
   6.9200000000000012E-002    -8.9088161985273473E-006
   7.0300000000000029E-002    -8.6164973254199140E-006
   7.1400000000000019E-002    -8.2942387962248176E-006
   7.2500000000000009E-002    -7.9446517702308483E-006
   7.3600000000000027E-002    -7.5702801041188650E-006
   7.4700000000000016E-002    -7.1735739766154438E-006
   7.5800000000000006E-002    -6.7568707891041413E-006
   7.6900000000000024E-002    -6.3223778852261603E-006
   7.8000000000000014E-002    -5.8721616369439289E-006
   7.9100000000000004E-002    -5.4081401685834862E-006
   8.0200000000000021E-002    -4.9320924517815001E-006
   8.1300000000000011E-002    -4.4456769501266535E-006
   8.2400000000000029E-002    -3.9504548112745397E-006
   8.3500000000000019E-002    -3.4479114674468292E-006
   8.4600000000000009E-002    -2.9394784633041127E-006
   8.5700000000000026E-002    -2.4265548290713923E-006
   8.6800000000000016E-002    -1.9105361843685387E-006
   8.7900000000000006E-002    -1.3928472526458791E-006
   8.9000000000000024E-002    -8.7497073764097877E-007
   9.0100000000000013E-002    -3.5846781543114048E-007
   9.1200000000000003E-002     1.5501106531701225E-007
   9.2300000000000021E-002     6.6371802631692844E-007
   9.3400000000000011E-002     1.1657986078716931E-006
   9.4500000000000028E-002     1.6592834981565829E-006
   9.5600000000000018E-002     2.1420887605927419E-006
   9.6700000000000008E-002     2.6120303573407000E-006
   9.7800000000000026E-002     3.0668500130559551E-006
   9.8900000000000016E-002     3.5042451145272935E-006
  0.10000000000000001          3.9218975871335715E-006
  0.10110000000000002          4.3174995880690403E-006
  0.10220000000000001          4.6887826101738028E-006
  0.10330000000000003          5.0335561354586389E-006
  0.10440000000000002          5.3497469707508571E-006
  0.10550000000000001          5.6354451771767344E-006
  0.10660000000000003          5.8889381762128323E-006
  0.10770000000000002          6.1087425820005592E-006
  0.10880000000000001          6.2936314861872233E-006
  0.10990000000000003          6.4426612880197354E-006
  0.11100000000000002          6.5552012529224157E-006
  0.11210000000000001          6.6309503381489776E-006
  0.11320000000000002          6.6699508352030534E-006
  0.11430000000000001          6.6725874603434931E-006
  0.11540000000000003          6.6395855355949607E-006
  0.11650000000000002          6.5720005295588635E-006
  0.11760000000000001          6.4712053244875278E-006
  0.11870000000000003          6.3388697526534088E-006
  0.11980000000000002          6.1769369494868442E-006
  0.12090000000000001          5.9875933402508963E-006
  0.12200000000000003          5.7732377172214910E-006
  0.12310000000000001          5.5364489526255056E-006
  0.12420000000000003          5.2799477998632938E-006
  0.12530000000000002          5.0065550567524042E-006
  0.12640000000000001          4.7191524572554044E-006
  0.12750000000000003          4.4206449274497572E-006
  0.12860000000000002          4.1139246604871005E-006
  0.12970000000000001          3.8018397390260361E-006
  0.13080000000000003          3.4871559364546556E-006
  0.13190000000000002          3.1725210192234954E-006
  0.13300000000000001          2.8604308681678958E-006
  0.13410000000000000          2.5532078780088341E-006
  0.13520000000000004          2.2529877696797485E-006
  0.13630000000000003          1.9617079942690907E-006
  0.13740000000000002          1.6810968190839048E-006
  0.13850000000000001          1.4126583209872479E-006
  0.13960000000000000          1.1576632914511720E-006
  0.14070000000000005          9.1714974814749439E-007
  0.14180000000000004          6.9193146146062645E-007
  0.14290000000000003          4.8260938001476461E-007
  0.14400000000000002          2.8957958875253098E-007
  0.14510000000000001          1.1303745139912280E-007
  0.14620000000000000         -4.7015195292487988E-008
  0.14730000000000004         -1.9075518764566368E-007
  0.14840000000000003         -3.1851581638875359E-007
  0.14950000000000002         -4.3076369138361770E-007
  0.15060000000000001         -5.2808070449827937E-007
  0.15170000000000000         -6.1115110838727560E-007
  0.15280000000000005         -6.8074848513788311E-007
  0.15390000000000004         -7.3771821007539984E-007
  0.15500000000000003         -7.8295602179423440E-007
  0.15610000000000002         -8.1738693324950873E-007
  0.15720000000000001         -8.4194982719054678E-007
  0.15830000000000000         -8.5758603063368355E-007
  0.15940000000000004         -8.6522919673370779E-007
  0.16050000000000003         -8.6579410663034650E-007
  0.16160000000000002         -8.6016541445133043E-007
  0.16270000000000001         -8.4918912079956499E-007
  0.16380000000000000         -8.3366796843620250E-007
  0.16490000000000005         -8.1435842957944260E-007
  0.16600000000000004         -7.9196519209290273E-007
  0.16710000000000003         -7.6713382668458507E-007
  0.16820000000000002         -7.4044521625182824E-007
  0.16930000000000001         -7.1241538535105065E-007
  0.17040000000000000         -6.8350004767125938E-007
  0.17150000000000004         -6.5409972194174770E-007
  0.17260000000000003         -6.2456200566884945E-007
  0.17370000000000002         -5.9518157513593906E-007
  0.17480000000000001         -5.6620336863488774E-007
  0.17590000000000000         -5.3783043085786630E-007
  0.17700000000000005         -5.1023408786932123E-007
  0.17810000000000004         -4.8356031356888707E-007
  0.17920000000000003         -4.5792859282300924E-007
  0.18030000000000002         -4.3342677713553712E-007
  0.18140000000000001         -4.1010903828464507E-007
  0.18250000000000000         -3.8800143897788075E-007
  0.18360000000000004         -3.6711256257149216E-007
  0.18470000000000003         -3.4744184063129069E-007
  0.18580000000000002         -3.2898046242735290E-007
  0.18690000000000001         -3.1170745273811917E-007
  0.18800000000000000         -2.9558711389654491E-007
  0.18910000000000005         -2.8057243639523222E-007
  0.19020000000000004         -2.6661237484404410E-007
  0.19130000000000003         -2.5365685019096418E-007
  0.19240000000000002         -2.4165512968465919E-007
  0.19350000000000001         -2.3054994358062686E-007
  0.19460000000000005         -2.2027305135452480E-007
  0.19570000000000004         -2.1074649225738540E-007
  0.19680000000000003         -2.0188844018775853E-007
  0.19790000000000002         -1.9361863223821274E-007
  0.19900000000000001         -1.8586001715448219E-007
  0.20010000000000000         -1.7853756162367063E-007
  0.20120000000000005         -1.7157769605091744E-007
  0.20230000000000004         -1.6491034671162197E-007
  0.20340000000000003         -1.5847258794110530E-007
  0.20450000000000002         -1.5221118587760429E-007
  0.20560000000000000         -1.4608288267936587E-007
  0.20670000000000005         -1.4005345860823581E-007
  0.20780000000000004         -1.3409707833034190E-007
  0.20890000000000003         -1.2819600669899955E-007
