 -0.12000000000000000          0.0000000000000000
 -0.11889999999999999          0.0000000000000000
 -0.11780000000000000          0.0000000000000000
 -0.11670000000000000          0.0000000000000000
 -0.11559999999999999          0.0000000000000000
 -0.11449999999999999          0.0000000000000000
 -0.11340000000000000          0.0000000000000000
 -0.11230000000000000          0.0000000000000000
 -0.11119999999999999          0.0000000000000000
 -0.11009999999999999         -1.9984431163791478E-021
 -0.10900000000000000         -1.4577707665403179E-020
 -0.10790000000000000         -1.0053204844383431E-019
 -0.10679999999999999         -5.2632427041952832E-019
 -0.10569999999999999         -1.4087912569713393E-018
 -0.10460000000000000         -6.6937430061503470E-019
 -0.10349999999999999          5.7676305583602115E-018
 -0.10239999999999999          9.5373238067455672E-018
 -0.10130000000000000         -2.5282638110701607E-017
 -0.10020000000000000         -9.3626786824754088E-017
  -9.9099999999999994E-002     2.3002837352638082E-017
  -9.7999999999999990E-002     6.2374447444622609E-016
  -9.6899999999999986E-002     1.0261238761493556E-015
  -9.5799999999999996E-002    -1.4000665818681454E-015
  -9.4699999999999993E-002    -7.9573205799066474E-015
  -9.3599999999999989E-002    -9.2883312125631098E-015
  -9.2499999999999999E-002     1.6535407889933448E-014
  -9.1399999999999995E-002     7.1333902868821186E-014
  -9.0299999999999991E-002     7.5774212208654101E-014
  -8.9200000000000002E-002    -1.1770829265716348E-013
  -8.8099999999999984E-002    -4.9836567164729395E-013
  -8.6999999999999994E-002    -5.6014605931062333E-013
  -8.5899999999999990E-002     5.5742747657322456E-013
  -8.4799999999999986E-002     2.8215242642293248E-012
  -8.3699999999999997E-002     3.6291694475998337E-012
  -8.2599999999999993E-002    -1.4812508858375040E-012
  -8.1499999999999989E-002    -1.3064048974553710E-011
  -8.0399999999999999E-002    -2.0058279689982861E-011
  -7.9299999999999995E-002    -1.8737969075671712E-012
  -7.8199999999999992E-002     4.8767340860011998E-011
  -7.7100000000000002E-002     9.3191919459112427E-011
  -7.5999999999999984E-002     4.7633060690221996E-011
  -7.4899999999999994E-002    -1.3905486484500074E-010
  -7.3799999999999991E-002    -3.5994129898853089E-010
  -7.2699999999999987E-002    -3.1869920591454104E-010
  -7.1599999999999997E-002     2.4681959254202468E-010
  -7.0499999999999993E-002     1.1341118044683185E-009
  -6.9399999999999989E-002     1.4485717070300552E-009
  -6.8300000000000000E-002     1.2345069411168197E-010
  -6.7199999999999996E-002    -2.7831674742628820E-009
  -6.6099999999999992E-002    -5.0394231010386648E-009
  -6.5000000000000002E-002    -3.0901334824307014E-009
  -6.3899999999999985E-002     4.5792662994870170E-009
  -6.2799999999999995E-002     1.3699078316165014E-008
  -6.1699999999999991E-002     1.4509909718185554E-008
  -6.0599999999999994E-002    -9.6571328711547721E-010
  -5.9499999999999990E-002    -2.8019600861739491E-008
  -5.8399999999999994E-002    -4.4970228429974668E-008
  -5.7299999999999990E-002    -2.5341321929772676E-008
  -5.6199999999999986E-002     3.5903433115436201E-008
  -5.5099999999999996E-002     1.0214143486564353E-007
  -5.3999999999999992E-002     1.0717759124645454E-007
  -5.2899999999999989E-002     6.6463190506738101E-009
  -5.1799999999999985E-002    -1.6265941837900755E-007
  -5.0699999999999995E-002    -2.7329139129506075E-007
  -4.9599999999999991E-002    -1.8467180495918001E-007
  -4.8499999999999988E-002     1.2534570714706206E-007
  -4.7399999999999998E-002     4.7917740175762447E-007
  -4.6299999999999994E-002     5.7245938478445169E-007
  -4.5199999999999990E-002     2.0096685204862297E-007
  -4.4099999999999986E-002    -5.0803208750949125E-007
  -4.2999999999999997E-002    -1.0753361721071997E-006
  -4.1899999999999993E-002    -9.6112830760830548E-007
  -4.0799999999999989E-002    -1.6557956783458394E-008
  -3.9699999999999985E-002     1.2556126876006601E-006
  -3.8599999999999995E-002     1.9246042484155623E-006
  -3.7499999999999992E-002     1.2892096492578276E-006
  -3.6399999999999988E-002    -4.8010667796916096E-007
  -3.5299999999999984E-002    -2.2712531517754542E-006
  -3.4199999999999994E-002    -2.7298383429297246E-006
  -3.3099999999999991E-002    -1.3039862096775323E-006
  -3.1999999999999987E-002     1.1794530792030855E-006
  -3.0899999999999997E-002     2.9823136173945386E-006
  -2.9799999999999993E-002     2.7498567760630976E-006
  -2.8699999999999989E-002     6.6022676037391648E-007
  -2.7599999999999986E-002    -1.5885013908700785E-006
  -2.6499999999999996E-002    -2.1248308712529251E-006
  -2.5399999999999992E-002    -5.9735936019933433E-007
  -2.4299999999999988E-002     1.2706055940725491E-006
  -2.3199999999999985E-002     1.0147346074518282E-006
  -2.2099999999999995E-002    -2.1687844764528563E-006
  -2.0999999999999991E-002    -5.9562394199019764E-006
  -1.9899999999999987E-002    -6.0257698351051658E-006
  -1.8799999999999983E-002     4.6333531145137385E-007
  -1.7699999999999994E-002     1.1461948815849610E-005
  -1.6599999999999990E-002     1.9742890799534507E-005
  -1.5499999999999986E-002     1.6974867321550846E-005
  -1.4399999999999996E-002     1.0752018653192863E-007
  -1.3299999999999992E-002    -2.4388609745074064E-005
  -1.2199999999999989E-002    -4.2277559259673581E-005
  -1.1099999999999985E-002    -3.9430080505553633E-005
  -9.9999999999999950E-003    -1.1417980203987099E-005
  -8.8999999999999913E-003     3.1540530471829697E-005
  -7.7999999999999875E-003     6.8259512772783637E-005
  -6.6999999999999837E-003     7.7394193795043975E-005
  -5.5999999999999939E-003     4.9119240429718047E-005
  -4.4999999999999901E-003    -9.1422498371684924E-006
  -3.3999999999999864E-003    -7.5689778896048665E-005
  -2.2999999999999826E-003    -1.2347019219305366E-004
  -1.1999999999999927E-003    -1.2959669402334839E-004
  -9.9999999999988987E-005    -8.2080317952204496E-005
   1.0000000000000148E-003     1.5639561752323061E-005
   2.1000000000000185E-003     1.4054305211175233E-004
   3.2000000000000084E-003     2.4809129536151886E-004
   4.3000000000000121E-003     2.7945527108386159E-004
   5.4000000000000159E-003     1.8443758017383516E-004
   6.5000000000000058E-003    -4.3441796151455492E-005
   7.6000000000000234E-003    -3.3830999745987356E-004
   8.7000000000000133E-003    -5.6605128338560462E-004
   9.8000000000000032E-003    -5.7629134971648455E-004
   1.0900000000000021E-002    -2.8797291452065110E-004
   1.2000000000000011E-002     2.3677333956584334E-004
   1.3100000000000001E-002     7.8430137364193797E-004
   1.4200000000000018E-002     1.0725209722295403E-003
   1.5300000000000008E-002     8.9665479026734829E-004
   1.6400000000000026E-002     2.6031408924609423E-004
   1.7500000000000016E-002    -5.9236836386844516E-004
   1.8600000000000005E-002    -1.2794747017323971E-003
   1.9700000000000023E-002    -1.4743640786036849E-003
   2.0800000000000013E-002    -1.0814731940627098E-003
   2.1900000000000003E-002    -2.8698251117020845E-004
   2.3000000000000020E-002     5.5261963279917836E-004
   2.4100000000000010E-002     1.1185691691935062E-003
   2.5200000000000000E-002     1.3015230651944876E-003
   2.6300000000000018E-002     1.2219474883750081E-003
   2.7400000000000008E-002     1.0840699542313814E-003
   2.8500000000000025E-002     9.6807617228478193E-004
   2.9600000000000015E-002     7.2119012475013733E-004
   3.0700000000000005E-002     5.1929480832768604E-005
   3.1800000000000023E-002    -1.2102317996323109E-003
   3.2900000000000013E-002    -2.8627652209252119E-003
   3.4000000000000002E-002    -4.2865416035056114E-003
   3.5100000000000020E-002    -4.6961866319179535E-003
   3.6200000000000010E-002    -3.5727124195545912E-003
   3.7300000000000028E-002    -1.0174071649089456E-003
   3.8400000000000017E-002     2.2238108795136213E-003
   3.9500000000000007E-002     5.1321969367563725E-003
   4.0600000000000025E-002     6.9960732944309711E-003
   4.1700000000000015E-002     7.8468574211001396E-003
   4.2800000000000005E-002     8.4423534572124481E-003
   4.3900000000000022E-002     9.7303045913577080E-003
   4.5000000000000012E-002     1.2033096514642239E-002
   4.6100000000000002E-002     1.4388953335583210E-002
   4.7200000000000020E-002     1.4447539113461971E-002
   4.8300000000000010E-002     9.0600633993744850E-003
   4.9400000000000027E-002    -4.6409810893237591E-003
   5.0500000000000017E-002    -2.8130007907748222E-002
   5.1600000000000007E-002    -6.0833752155303955E-002
   5.2700000000000025E-002   -0.10022109746932983
   5.3800000000000014E-002   -0.14259469509124756
   5.4900000000000004E-002   -0.18425352871417999
   5.6000000000000022E-002   -0.22259284555912018
   5.7100000000000012E-002   -0.25682857632637024
   5.8200000000000002E-002   -0.28829175233840942
   5.9300000000000019E-002   -0.32046070694923401
   6.0400000000000009E-002   -0.35893803834915161
   6.1500000000000027E-002   -0.41140922904014587
   6.2600000000000017E-002   -0.48737660050392151
   6.3700000000000007E-002   -0.59735178947448730
   6.4800000000000024E-002   -0.75138092041015625
   6.5900000000000014E-002   -0.95721453428268433
   6.7000000000000004E-002    -1.2188911437988281
   6.8100000000000022E-002    -1.5366433858871460
   6.9200000000000012E-002    -1.9086673259735107
   7.0300000000000029E-002    -2.3344907760620117
   7.1400000000000019E-002    -2.8188171386718750
   7.2500000000000009E-002    -3.3742699623107910
   7.3600000000000027E-002    -4.0217652320861816
   7.4700000000000016E-002    -4.7882585525512695
   7.5800000000000006E-002    -5.7028903961181641
   7.6900000000000024E-002    -6.7934036254882812
   7.8000000000000014E-002    -8.0846767425537109
   7.9100000000000004E-002    -9.6000843048095703
   8.0200000000000021E-002    -11.364856719970703
   8.1300000000000011E-002    -13.409398078918457
   8.2400000000000029E-002    -15.770474433898926
   8.3500000000000019E-002    -18.489418029785156
   8.4600000000000009E-002    -21.608345031738281
   8.5700000000000026E-002    -25.166711807250977
   8.6800000000000016E-002    -29.200586318969727
   8.7900000000000006E-002    -33.745365142822266
   8.9000000000000024E-002    -38.840652465820312
   9.0100000000000013E-002    -44.534320831298828
   9.1200000000000003E-002    -50.883205413818359
   9.2300000000000021E-002    -57.949222564697266
   9.3400000000000011E-002    -65.792266845703125
   9.4500000000000028E-002    -74.462646484375000
   9.5600000000000018E-002    -83.996063232421875
   9.6700000000000008E-002    -94.412254333496094
   9.7800000000000026E-002    -105.71677398681641
   9.8900000000000016E-002    -117.90393829345703
  0.10000000000000001         -130.95828247070312
  0.10110000000000002         -144.85418701171875
  0.10220000000000001         -159.55293273925781
  0.10330000000000003         -174.99859619140625
  0.10440000000000002         -191.11422729492188
  0.10550000000000001         -207.79838562011719
  0.10660000000000003         -224.92120361328125
  0.10770000000000002         -242.32064819335938
  0.10880000000000001         -259.79803466796875
  0.10990000000000003         -277.11541748046875
  0.11100000000000002         -293.99481201171875
  0.11210000000000001         -310.12246704101562
  0.11320000000000002         -325.15509033203125
  0.11430000000000001         -338.72717285156250
  0.11540000000000003         -350.45584106445312
  0.11650000000000002         -359.94177246093750
  0.11760000000000001         -366.76535034179688
  0.11870000000000003         -370.48403930664062
  0.11980000000000002         -370.63293457031250
  0.12090000000000001         -366.72998046875000
  0.12200000000000003         -358.29089355468750
  0.12310000000000001         -344.84597778320312
  0.12420000000000003         -325.95822143554688
  0.12530000000000002         -301.23840332031250
  0.12640000000000001         -270.35696411132812
  0.12750000000000003         -233.05026245117188
  0.12860000000000002         -189.12760925292969
  0.12970000000000001         -138.47761535644531
  0.13080000000000003         -81.077087402343750
  0.13190000000000002         -17.004383087158203
  0.13300000000000001          53.550125122070312
  0.13410000000000000          130.27081298828125
  0.13520000000000004          212.70892333984375
  0.13630000000000003          300.28167724609375
  0.13740000000000002          392.27084350585938
  0.13850000000000001          487.82681274414062
  0.13960000000000000          585.97174072265625
  0.14070000000000005          685.60357666015625
  0.14180000000000004          785.50347900390625
  0.14290000000000003          884.34686279296875
  0.14400000000000002          980.72064208984375
  0.14510000000000001          1073.1457519531250
  0.14620000000000000          1160.1027832031250
  0.14730000000000004          1240.0620117187500
  0.14840000000000003          1311.5108642578125
  0.14950000000000002          1372.9825439453125
  0.15060000000000001          1423.0834960937500
  0.15170000000000000          1460.5175781250000
  0.15280000000000005          1484.1132812500000
  0.15390000000000004          1492.8488769531250
  0.15500000000000003          1485.8804931640625
  0.15610000000000002          1462.5659179687500
  0.15720000000000001          1422.4901123046875
  0.15830000000000000          1365.4851074218750
  0.15940000000000004          1291.6439208984375
  0.16050000000000003          1201.3311767578125
  0.16160000000000002          1095.1848144531250
  0.16270000000000001          974.11456298828125
  0.16380000000000000          839.29437255859375
  0.16490000000000005          692.14282226562500
  0.16600000000000004          534.30554199218750
  0.16710000000000003          367.63085937500000
  0.16820000000000002          194.13999938964844
  0.16930000000000001          15.996191024780273
  0.17040000000000000         -164.53166198730469
  0.17150000000000004         -345.10641479492188
  0.17260000000000003         -523.36499023437500
  0.17370000000000002         -696.95947265625000
  0.17480000000000001         -863.59869384765625
  0.17590000000000000         -1021.0864257812500
  0.17700000000000005         -1167.3631591796875
  0.17810000000000004         -1300.5410156250000
  0.17920000000000003         -1418.9382324218750
  0.18030000000000002         -1521.1127929687500
  0.18140000000000001         -1605.8863525390625
  0.18250000000000000         -1672.3634033203125
  0.18360000000000004         -1719.9453125000000
  0.18470000000000003         -1748.3364257812500
  0.18580000000000002         -1757.5424804687500
  0.18690000000000001         -1747.8626708984375
  0.18800000000000000         -1719.8736572265625
  0.18910000000000005         -1674.4101562500000
  0.19020000000000004         -1612.5443115234375
  0.19130000000000003         -1535.5639648437500
  0.19240000000000002         -1444.9471435546875
  0.19350000000000001         -1342.3348388671875
  0.19460000000000005         -1229.4974365234375
  0.19570000000000004         -1108.2991943359375
  0.19680000000000003         -980.66033935546875
  0.19790000000000002         -848.52008056640625
  0.19900000000000001         -713.79821777343750
  0.20010000000000000         -578.36212158203125
  0.20120000000000005         -443.99288940429688
  0.20230000000000004         -312.35839843750000
  0.20340000000000003         -184.99096679687500
  0.20450000000000002         -63.271339416503906
  0.20560000000000000          51.585342407226562
  0.20670000000000005          158.53955078125000
  0.20780000000000004          256.73602294921875
  0.20890000000000003          345.50570678710938
