 -0.12000000000000000          0.0000000000000000
 -0.11889999999999999          0.0000000000000000
 -0.11780000000000000          0.0000000000000000
 -0.11670000000000000          0.0000000000000000
 -0.11559999999999999          0.0000000000000000
 -0.11449999999999999          0.0000000000000000
 -0.11340000000000000          0.0000000000000000
 -0.11230000000000000          0.0000000000000000
 -0.11119999999999999          0.0000000000000000
 -0.11009999999999999          0.0000000000000000
 -0.10900000000000000         -3.2672602365780564E-023
 -0.10790000000000000          5.6863815302909181E-022
 -0.10679999999999999          6.4981665062257118E-021
 -0.10569999999999999          2.1668466281682523E-020
 -0.10460000000000000         -3.1088066690383603E-021
 -0.10349999999999999         -2.3991680903337555E-019
 -0.10239999999999999         -7.2710721637180841E-019
 -0.10130000000000000         -3.9629256380074635E-019
 -0.10020000000000000          3.3435614364564660E-018
  -9.9099999999999994E-002     1.0410010106336975E-017
  -9.7999999999999990E-002     8.5082904452142869E-018
  -9.6899999999999986E-002    -2.5712004405620732E-017
  -9.5799999999999996E-002    -8.6649220572848780E-017
  -9.4699999999999993E-002    -7.7218587348690915E-017
  -9.3599999999999989E-002     1.5052838234359925E-016
  -9.2499999999999999E-002     5.1538953167417343E-016
  -9.1399999999999995E-002     3.9552272293466519E-016
  -9.0299999999999991E-002    -9.6119848310495829E-016
  -8.9200000000000002E-002    -2.8038353329905025E-015
  -8.8099999999999984E-002    -1.5453775191893440E-015
  -8.6999999999999994E-002     6.4293811397606645E-015
  -8.5899999999999990E-002     1.6266031083915847E-014
  -8.4799999999999986E-002     8.9197922594104473E-015
  -8.3699999999999997E-002    -3.4150701472453193E-014
  -8.2599999999999993E-002    -9.0826346823332654E-014
  -8.1499999999999989E-002    -7.1246854986897756E-014
  -8.0399999999999999E-002     1.2166825977700385E-013
  -7.9299999999999995E-002     4.2190364158041505E-013
  -7.8199999999999992E-002     4.6774487495043759E-013
  -7.7100000000000002E-002    -2.0419390733394244E-013
  -7.5999999999999984E-002    -1.5228524821372935E-012
  -7.4899999999999994E-002    -2.2820165895831579E-012
  -7.3799999999999991E-002    -5.9069659970670263E-013
  -7.2699999999999987E-002     4.0660005744264094E-012
  -7.1599999999999997E-002     8.4520047211045224E-012
  -7.0499999999999993E-002     6.0953074185188250E-012
  -6.9399999999999989E-002    -6.9846749911617323E-012
  -6.8300000000000000E-002    -2.4204764928481559E-011
  -6.7199999999999996E-002    -2.7016158407611179E-011
  -6.6099999999999992E-002     1.6006731530515683E-012
  -6.5000000000000002E-002     5.3458328042044201E-011
  -6.3899999999999985E-002     8.3898180069930106E-011
  -6.2799999999999995E-002     3.8188306683561990E-011
  -6.1699999999999991E-002    -8.7875241805424054E-011
  -6.0599999999999994E-002    -2.0366371089597379E-010
  -5.9499999999999990E-002    -1.6415171999462075E-010
  -5.8399999999999994E-002     9.2770062465330483E-011
  -5.7299999999999990E-002     4.1271688844268795E-010
  -5.6199999999999986E-002     4.6192494274066576E-010
  -5.5099999999999996E-002     6.4129539352475451E-012
  -5.3999999999999992E-002    -7.4359896018449945E-010
  -5.2899999999999989E-002    -1.0960642393698095E-009
  -5.1799999999999985E-002    -3.8773304011918697E-010
  -5.0699999999999995E-002     1.2190273235290761E-009
  -4.9599999999999991E-002     2.4160924372296222E-009
  -4.8499999999999988E-002     1.5684037402152740E-009
  -4.7399999999999998E-002    -1.6034847893919846E-009
  -4.6299999999999994E-002    -4.9102979460258211E-009
  -4.5199999999999990E-002    -4.7408796888248617E-009
  -4.4099999999999986E-002     7.1504924203935616E-010
  -4.2999999999999997E-002     8.4911047082414370E-009
  -4.1899999999999993E-002     1.1535274069274237E-008
  -4.0799999999999989E-002     4.1885148682752060E-009
  -3.9699999999999985E-002    -1.1106404684824156E-008
  -3.8599999999999995E-002    -2.2476022820683283E-008
  -3.7499999999999992E-002    -1.6600404606492702E-008
  -3.6399999999999988E-002     8.1873485768824139E-009
  -3.5299999999999984E-002     3.5150918620274751E-008
  -3.4199999999999994E-002     3.8475359787071284E-008
  -3.3099999999999991E-002     5.6906421797009443E-009
  -3.1999999999999987E-002    -4.4559435252722324E-008
  -3.0899999999999997E-002    -6.9356865139980073E-008
  -2.9799999999999993E-002    -3.5351035876374226E-008
  -2.8699999999999989E-002     4.4628848172578728E-008
  -2.7599999999999986E-002     1.0803565686501315E-007
  -2.6499999999999996E-002     8.7298175799332967E-008
  -2.5399999999999992E-002    -2.5315015861337997E-008
  -2.4299999999999988E-002    -1.5034629541332833E-007
  -2.3199999999999985E-002    -1.7061816492969228E-007
  -2.2099999999999995E-002    -3.3329779824953221E-008
  -2.0999999999999991E-002     1.7886041803194530E-007
  -1.9899999999999987E-002     2.8648585725932207E-007
  -1.8799999999999983E-002     1.5666179820073012E-007
  -1.7699999999999994E-002    -1.5692371846398601E-007
  -1.6599999999999990E-002    -4.1270169504059595E-007
  -1.5499999999999986E-002    -3.5764435324381338E-007
  -1.4399999999999996E-002     3.8980516592346248E-008
  -1.3299999999999992E-002     5.0038977406074991E-007
  -1.2199999999999989E-002     6.2241213072411483E-007
  -1.1099999999999985E-002     2.1456681054132787E-007
  -9.9999999999999950E-003    -4.7705140104881139E-007
  -8.8999999999999913E-003    -8.9705872596823610E-007
  -7.7999999999999875E-003    -6.1664553641094244E-007
  -6.6999999999999837E-003     2.5606107101339148E-007
  -5.5999999999999939E-003     1.0687072062864900E-006
  -4.4999999999999901E-003     1.1035785973945167E-006
  -3.3999999999999864E-003     2.0050391924542055E-007
  -2.2999999999999826E-003    -1.0085991561936680E-006
  -1.1999999999999927E-003    -1.5272345308403601E-006
  -9.9999999999988987E-005    -8.1016554531743168E-007
   1.0000000000000148E-003     6.9411117920026300E-007
   2.1000000000000185E-003     1.7919436459123972E-006
   3.2000000000000084E-003     1.4778024706174619E-006
   4.3000000000000121E-003    -1.6942141201070626E-007
   5.4000000000000159E-003    -1.9103476915915962E-006
   6.5000000000000058E-003    -2.2577760319109075E-006
   7.6000000000000234E-003    -7.1357089836965315E-007
   8.7000000000000133E-003     1.6872478454388329E-006
   9.8000000000000032E-003     3.0610535759478807E-006
   1.0900000000000021E-002     2.1417492916953051E-006
   1.2000000000000011E-002    -6.1389971506287111E-007
   1.3100000000000001E-002    -3.2239595384453423E-006
   1.4200000000000018E-002    -3.6299395560490666E-006
   1.5300000000000008E-002    -1.3239314284874126E-006
   1.6400000000000026E-002     2.1327598460629815E-006
   1.7500000000000016E-002     4.1812986637523863E-006
   1.8600000000000005E-002     3.1821386983210687E-006
   1.9700000000000023E-002    -2.6493015070627735E-007
   2.0800000000000013E-002    -3.6461863146541873E-006
   2.1900000000000003E-002    -4.3422801354608964E-006
   2.3000000000000020E-002    -1.6257961306109792E-006
   2.4100000000000010E-002     2.6485158741706982E-006
   2.5200000000000000E-002     5.2589462029573042E-006
   2.6300000000000018E-002     3.9579495023644995E-006
   2.7400000000000008E-002    -7.2104080572898965E-007
   2.8500000000000025E-002    -5.5816508393036202E-006
   2.9600000000000015E-002    -6.8999597715446725E-006
   3.0700000000000005E-002    -3.1901888633001363E-006
   3.1800000000000023E-002     3.4031754694296978E-006
   3.2900000000000013E-002     8.2998494690400548E-006
   3.4000000000000002E-002     7.6789601735072210E-006
   3.5100000000000020E-002     1.4836375612503616E-006
   3.6200000000000010E-002    -6.1140235629864037E-006
   3.7300000000000028E-002    -9.4872602858231403E-006
   3.8400000000000017E-002    -5.8089235608349554E-006
   3.9500000000000007E-002     2.4098117137327790E-006
   4.0600000000000025E-002     8.7676389739499427E-006
   4.1700000000000015E-002     7.7600625445484184E-006
   4.2800000000000005E-002    -5.6863882491597906E-007
   4.3900000000000022E-002    -9.9493754532886669E-006
   4.5000000000000012E-002    -1.2261924894119147E-005
   4.6100000000000002E-002    -3.9984961404115893E-006
   4.7200000000000020E-002     1.0236094567517284E-005
   4.8300000000000010E-002     2.0395242245285772E-005
   4.9400000000000027E-002     1.8333317711949348E-005
   5.0500000000000017E-002     4.3627278500935063E-006
   5.1600000000000007E-002    -1.2285146112844814E-005
   5.2700000000000025E-002    -1.9914097720175050E-005
   5.3800000000000014E-002    -1.3070386557956226E-005
   5.4900000000000004E-002     3.2152497624338139E-006
   5.6000000000000022E-002     1.7138612747658044E-005
   5.7100000000000012E-002     1.9123614038107917E-005
   5.8200000000000002E-002     9.2185428002267145E-006
   5.9300000000000019E-002    -2.8982237836316926E-006
   6.0400000000000009E-002    -5.4153483688423876E-006
   6.1500000000000027E-002     6.3166944528347813E-006
   6.2600000000000017E-002     2.5833443942246959E-005
   6.3700000000000007E-002     4.0062015614239499E-005
   6.4800000000000024E-002     3.9028171158861369E-005
   6.5900000000000014E-002     2.3626607799087651E-005
   6.7000000000000004E-002     5.7036500038520899E-006
   6.8100000000000022E-002     2.4984498736557725E-007
   6.9200000000000012E-002     1.5109537343960255E-005
   7.0300000000000029E-002     4.5401691750157624E-005
   7.1400000000000019E-002     7.6645083026960492E-005
   7.2500000000000009E-002     9.4644252385478467E-005
   7.3600000000000027E-002     9.5467861683573574E-005
   7.4700000000000016E-002     8.8527012849226594E-005
   7.5800000000000006E-002     9.0225708845537156E-005
   7.6900000000000024E-002     1.1219222506042570E-004
   7.8000000000000014E-002     1.5233732119668275E-004
   7.9100000000000004E-002     1.9568482821341604E-004
   8.0200000000000021E-002     2.2526111570186913E-004
   8.1300000000000011E-002     2.3570167832076550E-004
   8.2400000000000029E-002     2.3922308173496276E-004
   8.3500000000000019E-002     2.5844605988822877E-004
   8.4600000000000009E-002     3.1017739092931151E-004
   8.5700000000000026E-002     3.9206980727612972E-004
   8.6800000000000016E-002     4.8284590593539178E-004
   8.7900000000000006E-002     5.5717438226565719E-004
   8.9000000000000024E-002     6.0458941152319312E-004
   9.0100000000000013E-002     6.3785410020500422E-004
   9.1200000000000003E-002     6.8377063143998384E-004
   9.2300000000000021E-002     7.6294486643746495E-004
   9.3400000000000011E-002     8.7415671441704035E-004
   9.4500000000000028E-002     9.9554040934890509E-004
   9.5600000000000018E-002     1.1017475044354796E-003
   9.6700000000000008E-002     1.1837281053885818E-003
   9.7800000000000026E-002     1.2555050197988749E-003
   9.8900000000000016E-002     1.3429322279989719E-003
  0.10000000000000001          1.4632919337600470E-003
  0.10110000000000002          1.6115263570100069E-003
  0.10220000000000001          1.7629825742915273E-003
  0.10330000000000003          1.8900986760854721E-003
  0.10440000000000002          1.9803671166300774E-003
  0.10550000000000001          2.0428712014108896E-003
  0.10660000000000003          2.1001158747822046E-003
  0.10770000000000002          2.1711925510317087E-003
  0.10880000000000001          2.2580106742680073E-003
  0.10990000000000003          2.3433924652636051E-003
  0.11100000000000002          2.4011950008571148E-003
  0.11210000000000001          2.4119743611663580E-003
  0.11320000000000002          2.3744970094412565E-003
  0.11430000000000001          2.3050659801810980E-003
  0.11540000000000003          2.2247626911848783E-003
  0.11650000000000002          2.1421799901872873E-003
  0.11760000000000001          2.0431755110621452E-003
  0.11870000000000003          1.8972328398376703E-003
  0.11980000000000002          1.6774131217971444E-003
  0.12090000000000001          1.3806014321744442E-003
  0.12200000000000003          1.0310600046068430E-003
  0.12310000000000001          6.6313560819253325E-004
  0.12420000000000003          2.9487209394574165E-004
  0.12530000000000002         -8.7513551989104599E-005
  0.12640000000000001         -5.1925628213211894E-004
  0.12750000000000003         -1.0279241250827909E-003
  0.12860000000000002         -1.6090004937723279E-003
  0.12970000000000001         -2.2262611892074347E-003
  0.13080000000000003         -2.8375585097819567E-003
  0.13190000000000002         -3.4237625077366829E-003
  0.13300000000000001         -3.9999107830226421E-003
  0.13410000000000000         -4.5962831936776638E-003
  0.13520000000000004         -5.2284775301814079E-003
  0.13630000000000003         -5.8803549036383629E-003
  0.13740000000000002         -6.5131806768476963E-003
  0.13850000000000001         -7.0905815809965134E-003
  0.13960000000000000         -7.5984918512403965E-003
  0.14070000000000005         -8.0437222495675087E-003
  0.14180000000000004         -8.4383077919483185E-003
  0.14290000000000003         -8.7830135598778725E-003
  0.14400000000000002         -9.0648457407951355E-003
  0.14510000000000001         -9.2639941722154617E-003
  0.14620000000000000         -9.3639688566327095E-003
  0.14730000000000004         -9.3546947464346886E-003
  0.14840000000000003         -9.2317787930369377E-003
  0.14950000000000002         -8.9974943548440933E-003
  0.15060000000000001         -8.6616920307278633E-003
  0.15170000000000000         -8.2393726333975792E-003
  0.15280000000000005         -7.7382675372064114E-003
  0.15390000000000004         -7.1508823893964291E-003
  0.15500000000000003         -6.4561334438621998E-003
  0.15610000000000002         -5.6391106918454170E-003
  0.15720000000000001         -4.7118808142840862E-003
  0.15830000000000000         -3.7147691473364830E-003
  0.15940000000000004         -2.6925217825919390E-003
  0.16050000000000003         -1.6625847201794386E-003
  0.16160000000000002         -6.0710712568834424E-004
  0.16270000000000001          5.0161127001047134E-004
  0.16380000000000000          1.6621489776298404E-003
  0.16490000000000005          2.8280268888920546E-003
  0.16600000000000004          3.9329947903752327E-003
  0.16710000000000003          4.9379658885300159E-003
  0.16820000000000002          5.8558350428938866E-003
  0.16930000000000001          6.7292922176420689E-003
  0.17040000000000000          7.5822165235877037E-003
  0.17150000000000004          8.3880014717578888E-003
  0.17260000000000003          9.0848589316010475E-003
  0.17370000000000002          9.6251470968127251E-003
  0.17480000000000001          1.0009603574872017E-002
  0.17590000000000000          1.0276460088789463E-002
  0.17700000000000005          1.0454976931214333E-002
  0.17810000000000004          1.0532771237194538E-002
  0.17920000000000003          1.0468789376318455E-002
  0.18030000000000002          1.0238347575068474E-002
  0.18140000000000001          9.8631866276264191E-003
  0.18250000000000000          9.3933390453457832E-003
  0.18360000000000004          8.8596092537045479E-003
  0.18470000000000003          8.2451272755861282E-003
  0.18580000000000002          7.5074099004268646E-003
  0.18690000000000001          6.6300830803811550E-003
  0.18800000000000000          5.6495917961001396E-003
  0.18910000000000005          4.6273069456219673E-003
  0.19020000000000004          3.5936238709837198E-003
  0.19130000000000003          2.5208285078406334E-003
  0.19240000000000002          1.3556801714003086E-003
  0.19350000000000001          8.2597282016649842E-005
  0.19460000000000005         -1.2504420010372996E-003
  0.19570000000000004         -2.5706517044454813E-003
  0.19680000000000003         -3.8507340941578150E-003
  0.19790000000000002         -5.1359753124415874E-003
  0.19900000000000001         -6.4979409798979759E-003
  0.20010000000000000         -7.9589737579226494E-003
  0.20120000000000005         -9.4630373641848564E-003
  0.20230000000000004         -1.0929037816822529E-002
  0.20340000000000003         -1.2333396822214127E-002
  0.20450000000000002         -1.3739243149757385E-002
  0.20560000000000000         -1.5235794708132744E-002
  0.20670000000000005         -1.6844557598233223E-002
  0.20780000000000004         -1.8487686291337013E-002
  0.20890000000000003         -2.0054435357451439E-002
