 -0.12000000000000000          0.0000000000000000
 -0.11889999999999999          0.0000000000000000
 -0.11780000000000000          0.0000000000000000
 -0.11670000000000000          0.0000000000000000
 -0.11559999999999999          0.0000000000000000
 -0.11449999999999999         -1.7251097843744457E-016
 -0.11340000000000000         -9.2753940548438070E-016
 -0.11230000000000000         -1.1306470006869033E-015
 -0.11119999999999999          5.1144162757401952E-015
 -0.11009999999999999          2.4116774590267220E-014
 -0.10900000000000000          4.1567210150264463E-014
 -0.10790000000000000          4.7189298164085234E-015
 -0.10679999999999999         -1.3792814817797919E-013
 -0.10569999999999999         -3.2330190499578052E-013
 -0.10460000000000000         -3.0539237588432038E-013
 -0.10349999999999999          1.7208780787085675E-013
 -0.10239999999999999          9.7154001423704912E-013
 -0.10130000000000000          1.3585422934183681E-012
 -0.10020000000000000          5.3972830978827627E-013
  -9.9099999999999994E-002    -1.2259330920207242E-012
  -9.7999999999999990E-002    -2.1976333513388049E-012
  -9.6899999999999986E-002    -6.7984403913689730E-013
  -9.5799999999999996E-002     2.2205663956915212E-012
  -9.4699999999999993E-002     1.9019822609236604E-012
  -9.3599999999999989E-002    -5.4197969896758682E-012
  -9.2499999999999999E-002    -1.5536395087113006E-011
  -9.1399999999999995E-002    -1.4397319274273116E-011
  -9.0299999999999991E-002     1.1086215279122105E-011
  -8.9200000000000002E-002     5.3861835130898509E-011
  -8.8099999999999984E-002     7.7787366825621960E-011
  -8.6999999999999994E-002     3.7836869054562912E-011
  -8.5899999999999990E-002    -7.4536488092749342E-011
  -8.4799999999999986E-002    -1.9700954756452182E-010
  -8.3699999999999997E-002    -2.1768942204403115E-010
  -8.2599999999999993E-002    -5.9686221243188437E-011
  -8.1499999999999989E-002     2.2720243741947986E-010
  -8.0399999999999999E-002     4.5678147375661349E-010
  -7.9299999999999995E-002     4.2170925085294083E-010
  -7.8199999999999992E-002     6.8834500599456416E-011
  -7.7100000000000002E-002    -4.1117817484172882E-010
  -7.5999999999999984E-002    -6.8834810074138432E-010
  -7.4899999999999994E-002    -5.4528981330293774E-010
  -7.3799999999999991E-002    -7.7375952867155199E-011
  -7.2699999999999987E-002     3.5583036517297543E-010
  -7.1599999999999997E-002     4.3037723385101160E-010
  -7.0499999999999993E-002     1.6932553970064862E-010
  -6.9399999999999989E-002    -3.6390748053818415E-011
  -6.8300000000000000E-002     2.1998400323575104E-010
  -6.7199999999999996E-002     9.0320101397975814E-010
  -6.6099999999999992E-002     1.4056029673525458E-009
  -6.5000000000000002E-002     9.5952989997976185E-010
  -6.3899999999999985E-002    -6.6349625793556452E-010
  -6.2799999999999995E-002    -2.7494784227145047E-009
  -6.1699999999999991E-002    -3.9655501105073811E-009
  -6.0599999999999994E-002    -3.2701479302232341E-009
  -5.9499999999999990E-002    -7.3526357224893408E-010
  -5.8399999999999994E-002     2.4041479917970778E-009
  -5.7299999999999990E-002     4.5741743726070557E-009
  -5.6199999999999986E-002     4.9377670841011836E-009
  -5.5099999999999996E-002     3.8631440268942887E-009
  -5.3999999999999992E-002     2.4117243757612983E-009
  -5.2899999999999989E-002     1.2954345374179827E-009
  -5.1799999999999985E-002     2.0825381696868657E-010
  -5.0699999999999995E-002    -1.8835362158854585E-009
  -4.9599999999999991E-002    -5.7399449637783965E-009
  -4.8499999999999988E-002    -1.1006876299290685E-008
  -4.7399999999999998E-002    -1.6281951786822531E-008
  -4.6299999999999994E-002    -2.0065421324488522E-008
  -4.5199999999999990E-002    -2.1835596442087745E-008
  -4.4099999999999986E-002    -2.2403396471304169E-008
  -4.2999999999999997E-002    -2.3315028130354767E-008
  -4.1899999999999993E-002    -2.5836390804556090E-008
  -4.0799999999999989E-002    -3.0331698042117833E-008
  -3.9699999999999985E-002    -3.6464804509249892E-008
  -3.8599999999999995E-002    -4.3984623943059963E-008
  -3.7499999999999992E-002    -5.3454293436060933E-008
  -3.6399999999999988E-002    -6.6394051145834501E-008
  -3.5299999999999984E-002    -8.4745984452183091E-008
  -3.4199999999999994E-002    -1.0997938204582077E-007
  -3.3099999999999991E-002    -1.4233093281745657E-007
  -3.1999999999999987E-002    -1.8062355877645782E-007
  -3.0899999999999997E-002    -2.2289580670075893E-007
  -2.9799999999999993E-002    -2.6771181182993602E-007
  -2.8699999999999989E-002    -3.1557394208902625E-007
  -2.7599999999999986E-002    -3.6959056615159503E-007
  -2.6499999999999996E-002    -4.3480710587572751E-007
  -2.5399999999999992E-002    -5.1643604592754082E-007
  -2.4299999999999988E-002    -6.1810476381650903E-007
  -2.3199999999999985E-002    -7.4139171601926854E-007
  -2.2099999999999995E-002    -8.8700863898337564E-007
  -2.0999999999999991E-002    -1.0566161563474300E-006
  -1.9899999999999987E-002    -1.2536351050584748E-006
  -1.8799999999999983E-002    -1.4822534240010798E-006
  -1.7699999999999994E-002    -1.7455462284487769E-006
  -1.6599999999999990E-002    -2.0446868802536905E-006
  -1.5499999999999986E-002    -2.3804780084901362E-006
  -1.4399999999999996E-002    -2.7563335152080553E-006
  -1.3299999999999992E-002    -3.1802205739949800E-006
  -1.2199999999999989E-002    -3.6635638025472309E-006
  -1.1099999999999985E-002    -4.2175261114606921E-006
  -9.9999999999999950E-003    -4.8493811846127928E-006
  -8.8999999999999913E-003    -5.5617738325962881E-006
  -7.7999999999999875E-003    -6.3553020481775955E-006
  -6.6999999999999837E-003    -7.2320744948227712E-006
  -5.5999999999999939E-003    -8.1971811596302925E-006
  -4.4999999999999901E-003    -9.2570153356062671E-006
  -3.3999999999999864E-003    -1.0416260920464832E-005
  -2.2999999999999826E-003    -1.1676456779241381E-005
  -1.1999999999999927E-003    -1.3037406461080331E-005
  -9.9999999999988987E-005    -1.4499885764962299E-005
   1.0000000000000148E-003    -1.6066820535342886E-005
   2.1000000000000185E-003    -1.7741504052537216E-005
   3.2000000000000084E-003    -1.9524137314874371E-005
   4.3000000000000121E-003    -2.1409370674518530E-005
   5.4000000000000159E-003    -2.3386468456009958E-005
   6.5000000000000058E-003    -2.5441289835725504E-005
   7.6000000000000234E-003    -2.7557920475373529E-005
   8.7000000000000133E-003    -2.9718708901782039E-005
   9.8000000000000032E-003    -3.1903338822302825E-005
   1.0900000000000021E-002    -3.4088399843312244E-005
   1.2000000000000011E-002    -3.6247947718947536E-005
   1.3100000000000001E-002    -3.8353962736436474E-005
   1.4200000000000018E-002    -4.0375431126448593E-005
   1.5300000000000008E-002    -4.2276384192518192E-005
   1.6400000000000026E-002    -4.4014865125063068E-005
   1.7500000000000016E-002    -4.5544467866419980E-005
   1.8600000000000005E-002    -4.6817760448902059E-005
   1.9700000000000023E-002    -4.7788991651031314E-005
   2.0800000000000013E-002    -4.8413930926471122E-005
   2.1900000000000003E-002    -4.8647467338013561E-005
   2.3000000000000020E-002    -4.8441976105094985E-005
   2.4100000000000010E-002    -4.7748832002979808E-005
   2.5200000000000000E-002    -4.6522363845723793E-005
   2.6300000000000018E-002    -4.4722833990817090E-005
   2.7400000000000008E-002    -4.2315863538532683E-005
   2.8500000000000025E-002    -3.9269445551325773E-005
   2.9600000000000015E-002    -3.5552558983908302E-005
   3.0700000000000005E-002    -3.1138377380556755E-005
   3.1800000000000023E-002    -2.6010833607869632E-005
   3.2900000000000013E-002    -2.0169756680842990E-005
   3.4000000000000002E-002    -1.3630526154883809E-005
   3.5100000000000020E-002    -6.4191062847383032E-006
   3.6200000000000010E-002     1.4326051314129452E-006
   3.7300000000000028E-002     9.8867276392410966E-006
   3.8400000000000017E-002     1.8894785171141655E-005
   3.9500000000000007E-002     2.8393464162945398E-005
   4.0600000000000025E-002     3.8305137422866604E-005
   4.1700000000000015E-002     4.8542911827097887E-005
   4.2800000000000005E-002     5.9015477745560069E-005
   4.3900000000000022E-002     6.9627232733181566E-005
   4.5000000000000012E-002     8.0274112406185526E-005
   4.6100000000000002E-002     9.0840156190095923E-005
   4.7200000000000020E-002     1.0119967191712772E-004
   4.8300000000000010E-002     1.1122485011583018E-004
   4.9400000000000027E-002     1.2079366570105582E-004
   5.0500000000000017E-002     1.2979294115211603E-004
   5.1600000000000007E-002     1.3811633107252194E-004
   5.2700000000000025E-002     1.4566145546268433E-004
   5.3800000000000014E-002     1.5233090380206455E-004
   5.4900000000000004E-002     1.5803724818397053E-004
   5.6000000000000022E-002     1.6270772903226042E-004
   5.7100000000000012E-002     1.6628472076263000E-004
   5.8200000000000002E-002     1.6872258856892301E-004
   5.9300000000000019E-002     1.6998528735711883E-004
   6.0400000000000009E-002     1.7004851542878606E-004
   6.1500000000000027E-002     1.6890552069525878E-004
   6.2600000000000017E-002     1.6657152445986582E-004
   6.3700000000000007E-002     1.6308260092045833E-004
   6.4800000000000024E-002     1.5848994371480966E-004
   6.5900000000000014E-002     1.5285426343325260E-004
   6.7000000000000004E-002     1.4624402683693661E-004
   6.8100000000000022E-002     1.3873644638806340E-004
   6.9200000000000012E-002     1.3041708734817573E-004
   7.0300000000000029E-002     1.2137548765167378E-004
   7.1400000000000019E-002     1.1169850040459808E-004
   7.2500000000000009E-002     1.0146640852326346E-004
   7.3600000000000027E-002     9.0754365373866842E-005
   7.4700000000000016E-002     7.9636338341514048E-005
   7.5800000000000006E-002     6.8186302087268436E-005
   7.6900000000000024E-002     5.6474127632099044E-005
   7.8000000000000014E-002     4.4558804802362844E-005
   7.9100000000000004E-002     3.2484440453117015E-005
   8.0200000000000021E-002     2.0282082914490679E-005
   8.1300000000000011E-002     7.9745714174347640E-006
   8.2400000000000029E-002    -4.4208190956852586E-006
   8.3500000000000019E-002    -1.6894213331397535E-005
   8.4600000000000009E-002    -2.9446488042594584E-005
   8.5700000000000026E-002    -4.2088733607669818E-005
   8.6800000000000016E-002    -5.4835905757499181E-005
   8.7900000000000006E-002    -6.7698325437958416E-005
   8.9000000000000024E-002    -8.0676589277571846E-005
   9.0100000000000013E-002    -9.3762580945620902E-005
   9.1200000000000003E-002    -1.0694309457903579E-004
   9.2300000000000021E-002    -1.2019991845590824E-004
   9.3400000000000011E-002    -1.3350443623494164E-004
   9.4500000000000028E-002    -1.4681041648145554E-004
   9.5600000000000018E-002    -1.6005033103283259E-004
   9.6700000000000008E-002    -1.7313745047431184E-004
   9.7800000000000026E-002    -1.8597040616441242E-004
   9.8900000000000016E-002    -1.9843509653582871E-004
  0.10000000000000001         -2.1040257706772216E-004
  0.10110000000000002         -2.2172606259118427E-004
  0.10220000000000001         -2.3224171309265879E-004
  0.10330000000000003         -2.4177443992811810E-004
  0.10440000000000002         -2.5014547281898162E-004
  0.10550000000000001         -2.5717733660712426E-004
  0.10660000000000003         -2.6269565569236452E-004
  0.10770000000000002         -2.6653049280866547E-004
  0.10880000000000001         -2.6852037990465316E-004
  0.10990000000000003         -2.6851953589356986E-004
  0.11100000000000002         -2.6640546275302312E-004
  0.11210000000000001         -2.6208299095741949E-004
  0.11320000000000002         -2.5548582198097852E-004
  0.11430000000000001         -2.4657833273522117E-004
  0.11540000000000003         -2.3535900982096366E-004
  0.11650000000000002         -2.2186504793352967E-004
  0.11760000000000001         -2.0617435802705193E-004
  0.11870000000000003         -1.8840367556549243E-004
  0.11980000000000002         -1.6870435501914133E-004
  0.12090000000000001         -1.4725932851433445E-004
  0.12200000000000003         -1.2428253830875930E-004
  0.12310000000000001         -1.0001839109463381E-004
  0.12420000000000003         -7.4738585681186900E-005
  0.12530000000000002         -4.8735797463449056E-005
  0.12640000000000001         -2.2316600734483291E-005
  0.12750000000000003          4.2034143916686881E-006
  0.12860000000000002          3.0502242225338895E-005
  0.12970000000000001          5.6255070376209644E-005
  0.13080000000000003          8.1141966802532998E-005
  0.13190000000000002          1.0485827806405607E-004
  0.13300000000000001          1.2712353782262496E-004
  0.13410000000000000          1.4768593246117036E-004
  0.13520000000000004          1.6632262850180035E-004
  0.13630000000000003          1.8284023099112987E-004
  0.13740000000000002          1.9707847968674898E-004
  0.13850000000000001          2.0891590975224647E-004
  0.13960000000000000          2.1827311138622113E-004
  0.14070000000000005          2.2511096904053918E-004
  0.14180000000000004          2.2942606301512190E-004
  0.14290000000000003          2.3124806466511994E-004
  0.14400000000000002          2.3064107517711422E-004
  0.14510000000000001          2.2770609939470491E-004
  0.14620000000000000          2.2258026001508883E-004
  0.14730000000000004          2.1543056936934205E-004
  0.14840000000000003          2.0644532924051954E-004
  0.14950000000000002          1.9582815002649662E-004
  0.15060000000000001          1.8379635002929373E-004
  0.15170000000000000          1.7058046068995863E-004
  0.15280000000000005          1.5641993377357418E-004
  0.15390000000000004          1.4155441022012104E-004
  0.15500000000000003          1.2621500354725610E-004
  0.15610000000000002          1.1062026896979429E-004
  0.15720000000000001          9.4977353001011365E-005
  0.15830000000000000          7.9483907029496593E-005
  0.15940000000000004          6.4325591665691137E-005
  0.16050000000000003          4.9669612053547691E-005
  0.16160000000000002          3.5659519198815294E-005
  0.16270000000000001          2.2415715648093470E-005
  0.16380000000000000          1.0040544111688599E-005
  0.16490000000000005         -1.3781980214846891E-006
  0.16600000000000004         -1.1769639058911770E-005
  0.16710000000000003         -2.1086107153678191E-005
  0.16820000000000002         -2.9306849683052565E-005
  0.16930000000000001         -3.6434423236641586E-005
  0.17040000000000000         -4.2486335587454384E-005
  0.17150000000000004         -4.7489051212323145E-005
  0.17260000000000003         -5.1478633395162563E-005
  0.17370000000000002         -5.4505322623298581E-005
  0.17480000000000001         -5.6634704378665448E-005
  0.17590000000000000         -5.7941615523303842E-005
  0.17700000000000005         -5.8500467275734008E-005
  0.17810000000000004         -5.8380104746901359E-005
  0.17920000000000003         -5.7647022913441922E-005
  0.18030000000000002         -5.6372409744652861E-005
  0.18140000000000001         -5.4634874686597802E-005
  0.18250000000000000         -5.2515009883790260E-005
  0.18360000000000004         -5.0086593546438047E-005
  0.18470000000000003         -4.7412802814505120E-005
  0.18580000000000002         -4.4550517486640357E-005
  0.18690000000000001         -4.1557497752363946E-005
  0.18800000000000000         -3.8493919419123991E-005
  0.18910000000000005         -3.5415519960223951E-005
  0.19020000000000004         -3.2364554499508190E-005
  0.19130000000000003         -2.9367436582105593E-005
  0.19240000000000002         -2.6441586669533926E-005
  0.19350000000000001         -2.3605038222739937E-005
  0.19460000000000005         -2.0880010197287937E-005
  0.19570000000000004         -1.8288033970747702E-005
  0.19680000000000003         -1.5842932043596774E-005
  0.19790000000000002         -1.3549778486776345E-005
  0.19900000000000001         -1.1411199920985135E-005
  0.20010000000000000         -9.4342694865188306E-006
  0.20120000000000005         -7.6303294918032447E-006
  0.20230000000000004         -6.0074057728341695E-006
  0.20340000000000003         -4.5627662075274810E-006
  0.20450000000000002         -3.2833527257024738E-006
  0.20560000000000000         -2.1539467525143819E-006
  0.20670000000000005         -1.1651891327346105E-006
  0.20780000000000004         -3.1396709232463441E-007
  0.20890000000000003          4.0328396266889003E-007
