 -0.12000000000000000          0.0000000000000000
 -0.11889999999999999          0.0000000000000000
 -0.11780000000000000          0.0000000000000000
 -0.11670000000000000          0.0000000000000000
 -0.11559999999999999          0.0000000000000000
 -0.11449999999999999          0.0000000000000000
 -0.11340000000000000          0.0000000000000000
 -0.11230000000000000          0.0000000000000000
 -0.11119999999999999          0.0000000000000000
 -0.11009999999999999         -2.0713175672718011E-038
 -0.10900000000000000         -2.3893404283353809E-026
 -0.10790000000000000          7.7115995119133975E-025
 -0.10679999999999999          5.8461953149084307E-024
 -0.10569999999999999          5.7290589368043399E-024
 -0.10460000000000000         -7.4247014108655048E-023
 -0.10349999999999999         -3.0844102935729688E-022
 -0.10239999999999999         -2.3710180072127038E-022
 -0.10130000000000000          1.5096693423686685E-021
 -0.10020000000000000          4.4948332095382509E-021
  -9.9099999999999994E-002     6.0048334443132945E-022
  -9.7999999999999990E-002    -1.9402409840349994E-020
  -9.6899999999999986E-002    -2.6692872797819288E-020
  -9.5799999999999996E-002     6.6891672756471248E-020
  -9.4699999999999993E-002     2.4576929281285284E-019
  -9.3599999999999989E-002     3.4068916636790990E-020
  -9.2499999999999999E-002    -1.3245481848591035E-018
  -9.1399999999999995E-002    -2.9585694522917629E-018
  -9.0299999999999991E-002     1.9599521164387368E-019
  -8.9200000000000002E-002     1.4119769569848200E-017
  -8.8099999999999984E-002     2.9713713957601705E-017
  -8.6999999999999994E-002     6.0539769117637330E-018
  -8.5899999999999990E-002    -1.0243986685590968E-016
  -8.4799999999999986E-002    -2.3840472866383137E-016
  -8.3699999999999997E-002    -1.3591249796637365E-016
  -8.2599999999999993E-002     5.2590856914834711E-016
  -8.1499999999999989E-002     1.5166095274432157E-015
  -8.0399999999999999E-002     1.4205766376523297E-015
  -7.9299999999999995E-002    -1.7401057350822859E-015
  -7.8199999999999992E-002    -7.6038147675008554E-015
  -7.7100000000000002E-002    -1.0009475582094681E-014
  -7.5999999999999984E-002     1.4020544623192303E-015
  -7.4899999999999994E-002     2.9398538318361925E-014
  -7.3799999999999991E-002     5.2554728418522803E-014
  -7.2699999999999987E-002     2.5385662132490509E-014
  -7.1599999999999997E-002    -8.1505494627795995E-014
  -7.0499999999999993E-002    -2.1264019462328106E-013
  -6.9399999999999989E-002    -2.0214285432155512E-013
  -6.8300000000000000E-002     1.1519730753078597E-013
  -6.7199999999999996E-002     6.6009535077538613E-013
  -6.6099999999999992E-002     9.3814528628176360E-013
  -6.5000000000000002E-002     2.6909914184101350E-013
  -6.3899999999999985E-002    -1.4800198826908775E-012
  -6.2799999999999995E-002    -3.1510510346828775E-012
  -6.1699999999999991E-002    -2.5343399254189268E-012
  -6.0599999999999994E-002     1.7891030454010897E-012
  -5.9499999999999990E-002     7.9290159507578163E-012
  -5.8399999999999994E-002     1.0110655368487637E-011
  -5.7299999999999990E-002     2.4177233565856718E-012
  -5.6199999999999986E-002    -1.4233969038157781E-011
  -5.5099999999999996E-002    -2.7826517132176067E-011
  -5.3999999999999992E-002    -2.0846014150972091E-011
  -5.2899999999999989E-002     1.3634023597611477E-011
  -5.1799999999999985E-002     5.6771708861755048E-011
  -5.0699999999999995E-002     6.7795428992924458E-011
  -4.9599999999999991E-002     1.4955014657193245E-011
  -4.8499999999999988E-002    -8.4195997396286489E-011
  -4.7399999999999998E-002    -1.5253086294018988E-010
  -4.6299999999999994E-002    -1.0220820717552614E-010
  -4.5199999999999990E-002     7.7317617586125640E-011
  -4.4099999999999986E-002     2.6668278696460907E-010
  -4.2999999999999997E-002     2.7565447147100820E-010
  -4.1899999999999993E-002     8.4354476528583543E-012
  -4.0799999999999989E-002    -3.8850789252364150E-010
  -3.9699999999999985E-002    -5.6330984321556951E-010
  -3.8599999999999995E-002    -2.3106708213476834E-010
  -3.7499999999999992E-002     4.9515136435475081E-010
  -3.6399999999999988E-002     1.0373295555864824E-009
  -3.5299999999999984E-002     7.4170314334753641E-010
  -3.4199999999999994E-002    -4.7667059188688863E-010
  -3.3099999999999991E-002    -1.7901252702400606E-009
  -3.1999999999999987E-002    -1.8997965423037901E-009
  -3.0899999999999997E-002    -1.4370618583985390E-010
  -2.9799999999999993E-002     2.5739452791384383E-009
  -2.8699999999999989E-002     4.0322958305691388E-009
  -2.7599999999999986E-002     2.3285506856037404E-009
  -2.6499999999999996E-002    -2.1876285227763989E-009
  -2.5399999999999992E-002    -6.4420460077483593E-009
  -2.4299999999999988E-002    -6.5684342409605743E-009
  -2.3199999999999985E-002    -1.1860585846785164E-009
  -2.2099999999999995E-002     6.6390630770741676E-009
  -2.0999999999999991E-002     1.0940879313636329E-008
  -1.9899999999999987E-002     7.4141657258046934E-009
  -1.8799999999999983E-002    -2.4418538302488107E-009
  -1.7699999999999994E-002    -1.1483083817154114E-008
  -1.6599999999999990E-002    -1.2184211861665069E-008
  -1.5499999999999986E-002    -3.2518718828808409E-009
  -1.4399999999999996E-002     8.2265332324025157E-009
  -1.3299999999999992E-002     1.1969220281570815E-008
  -1.2199999999999989E-002     3.6304259598550900E-009
  -1.1099999999999985E-002    -9.9086436833308864E-009
  -9.9999999999999950E-003    -1.4877115539489455E-008
  -8.8999999999999913E-003    -2.5494779620758641E-009
  -7.7999999999999875E-003     2.0774958642277402E-008
  -6.6999999999999837E-003     3.5503660456012749E-008
  -5.5999999999999939E-003     2.3256250258892183E-008
  -4.4999999999999901E-003    -1.6102436717349838E-008
  -3.3999999999999864E-003    -5.9369266836028850E-008
  -2.2999999999999826E-003    -7.3562652858068188E-008
  -1.1999999999999927E-003    -4.0103788734306922E-008
  -9.9999999999988987E-005     2.8394527618053599E-008
   1.0000000000000148E-003     9.2935380280325733E-008
   2.1000000000000185E-003     1.1293135315781609E-007
   3.2000000000000084E-003     7.3604560668620182E-008
   4.3000000000000121E-003    -4.2268415434508921E-009
   5.4000000000000159E-003    -7.9157246091206275E-008
   6.5000000000000058E-003    -1.1719856729542081E-007
   7.6000000000000234E-003    -1.1117806764104745E-007
   8.7000000000000133E-003    -7.7381649532520967E-008
   9.8000000000000032E-003    -3.4301159246288532E-008
   1.0900000000000021E-002     1.6331291874405852E-008
   1.2000000000000011E-002     8.7229359735388683E-008
   1.3100000000000001E-002     1.8092900688772180E-007
   1.4200000000000018E-002     2.6340856607021558E-007
   1.5300000000000008E-002     2.6430402044751279E-007
   1.6400000000000026E-002     1.1700279856082730E-007
   1.7500000000000016E-002    -1.7905908578091234E-007
   1.8600000000000005E-002    -5.1776015652653594E-007
   1.9700000000000023E-002    -7.1049913685784708E-007
   2.0800000000000013E-002    -5.8304334515920384E-007
   2.1900000000000003E-002    -9.9284640953018325E-008
   2.3000000000000020E-002     5.6968599437833451E-007
   2.4100000000000010E-002     1.0973857342833831E-006
   2.5200000000000000E-002     1.1705731139954975E-006
   2.6300000000000018E-002     6.8433143951544620E-007
   2.7400000000000008E-002    -1.6600105823285473E-007
   2.8500000000000025E-002    -9.7564623047233671E-007
   2.9600000000000015E-002    -1.3634772813021386E-006
   3.0700000000000005E-002    -1.1973380651397938E-006
   3.1800000000000023E-002    -6.5127437665062371E-007
   3.2900000000000013E-002    -4.8022020138079094E-008
   3.4000000000000002E-002     3.9559432707406814E-007
   3.5100000000000020E-002     7.1498755005462969E-007
   3.6200000000000010E-002     1.1028809012715062E-006
   3.7300000000000028E-002     1.6345326230294109E-006
   3.8400000000000017E-002     2.0449203930183885E-006
   3.9500000000000007E-002     1.7889807395476240E-006
   4.0600000000000025E-002     4.1815874851621670E-007
   4.1700000000000015E-002    -1.9561230146794005E-006
   4.2800000000000005E-002    -4.4672879084831020E-006
   4.3900000000000022E-002    -5.7925476539824320E-006
   4.5000000000000012E-002    -4.8520482778259367E-006
   4.6100000000000002E-002    -1.5165161357798622E-006
   4.7200000000000020E-002     3.1313218187282456E-006
   4.8300000000000010E-002     7.2034931690728650E-006
   4.9400000000000027E-002     8.9098875832865999E-006
   5.0500000000000017E-002     7.4739559750018203E-006
   5.1600000000000007E-002     3.5414307149040200E-006
   5.2700000000000025E-002    -1.1676347639880451E-006
   5.3800000000000014E-002    -4.7873122639435473E-006
   5.4900000000000004E-002    -6.2970420913193995E-006
   5.6000000000000022E-002    -6.0019815464332955E-006
   5.7100000000000012E-002    -5.2087998483331273E-006
   5.8200000000000002E-002    -5.2800314733758696E-006
   5.9300000000000019E-002    -6.6525176407595750E-006
   6.0400000000000009E-002    -8.4729617810811951E-006
   6.1500000000000027E-002    -9.1518913905027055E-006
   6.2600000000000017E-002    -7.5473485594566653E-006
   6.3700000000000007E-002    -4.0267859731112349E-006
   6.4800000000000024E-002    -6.5212418576356275E-007
   6.5900000000000014E-002    -2.3690856210206302E-007
   6.7000000000000004E-002    -4.7475427891195502E-006
   6.8100000000000022E-002    -1.3989688341099722E-005
   6.9200000000000012E-002    -2.5419454686927668E-005
   7.0300000000000029E-002    -3.5288743674757536E-005
   7.1400000000000019E-002    -4.0569288103145437E-005
   7.2500000000000009E-002    -4.0656614146430819E-005
   7.3600000000000027E-002    -3.7966143281667247E-005
   7.4700000000000016E-002    -3.7101133784747748E-005
   7.5800000000000006E-002    -4.2960706196030861E-005
   7.6900000000000024E-002    -5.8641278883448354E-005
   7.8000000000000014E-002    -8.4087136201569388E-005
   7.9100000000000004E-002    -1.1613754759311006E-004
   8.0200000000000021E-002    -1.5001471911092821E-004
   8.1300000000000011E-002    -1.8161628395320660E-004
   8.2400000000000029E-002    -2.0952167687939458E-004
   8.3500000000000019E-002    -2.3570073244629576E-004
   8.4600000000000009E-002    -2.6456586783754090E-004
   8.5700000000000026E-002    -3.0094059184196192E-004
   8.6800000000000016E-002    -3.4814374521377754E-004
   8.7900000000000006E-002    -4.0728654130365612E-004
   8.9000000000000024E-002    -4.7798088053245703E-004
   9.0100000000000013E-002    -5.5972498375927548E-004
   9.1200000000000003E-002    -6.5282161813235296E-004
   9.2300000000000021E-002    -7.5819669291383996E-004
   9.3400000000000011E-002    -8.7643851293258909E-004
   9.4500000000000028E-002    -1.0070387506858427E-003
   9.5600000000000018E-002    -1.1486749863253080E-003
   9.6700000000000008E-002    -1.3003505300731638E-003
   9.7800000000000026E-002    -1.4625613112003925E-003
   9.8900000000000016E-002    -1.6375004779548925E-003
  0.10000000000000001         -1.8279746873305894E-003
  0.10110000000000002         -2.0357347093524387E-003
  0.10220000000000001         -2.2603638935836216E-003
  0.10330000000000003         -2.4993463885041359E-003
  0.10440000000000002         -2.7494570240380873E-003
  0.10550000000000001         -3.0081665609034644E-003
  0.10660000000000003         -3.2744447235020986E-003
  0.10770000000000002         -3.5478263162079691E-003
  0.10880000000000001         -3.8266091141853230E-003
  0.10990000000000003         -4.1057728230956946E-003
  0.11100000000000002         -4.3764146976176905E-003
  0.11210000000000001         -4.6278070658449574E-003
  0.11320000000000002         -4.8504834994678144E-003
  0.11430000000000001         -5.0392211414878197E-003
  0.11540000000000003         -5.1929759792988276E-003
  0.11650000000000002         -5.3117466159169763E-003
  0.11760000000000001         -5.3912498988216099E-003
  0.11870000000000003         -5.4195257835095139E-003
  0.11980000000000002         -5.3775925189261612E-003
  0.12090000000000001         -5.2440855652098719E-003
  0.12200000000000003         -5.0034108571712817E-003
  0.12310000000000001         -4.6491059474651347E-003
  0.12420000000000003         -4.1825049556795677E-003
  0.12530000000000002         -3.6066612228754574E-003
  0.12640000000000001         -2.9193600639703674E-003
  0.12750000000000003         -2.1104142069818649E-003
  0.12860000000000002         -1.1660072486848849E-003
  0.12970000000000001         -7.5766998634230613E-005
  0.13080000000000003          1.1611400404945909E-003
  0.13190000000000002          2.5361538864674322E-003
  0.13300000000000001          4.0362305007878461E-003
  0.13410000000000000          5.6485091336076444E-003
  0.13520000000000004          7.3638716712600538E-003
  0.13630000000000003          9.1754850000151204E-003
  0.13740000000000002          1.1073296889663731E-002
  0.13850000000000001          1.3038044795395113E-002
  0.13960000000000000          1.5039129182697697E-002
  0.14070000000000005          1.7035389319063770E-002
  0.14180000000000004          1.8982591107489396E-002
  0.14290000000000003          2.0842447876932124E-002
  0.14400000000000002          2.2587062790991926E-002
  0.14510000000000001          2.4195957928898150E-002
  0.14620000000000000          2.5645880028607796E-002
  0.14730000000000004          2.6900898665192196E-002
  0.14840000000000003          2.7910282835366892E-002
  0.14950000000000002          2.8616022318604228E-002
  0.15060000000000001          2.8966963291170870E-002
  0.15170000000000000          2.8931112959983626E-002
  0.15280000000000005          2.8498958796265367E-002
  0.15390000000000004          2.7671277523043328E-002
  0.15500000000000003          2.6448655873539513E-002
  0.15610000000000002          2.4821676313879409E-002
  0.15720000000000001          2.2774172946812846E-002
  0.15830000000000000          2.0292926579715723E-002
  0.15940000000000004          1.7378659918905946E-002
  0.16050000000000003          1.4052761718632132E-002
  0.16160000000000002          1.0355545207859092E-002
  0.16270000000000001          6.3406396657234880E-003
  0.16380000000000000          2.0672616083177451E-003
  0.16490000000000005         -2.4055680260063805E-003
  0.16600000000000004         -7.0210024714475730E-003
  0.16710000000000003         -1.1722994968296110E-002
  0.16820000000000002         -1.6451891511680146E-002
  0.16930000000000001         -2.1139103919269535E-002
  0.17040000000000000         -2.5706404820086872E-002
  0.17150000000000004         -3.0071403831246221E-002
  0.17260000000000003         -3.4153576940301168E-002
  0.17370000000000002         -3.7881765514615633E-002
  0.17480000000000001         -4.1196521371606759E-002
  0.17590000000000000         -4.4042978435758794E-002
  0.17700000000000005         -4.6365700662140318E-002
  0.17810000000000004         -4.8110134899620648E-002
  0.17920000000000003         -4.9230389297013032E-002
  0.18030000000000002         -4.9698963761334217E-002
  0.18140000000000001         -4.9510661512617855E-002
  0.18250000000000000         -4.8676561564211566E-002
  0.18360000000000004         -4.7216899693016602E-002
  0.18470000000000003         -4.5153882354502087E-002
  0.18580000000000002         -4.2511820793155804E-002
  0.18690000000000001         -3.9322186261419138E-002
  0.18800000000000000         -3.5630233585837827E-002
  0.18910000000000005         -3.1495135277512638E-002
  0.19020000000000004         -2.6987204328181899E-002
  0.19130000000000003         -2.2182017564775659E-002
  0.19240000000000002         -1.7158757895232885E-002
  0.19350000000000001         -1.1999864131213398E-002
  0.19460000000000005         -6.7912163212902246E-003
  0.19570000000000004         -1.6176601639019551E-003
  0.19680000000000003          3.4410178195687729E-003
  0.19790000000000002          8.3103170618421974E-003
  0.19900000000000001          1.2923844158650581E-002
  0.20010000000000000          1.7222292721273052E-002
  0.20120000000000005          2.1155562251808164E-002
  0.20230000000000004          2.4683648720385878E-002
  0.20340000000000003          2.7774360030892037E-002
  0.20450000000000002          3.0397884547713191E-002
  0.20560000000000000          3.2522518187764277E-002
  0.20670000000000005          3.4118246287110590E-002
  0.20780000000000004          3.5169262439015754E-002
  0.20890000000000003          3.5685997456315455E-002
