 -0.12000000000000000          0.0000000000000000
 -0.11889999999999999          0.0000000000000000
 -0.11780000000000000          0.0000000000000000
 -0.11670000000000000          0.0000000000000000
 -0.11559999999999999          0.0000000000000000
 -0.11449999999999999          0.0000000000000000
 -0.11340000000000000          0.0000000000000000
 -0.11230000000000000         -2.9529222005859157E-022
 -0.11119999999999999         -2.4334062267983190E-021
 -0.11009999999999999         -7.1337889717970075E-021
 -0.10900000000000000          1.4167464249822915E-021
 -0.10790000000000000          7.6324743526789203E-020
 -0.10679999999999999          2.5093374326863376E-019
 -0.10569999999999999          2.9575589477770910E-019
 -0.10460000000000000         -5.1853300453110307E-019
 -0.10349999999999999         -2.8415533809138527E-018
 -0.10239999999999999         -5.1153469465738646E-018
 -0.10130000000000000         -1.4574539822151042E-018
 -0.10020000000000000          1.5242349614035009E-017
  -9.9099999999999994E-002     4.0599675516605254E-017
  -9.7999999999999990E-002     4.3756183499217807E-017
  -9.6899999999999986E-002    -2.4850583478791685E-017
  -9.5799999999999996E-002    -1.7893909823925996E-016
  -9.4699999999999993E-002    -3.1613244237088775E-016
  -9.3599999999999989E-002    -2.0516337063515111E-016
  -9.2499999999999999E-002     3.5033377989644428E-016
  -9.1399999999999995E-002     1.1931897959295969E-015
  -9.0299999999999991E-002     1.6055325285539235E-015
  -8.9200000000000002E-002     6.0617065837306749E-016
  -8.8099999999999984E-002    -2.1303778595952111E-015
  -8.6999999999999994E-002    -5.2884641822258539E-015
  -8.5899999999999990E-002    -5.9567397198080803E-015
  -8.4799999999999986E-002    -1.4490049691869467E-015
  -8.3699999999999997E-002     7.8162870530899646E-015
  -8.2599999999999993E-002     1.6703145824478217E-014
  -8.1499999999999989E-002     1.7374724367038262E-014
  -8.0399999999999999E-002     4.8614126165933379E-015
  -7.9299999999999995E-002    -1.7447166012819239E-014
  -7.8199999999999992E-002    -3.7437124933295887E-014
  -7.7100000000000002E-002    -4.1021873398161546E-014
  -7.5999999999999984E-002    -2.1946701590390069E-014
  -7.4899999999999994E-002     1.3213568287500158E-014
  -7.3799999999999991E-002     4.9611773429670755E-014
  -7.2699999999999987E-002     7.4287499979633353E-014
  -7.1599999999999997E-002     8.1646867814821195E-014
  -7.0499999999999993E-002     6.7995983192917220E-014
  -6.9399999999999989E-002     2.2022353491041140E-014
  -6.8300000000000000E-002    -7.2128257143019847E-014
  -6.7199999999999996E-002    -2.1008458102496352E-013
  -6.6099999999999992E-002    -3.3617588422220346E-013
  -6.5000000000000002E-002    -3.4237188279752362E-013
  -6.3899999999999985E-002    -1.2466693259313710E-013
  -6.2799999999999995E-002     3.2011998845997425E-013
  -6.1699999999999991E-002     8.2480604377682676E-013
  -6.0599999999999994E-002     1.0862424241336877E-012
  -5.9499999999999990E-002     8.2253258024134190E-013
  -5.8399999999999994E-002    -2.3338192069546383E-014
  -5.7299999999999990E-002    -1.1705569239600644E-012
  -5.6199999999999986E-002    -2.0814190215129313E-012
  -5.5099999999999996E-002    -2.2192655699249109E-012
  -5.3999999999999992E-002    -1.3421599985921628E-012
  -5.2899999999999989E-002     3.4201634580011131E-013
  -5.1799999999999985E-002     2.2455943354815489E-012
  -5.0699999999999995E-002     3.6407773497393325E-012
  -4.9599999999999991E-002     3.9270409840641562E-012
  -4.8499999999999988E-002     2.8126175433823564E-012
  -4.7399999999999998E-002     3.9511604166438119E-013
  -4.6299999999999994E-002    -2.8101067479913144E-012
  -4.5199999999999990E-002    -5.8811558054094881E-012
  -4.4099999999999986E-002    -7.6175715041371106E-012
  -4.2999999999999997E-002    -6.8859150152700277E-012
  -4.1899999999999993E-002    -3.1634419476317399E-012
  -4.0799999999999989E-002     2.9464358470426832E-012
  -3.9699999999999985E-002     9.5770769786840404E-012
  -3.8599999999999995E-002     1.4084591999641294E-011
  -3.7499999999999992E-002     1.4078851799659287E-011
  -3.6399999999999988E-002     8.5697993840172515E-012
  -3.5299999999999984E-002    -1.3431657045273604E-012
  -3.4199999999999994E-002    -1.2630294379811779E-011
  -3.3099999999999991E-002    -2.1322695345493692E-011
  -3.1999999999999987E-002    -2.3923373698719885E-011
  -3.0899999999999997E-002    -1.8660925235614023E-011
  -2.9799999999999993E-002    -6.1369811142630848E-012
  -2.8699999999999989E-002     1.0774049187534107E-011
  -2.7599999999999986E-002     2.7622647225111763E-011
  -2.6499999999999996E-002     3.9396999551577494E-011
  -2.5399999999999992E-002     4.1609313217172428E-011
  -2.4299999999999988E-002     3.1320782772903399E-011
  -2.3199999999999985E-002     8.0066101318387872E-012
  -2.2099999999999995E-002    -2.5927079927434704E-011
  -2.0999999999999991E-002    -6.5290564621456326E-011
  -1.9899999999999987E-002    -1.0321700438797876E-010
  -1.8799999999999983E-002    -1.3321202474436689E-010
  -1.7699999999999994E-002    -1.5159691557631305E-010
  -1.6599999999999990E-002    -1.5935218422580277E-010
  -1.5499999999999986E-002    -1.6239588840338826E-010
  -1.4399999999999996E-002    -1.6997754592740222E-010
  -1.3299999999999992E-002    -1.9184627497725870E-010
  -1.2199999999999989E-002    -2.3555099537553303E-010
  -1.1099999999999985E-002    -3.0514055171515508E-010
  -9.9999999999999950E-003    -4.0165748504961130E-010
  -8.8999999999999913E-003    -5.2474985468009550E-010
  -7.7999999999999875E-003    -6.7422012417495125E-010
  -6.6999999999999837E-003    -8.5072410227482465E-010
  -5.5999999999999939E-003    -1.0557590357507252E-009
  -4.4999999999999901E-003    -1.2917475977758386E-009
  -3.3999999999999864E-003    -1.5628855987159795E-009
  -2.2999999999999826E-003    -1.8766175280404696E-009
  -1.1999999999999927E-003    -2.2448516379114380E-009
  -9.9999999999988987E-005    -2.6839981348558695E-009
   1.0000000000000148E-003    -3.2136513450353732E-009
   2.1000000000000185E-003    -3.8546432712394108E-009
   3.2000000000000084E-003    -4.6275698828424083E-009
   4.3000000000000121E-003    -5.5524611575208382E-009
   5.4000000000000159E-003    -6.6494840744724115E-009
   6.5000000000000058E-003    -7.9400219732406185E-009
   7.6000000000000234E-003    -9.4475476331012942E-009
   8.7000000000000133E-003    -1.1198169502790734E-008
   9.8000000000000032E-003    -1.3221118422279687E-008
   1.0900000000000021E-002    -1.5549423082461544E-008
   1.2000000000000011E-002    -1.8220712050265320E-008
   1.3100000000000001E-002    -2.1277779538309005E-008
   1.4200000000000018E-002    -2.4768480599846043E-008
   1.5300000000000008E-002    -2.8744810975922519E-008
   1.6400000000000026E-002    -3.3261422061059420E-008
   1.7500000000000016E-002    -3.8374128763507542E-008
   1.8600000000000005E-002    -4.4139078170246648E-008
   1.9700000000000023E-002    -5.0612900537316818E-008
   2.0800000000000013E-002    -5.7853576151956077E-008
   2.1900000000000003E-002    -6.5921042846639466E-008
   2.3000000000000020E-002    -7.4876304267945670E-008
   2.4100000000000010E-002    -8.4778420728071069E-008
   2.5200000000000000E-002    -9.5680022127453412E-008
   2.6300000000000018E-002    -1.0762293811694690E-007
   2.7400000000000008E-002    -1.2063584620136680E-007
   2.8500000000000025E-002    -1.3473442095346400E-007
   2.9600000000000015E-002    -1.4992293984050775E-007
   3.0700000000000005E-002    -1.6619527798411582E-007
   3.1800000000000023E-002    -1.8353361497247533E-007
   3.2900000000000013E-002    -2.0190482530324516E-007
   3.4000000000000002E-002    -2.2125556142782443E-007
   3.5100000000000020E-002    -2.4150727995220223E-007
   3.6200000000000010E-002    -2.6255185048285057E-007
   3.7300000000000028E-002    -2.8424747711142118E-007
   3.8400000000000017E-002    -3.0641547255072510E-007
   3.9500000000000007E-002    -3.2883835388020088E-007
   4.0600000000000025E-002    -3.5126078046232578E-007
   4.1700000000000015E-002    -3.7339276559578138E-007
   4.2800000000000005E-002    -3.9491325765084184E-007
   4.3900000000000022E-002    -4.1547215801074344E-007
   4.5000000000000012E-002    -4.3468850208228105E-007
   4.6100000000000002E-002    -4.5214633814794070E-007
   4.7200000000000020E-002    -4.6739108938709251E-007
   4.8300000000000010E-002    -4.7992938334573410E-007
   4.9400000000000027E-002    -4.8923396889222204E-007
   5.0500000000000017E-002    -4.9475232799522928E-007
   5.1600000000000007E-002    -4.9591801598580787E-007
   5.2700000000000025E-002    -4.9216242814509314E-007
   5.3800000000000014E-002    -4.8292702103935881E-007
   5.4900000000000004E-002    -4.6767522121626826E-007
   5.6000000000000022E-002    -4.4590274228539784E-007
   5.7100000000000012E-002    -4.1714622511790367E-007
   5.8200000000000002E-002    -3.8099034327387926E-007
   5.9300000000000019E-002    -3.3707510738167912E-007
   6.0400000000000009E-002    -2.8510592642305710E-007
   6.1500000000000027E-002    -2.2486676698463270E-007
   6.2600000000000017E-002    -1.5623618310200982E-007
   6.3700000000000007E-002    -7.9203154257356800E-008
   6.4800000000000024E-002     6.1189755484747366E-009
   6.5900000000000014E-002     9.9481589188599173E-008
   6.7000000000000004E-002     2.0049273530275968E-007
   6.8100000000000022E-002     3.0861198752063501E-007
   6.9200000000000012E-002     4.2314860593251069E-007
   7.0300000000000029E-002     5.4326295639839373E-007
   7.1400000000000019E-002     6.6797059616874321E-007
   7.2500000000000009E-002     7.9614682135797921E-007
   7.3600000000000027E-002     9.2653141336995759E-007
   7.4700000000000016E-002     1.0577331295280601E-006
   7.5800000000000006E-002     1.1882372064064839E-006
   7.6900000000000024E-002     1.3164170695745270E-006
   7.8000000000000014E-002     1.4405504771275446E-006
   7.9100000000000004E-002     1.5588387896059430E-006
   8.0200000000000021E-002     1.6694270925654564E-006
   8.1300000000000011E-002     1.7704259107631515E-006
   8.2400000000000029E-002     1.8599345139591605E-006
   8.3500000000000019E-002     1.9360679743840592E-006
   8.4600000000000009E-002     1.9969861568824854E-006
   8.5700000000000026E-002     2.0409192984516267E-006
   8.6800000000000016E-002     2.0661927919718437E-006
   8.7900000000000006E-002     2.0712475361506222E-006
   8.9000000000000024E-002     2.0546583527902840E-006
   9.0100000000000013E-002     2.0151537682977505E-006
   9.1200000000000003E-002     1.9516367046890082E-006
   9.2300000000000021E-002     1.8632024421094684E-006
   9.3400000000000011E-002     1.7491531707491959E-006
   9.4500000000000028E-002     1.6090079952846281E-006
   9.5600000000000018E-002     1.4425120298255933E-006
   9.6700000000000008E-002     1.2496441286202753E-006
   9.7800000000000026E-002     1.0306234798918013E-006
   9.8900000000000016E-002     7.8591153851448325E-007
  0.10000000000000001          5.1620850172184873E-007
  0.10110000000000002          2.2244508102176042E-007
  0.10220000000000001         -9.4225846680728864E-008
  0.10330000000000003         -4.3243562686257064E-007
  0.10440000000000002         -7.9060367852434865E-007
  0.10550000000000001         -1.1669413879644708E-006
  0.10660000000000003         -1.5594582691846881E-006
  0.10770000000000002         -1.9659698864415986E-006
  0.10880000000000001         -2.3841057554818690E-006
  0.10990000000000003         -2.8113131520512979E-006
  0.11100000000000002         -3.2448613183078123E-006
  0.11210000000000001         -3.6818428270635195E-006
  0.11320000000000002         -4.1191774471371900E-006
  0.11430000000000001         -4.5536162360804155E-006
  0.11540000000000003         -4.9817449507827405E-006
  0.11650000000000002         -5.3999860938347410E-006
  0.11760000000000001         -5.8045998230227269E-006
  0.11870000000000003         -6.1916884988022503E-006
  0.11980000000000002         -6.5572080529818777E-006
  0.12090000000000001         -6.8969807216490153E-006
  0.12200000000000003         -7.2067136898112949E-006
  0.12310000000000001         -7.4820200097747147E-006
  0.12420000000000003         -7.7184467954793945E-006
  0.12530000000000002         -7.9115052358247340E-006
  0.12640000000000001         -8.0567151599097997E-006
  0.12750000000000003         -8.1496491475263610E-006
  0.12860000000000002         -8.1859916463145055E-006
  0.12970000000000001         -8.1615989984129556E-006
  0.13080000000000003         -8.0725667430670001E-006
  0.13190000000000002         -7.9153123806463555E-006
  0.13300000000000001         -7.6866517702001147E-006
  0.13410000000000000         -7.3838896241795737E-006
  0.13520000000000004         -7.0049027272034436E-006
  0.13630000000000003         -6.5482272475492209E-006
  0.13740000000000002         -6.0131424106657505E-006
  0.13850000000000001         -5.3997528084437363E-006
  0.13960000000000000         -4.7090643420233391E-006
  0.14070000000000005         -3.9430478864233010E-006
  0.14180000000000004         -3.1046927233546739E-006
  0.14290000000000003         -2.1980436031299178E-006
  0.14400000000000002         -1.2282265515750623E-006
  0.14510000000000001         -2.0145840551322181E-007
  0.14620000000000000          8.7496295009259484E-007
  0.14730000000000004          1.9926922050217399E-006
  0.14840000000000003          3.1423951440956444E-006
  0.14950000000000002          4.3138306864420883E-006
  0.15060000000000001          5.4959537010290660E-006
  0.15170000000000000          6.6770371631719172E-006
  0.15280000000000005          7.8448138083331287E-006
  0.15390000000000004          8.9866389316739514E-006
  0.15500000000000003          1.0089665920531843E-005
  0.15610000000000002          1.1141045433760155E-005
  0.15720000000000001          1.2128114576626103E-005
  0.15830000000000000          1.3038600627623964E-005
  0.15940000000000004          1.3860820217814762E-005
  0.16050000000000003          1.4583881238650065E-005
  0.16160000000000002          1.5197879292827565E-005
  0.16270000000000001          1.5694084140704945E-005
  0.16380000000000000          1.6065107047325000E-005
  0.16490000000000005          1.6305046301567927E-005
  0.16600000000000004          1.6409603631473146E-005
  0.16710000000000003          1.6376185158151202E-005
  0.16820000000000002          1.6203955965465866E-005
  0.16930000000000001          1.5893880117801018E-005
  0.17040000000000000          1.5448715203092434E-005
  0.17150000000000004          1.4872983228997327E-005
  0.17260000000000003          1.4172905139275827E-005
  0.17370000000000002          1.3356309864320792E-005
  0.17480000000000001          1.2432512448867783E-005
  0.17590000000000000          1.1412163985369261E-005
  0.17700000000000005          1.0307079719495960E-005
  0.17810000000000004          9.1300435087759979E-006
  0.17920000000000003          7.8945977293187752E-006
  0.18030000000000002          6.6148245423391927E-006
  0.18140000000000001          5.3051189752295613E-006
  0.18250000000000000          3.9799592741474044E-006
  0.18360000000000004          2.6536829409451457E-006
  0.18470000000000003          1.3402685681285220E-006
  0.18580000000000002          5.3135821076466527E-008
  0.18690000000000001         -1.1950407952099340E-006
  0.18800000000000000         -2.3925001642055577E-006
  0.18910000000000005         -3.5285449939692626E-006
  0.19020000000000004         -4.5936681090097409E-006
  0.19130000000000003         -5.5796517699491233E-006
  0.19240000000000002         -6.4796363403729629E-006
  0.19350000000000001         -7.2881630330812186E-006
  0.19460000000000005         -8.0011914178612642E-006
  0.19570000000000004         -8.6160926002776250E-006
  0.19680000000000003         -9.1316196630941704E-006
  0.19790000000000002         -9.5478571893181652E-006
  0.19900000000000001         -9.8661375886877067E-006
  0.20010000000000000         -1.0088946510222740E-005
  0.20120000000000005         -1.0219812793366145E-005
  0.20230000000000004         -1.0263192962156609E-005
  0.20340000000000003         -1.0224343895970378E-005
  0.20450000000000002         -1.0109199138241820E-005
  0.20560000000000000         -9.9242270152899437E-006
  0.20670000000000005         -9.6762996690813452E-006
  0.20780000000000004         -9.3725593615090474E-006
  0.20890000000000003         -9.0202938736183569E-006
