 -0.12000000000000000          0.0000000000000000
 -0.11889999999999999          0.0000000000000000
 -0.11780000000000000          0.0000000000000000
 -0.11670000000000000          0.0000000000000000
 -0.11559999999999999          0.0000000000000000
 -0.11449999999999999          0.0000000000000000
 -0.11340000000000000          0.0000000000000000
 -0.11230000000000000          0.0000000000000000
 -0.11119999999999999         -8.4870133177560508E-020
 -0.11009999999999999          4.8314802738374884E-019
 -0.10900000000000000          5.4951742217878023E-018
 -0.10790000000000000          9.0844142972305788E-018
 -0.10679999999999999         -5.1629602898135650E-017
 -0.10569999999999999         -2.6492895660223531E-016
 -0.10460000000000000         -3.2343900151343420E-016
 -0.10349999999999999          1.0838462068895393E-015
 -0.10239999999999999          5.0484878898076107E-015
 -0.10130000000000000          6.9721081833512309E-015
 -0.10020000000000000         -8.3072595365718780E-015
  -9.9099999999999994E-002    -5.2605740130751442E-014
  -9.7999999999999990E-002    -8.8958598517055706E-014
  -9.6899999999999986E-002     2.3690149929326055E-015
  -9.5799999999999996E-002     3.3045820854035019E-013
  -9.4699999999999993E-002     7.1271065221411034E-013
  -9.3599999999999989E-002     4.5468254270157421E-013
  -9.2499999999999999E-002    -1.2204372712086337E-012
  -9.1399999999999995E-002    -3.7997049083528416E-012
  -9.0299999999999991E-002    -4.2392786329947855E-012
  -8.9200000000000002E-002     1.6488767816406806E-012
  -8.8099999999999984E-002     1.3775819027173893E-011
  -8.6999999999999994E-002     2.1978604700102021E-011
  -8.5899999999999990E-002     8.8780432658246120E-012
  -8.4799999999999986E-002    -3.2546135925184976E-011
  -8.3699999999999997E-002    -7.6720366171127318E-011
  -8.2599999999999993E-002    -6.6809099918964189E-011
  -8.1499999999999989E-002     3.7909432537569387E-011
  -8.0399999999999999E-002     1.9103998938342464E-010
  -7.9299999999999995E-002     2.4182336688661813E-010
  -7.8199999999999992E-002     4.3397552912381691E-011
  -7.7100000000000002E-002    -3.5316727320380288E-010
  -7.5999999999999984E-002    -6.0889193687078372E-010
  -7.4899999999999994E-002    -3.1277774814600058E-010
  -7.3799999999999991E-002     5.4627447010348192E-010
  -7.2699999999999987E-002     1.2778463842622585E-009
  -7.1599999999999997E-002     8.7511375923561386E-010
  -7.0499999999999993E-002    -9.1992041761908538E-010
  -6.9399999999999989E-002    -2.7611435360341929E-009
  -6.8300000000000000E-002    -2.2895065843187430E-009
  -6.7199999999999996E-002     1.5888981241828990E-009
  -6.6099999999999992E-002     6.4537566402122328E-009
  -6.5000000000000002E-002     6.9463714780225249E-009
  -6.3899999999999985E-002    -7.1222594488799329E-010
  -6.2799999999999995E-002    -1.3202682502822159E-008
  -6.1699999999999991E-002    -1.9479223567486532E-008
  -6.0599999999999994E-002    -8.6240046215370648E-009
  -5.9499999999999990E-002     1.7968980969841638E-008
  -5.8399999999999994E-002     4.1361893465819786E-008
  -5.7299999999999990E-002     3.6128909641774146E-008
  -5.6199999999999986E-002    -6.2709308856798127E-009
  -5.5099999999999996E-002    -6.1007170870656914E-008
  -5.3999999999999992E-002    -8.0724483098040537E-008
  -5.2899999999999989E-002    -3.3932316512162247E-008
  -5.1799999999999985E-002     5.7736681213789200E-008
  -5.0699999999999995E-002     1.2212728961459052E-007
  -4.9599999999999991E-002     9.0928281792917672E-008
  -4.8499999999999988E-002    -3.1466662164805240E-008
  -4.7399999999999998E-002    -1.4978772355790224E-007
  -4.6299999999999994E-002    -1.4557419092399286E-007
  -4.5199999999999990E-002     1.0484696666415203E-008
  -4.4099999999999986E-002     2.0158873326181333E-007
  -4.2999999999999997E-002     2.3826926565107498E-007
  -4.1899999999999993E-002     2.7993523943346085E-008
  -4.0799999999999989E-002    -3.0071058176871473E-007
  -3.9699999999999985E-002    -4.5718695673711767E-007
  -3.8599999999999995E-002    -2.2512882935641872E-007
  -3.7499999999999992E-002     3.0578650012104233E-007
  -3.6399999999999988E-002     7.3908250897147142E-007
  -3.5299999999999984E-002     6.6092792394552791E-007
  -3.4199999999999994E-002     1.4992490804327187E-008
  -3.3099999999999991E-002    -7.6949135063847678E-007
  -3.1999999999999987E-002    -1.0660777434168430E-006
  -3.0899999999999997E-002    -5.6924733371483128E-007
  -2.9799999999999993E-002     3.9172894616979015E-007
  -2.8699999999999989E-002     1.0611029210850881E-006
  -2.7599999999999986E-002     8.7286861116815319E-007
  -2.6499999999999996E-002    -3.1117817656000448E-008
  -2.5399999999999992E-002    -8.6450614844592272E-007
  -2.4299999999999988E-002    -8.5068580801833248E-007
  -2.3199999999999985E-002     6.4756271456060159E-008
  -2.2099999999999995E-002     1.0892182444876644E-006
  -2.0999999999999991E-002     1.2215797369208797E-006
  -1.9899999999999987E-002     1.4924465574507456E-007
  -1.8799999999999983E-002    -1.3842956150254604E-006
  -1.7699999999999994E-002    -2.1194061901040421E-006
  -1.6599999999999990E-002    -1.3214720411268674E-006
  -1.5499999999999986E-002     5.5490943395855129E-007
  -1.4399999999999996E-002     2.1719504275096262E-006
  -1.3299999999999992E-002     2.3574539227408936E-006
  -1.2199999999999989E-002     1.0266809340461776E-006
  -1.1099999999999985E-002    -7.8498442235308000E-007
  -9.9999999999999950E-003    -1.7784352621675241E-006
  -8.8999999999999913E-003    -1.3964337313153183E-006
  -7.7999999999999875E-003    -1.6297146032652986E-007
  -6.6999999999999837E-003     8.4397231603393578E-007
  -5.5999999999999939E-003     8.6583850134065637E-007
  -4.4999999999999901E-003    -3.5538803899764055E-008
  -3.3999999999999864E-003    -1.1465665465950582E-006
  -2.2999999999999826E-003    -1.6630085610816396E-006
  -1.1999999999999927E-003    -1.1642314348138783E-006
  -9.9999999999988987E-005     2.3392203729599794E-007
   1.0000000000000148E-003     1.9615765722848471E-006
   2.1000000000000185E-003     3.1792010304345568E-006
   3.2000000000000084E-003     3.0897447231838057E-006
   4.3000000000000121E-003     1.4170382200972289E-006
   5.4000000000000159E-003    -1.1878419172720217E-006
   6.5000000000000058E-003    -3.2866842047955699E-006
   7.6000000000000234E-003    -3.5512539398044828E-006
   8.7000000000000133E-003    -1.8970911241922862E-006
   9.8000000000000032E-003     1.7735820279118572E-007
   1.0900000000000021E-002     6.5418629446936855E-007
   1.2000000000000011E-002    -1.1697979971350076E-006
   1.3100000000000001E-002    -3.6831957004315906E-006
   1.4200000000000018E-002    -3.9918709262560950E-006
   1.5300000000000008E-002    -4.5515702140639444E-007
   1.6400000000000026E-002     5.3911985560253098E-006
   1.7500000000000016E-002     9.4752067525391224E-006
   1.8600000000000005E-002     8.2535279943825620E-006
   1.9700000000000023E-002     1.7735051187618655E-006
   2.0800000000000013E-002    -6.0122943068562854E-006
   2.1900000000000003E-002    -1.0216347618551118E-005
   2.3000000000000020E-002    -8.8912793216856035E-006
   2.4100000000000010E-002    -4.4677876758191547E-006
   2.5200000000000000E-002    -1.4469484312924024E-006
   2.6300000000000018E-002    -2.3542704639108668E-006
   2.7400000000000008E-002    -5.5549589887968217E-006
   2.8500000000000025E-002    -6.8806675699321407E-006
   2.9600000000000015E-002    -3.5868172290079056E-006
   3.0700000000000005E-002     2.9187233394616679E-006
   3.1800000000000023E-002     7.9715609899724615E-006
   3.2900000000000013E-002     7.2961443038375951E-006
   3.4000000000000002E-002     2.0080139506854969E-007
   3.5100000000000020E-002    -1.0214885151070349E-005
   3.6200000000000010E-002    -1.9572731616788614E-005
   3.7300000000000028E-002    -2.4979772206277406E-005
   3.8400000000000017E-002    -2.5938206817952543E-005
   3.9500000000000007E-002    -2.3439502911057898E-005
   4.0600000000000025E-002    -1.8862672732209725E-005
   4.1700000000000015E-002    -1.3776530067842350E-005
   4.2800000000000005E-002    -1.0107547495862179E-005
   4.3900000000000022E-002    -9.5027344286777649E-006
   4.5000000000000012E-002    -1.1972143511227743E-005
   4.6100000000000002E-002    -1.5403929864984970E-005
   4.7200000000000020E-002    -1.7241214663950928E-005
   4.8300000000000010E-002    -1.7286594811590211E-005
   4.9400000000000027E-002    -1.8691589502846715E-005
   5.0500000000000017E-002    -2.5241424737028949E-005
   5.1600000000000007E-002    -3.6693454603661094E-005
   5.2700000000000025E-002    -4.6675046178275514E-005
   5.3800000000000014E-002    -4.6219429350453254E-005
   5.4900000000000004E-002    -3.0851402698311830E-005
   5.6000000000000022E-002    -5.2264172154478406E-006
   5.7100000000000012E-002     1.9495248125172341E-005
   5.8200000000000002E-002     3.4120002965212581E-005
   5.9300000000000019E-002     3.8693910028086907E-005
   6.0400000000000009E-002     4.2051182390421276E-005
   6.1500000000000027E-002     5.3967505664328572E-005
   6.2600000000000017E-002     7.6977186836298947E-005
   6.3700000000000007E-002     1.0533468594075791E-004
   6.4800000000000024E-002     1.3211916666477526E-004
   6.5900000000000014E-002     1.5747339057269814E-004
   6.7000000000000004E-002     1.8994997662956739E-004
   6.8100000000000022E-002     2.3940573737489385E-004
   6.9200000000000012E-002     3.0789204174650576E-004
   7.0300000000000029E-002     3.8714188849550744E-004
   7.1400000000000019E-002     4.6511879190799229E-004
   7.2500000000000009E-002     5.3549121366809789E-004
   7.3600000000000027E-002     6.0162885347376561E-004
   7.4700000000000016E-002     6.7226646933699215E-004
   7.5800000000000006E-002     7.5353361899027031E-004
   7.6900000000000024E-002     8.4487680578597380E-004
   7.8000000000000014E-002     9.4198348233468475E-004
   7.9100000000000004E-002     1.0420817416160427E-003
   8.0200000000000021E-002     1.1457717046140653E-003
   8.1300000000000011E-002     1.2537523871286624E-003
   8.2400000000000029E-002     1.3629533350466489E-003
   8.3500000000000019E-002     1.4670618111266378E-003
   8.4600000000000009E-002     1.5615689335389509E-003
   8.5700000000000026E-002     1.6472877468912278E-003
   8.6800000000000016E-002     1.7273395787922928E-003
   8.7900000000000006E-002     1.8006560858337397E-003
   8.9000000000000024E-002     1.8585380166767291E-003
   9.0100000000000013E-002     1.8893714295698401E-003
   9.1200000000000003E-002     1.8881361465899304E-003
   9.2300000000000021E-002     1.8609075341371824E-003
   9.3400000000000011E-002     1.8188441172240308E-003
   9.4500000000000028E-002     1.7659305594859686E-003
   9.5600000000000018E-002     1.6923500224946175E-003
   9.6700000000000008E-002     1.5802932903168927E-003
   9.7800000000000026E-002     1.4182945014907368E-003
   9.8900000000000016E-002     1.2099151499568015E-003
  0.10000000000000001          9.6906407270568224E-004
  0.10110000000000002          7.0518429856737197E-004
  0.10220000000000001          4.1362797492176123E-004
  0.10330000000000003          8.0504905781662728E-005
  0.10440000000000002         -3.0163480550983240E-004
  0.10550000000000001         -7.2305311914530872E-004
  0.10660000000000003         -1.1614265386014537E-003
  0.10770000000000002         -1.5990594401954559E-003
  0.10880000000000001         -2.0356045570223058E-003
  0.10990000000000003         -2.4843963328747042E-003
  0.11100000000000002         -2.9557803645727672E-003
  0.11210000000000001         -3.4422974567857568E-003
  0.11320000000000002         -3.9210445247587298E-003
  0.11430000000000001         -4.3692095205184111E-003
  0.11540000000000003         -4.7788359224792175E-003
  0.11650000000000002         -5.1566455513234388E-003
  0.11760000000000001         -5.5084503255779620E-003
  0.11870000000000003         -5.8262995444232956E-003
  0.11980000000000002         -6.0890652239317137E-003
  0.12090000000000001         -6.2772938981646492E-003
  0.12200000000000003         -6.3868183642619859E-003
  0.12310000000000001         -6.4275925979012157E-003
  0.12420000000000003         -6.4098509028547874E-003
  0.12530000000000002         -6.3307755626732026E-003
  0.12640000000000001         -6.1766891740256576E-003
  0.12750000000000003         -5.9360559098416759E-003
  0.12860000000000002         -5.6129409931594551E-003
  0.12970000000000001         -5.2253911271686057E-003
  0.13080000000000003         -4.7913249582047313E-003
  0.13190000000000002         -4.3156980536873616E-003
  0.13300000000000001         -3.7908798549320263E-003
  0.13410000000000000         -3.2118156086649993E-003
  0.13520000000000004         -2.5885088834908666E-003
  0.13630000000000003         -1.9454424036664411E-003
  0.13740000000000002         -1.3075772440059223E-003
  0.13850000000000001         -6.8806321360159360E-004
  0.13960000000000000         -8.7972897745148461E-005
  0.14070000000000005          4.9045315245166096E-004
  0.14180000000000004          1.0327879572286629E-003
  0.14290000000000003          1.5138642629607452E-003
  0.14400000000000002          1.9111515721304715E-003
  0.14510000000000001          2.2155696060506633E-003
  0.14620000000000000          2.4305996485052338E-003
  0.14730000000000004          2.5580716319379823E-003
  0.14840000000000003          2.5877519510683917E-003
  0.14950000000000002          2.4989235680547848E-003
  0.15060000000000001          2.2753777448085554E-003
  0.15170000000000000          1.9177722278980246E-003
  0.15280000000000005          1.4425191329790320E-003
  0.15390000000000004          8.6747942259521413E-004
  0.15500000000000003          1.9817434076677181E-004
  0.15610000000000002         -5.7308928808199201E-004
  0.15720000000000001         -1.4534277142956304E-003
  0.15830000000000000         -2.4350292515008284E-003
  0.15940000000000004         -3.4930361434815076E-003
  0.16050000000000003         -4.5957267284390119E-003
  0.16160000000000002         -5.7186814956362809E-003
  0.16270000000000001         -6.8482989445323456E-003
  0.16380000000000000         -7.9716835170977954E-003
  0.16490000000000005         -9.0642226859919840E-003
  0.16600000000000004         -1.0084888897835379E-002
  0.16710000000000003         -1.0987180285154857E-002
  0.16820000000000002         -1.1735697276889284E-002
  0.16930000000000001         -1.2312297709285153E-002
  0.17040000000000000         -1.2706128880380474E-002
  0.17150000000000004         -1.2896652333437255E-002
  0.17260000000000003         -1.2842620722948353E-002
  0.17370000000000002         -1.2489672750233466E-002
  0.17480000000000001         -1.1791373603044844E-002
  0.17590000000000000         -1.0722190141676829E-002
  0.17700000000000005         -9.2793153598895364E-003
  0.17810000000000004         -7.4631194584063769E-003
  0.17920000000000003         -5.2599674090736950E-003
  0.18030000000000002         -2.6419756468381468E-003
  0.18140000000000001          4.1505167610026957E-004
  0.18250000000000000          3.9108232595025131E-003
  0.18360000000000004          7.8120883554215620E-003
  0.18470000000000003          1.2068721465765613E-002
  0.18580000000000002          1.6638629138468485E-002
  0.18690000000000001          2.1497225388882914E-002
  0.18800000000000000          2.6621973142025777E-002
  0.18910000000000005          3.1962323933837251E-002
  0.19020000000000004          3.7426408380266979E-002
  0.19130000000000003          4.2899690568443602E-002
  0.19240000000000002          4.8277072608466920E-002
  0.19350000000000001          5.3486894816155720E-002
  0.19460000000000005          5.8466896414751827E-002
  0.19570000000000004          6.3131190836424211E-002
  0.19680000000000003          6.7340478301042492E-002
  0.19790000000000002          7.0931941270822099E-002
  0.19900000000000001          7.3765106499188660E-002
  0.20010000000000000          7.5754269957535744E-002
  0.20120000000000005          7.6854921877377344E-002
  0.20230000000000004          7.7012449502938035E-002
  0.20340000000000003          7.6131112873547346E-002
  0.20450000000000002          7.4092134833329104E-002
  0.20560000000000000          7.0811197161667949E-002
  0.20670000000000005          6.6278144717210274E-002
  0.20780000000000004          6.0544639825815143E-002
  0.20890000000000003          5.3668368607754244E-002
