 -0.12000000000000000          0.0000000000000000
 -0.11889999999999999          0.0000000000000000
 -0.11780000000000000          0.0000000000000000
 -0.11670000000000000          0.0000000000000000
 -0.11559999999999999          0.0000000000000000
 -0.11449999999999999          0.0000000000000000
 -0.11340000000000000          0.0000000000000000
 -0.11230000000000000          0.0000000000000000
 -0.11119999999999999          0.0000000000000000
 -0.11009999999999999          0.0000000000000000
 -0.10900000000000000         -2.5479933921685305E-018
 -0.10790000000000000         -1.3141950268763822E-017
 -0.10679999999999999          4.1524612333949799E-017
 -0.10569999999999999          6.0103028011397716E-016
 -0.10460000000000000          2.3494114741509902E-015
 -0.10349999999999999          3.0684577430751658E-015
 -0.10239999999999999         -1.0128698010522519E-014
 -0.10130000000000000         -6.0010305644002393E-014
 -0.10020000000000000         -1.3100017761096677E-013
  -9.9099999999999994E-002    -5.4405807116408855E-014
  -9.7999999999999990E-002     5.3460409927055808E-013
  -9.6899999999999986E-002     1.7926725642131158E-012
  -9.5799999999999996E-002     2.5743259520621953E-012
  -9.4699999999999993E-002    -4.7487160688072794E-013
  -9.3599999999999989E-002    -1.1034145819266428E-011
  -9.2499999999999999E-002    -2.6074468972847598E-011
  -9.1399999999999995E-002    -2.6982093642713423E-011
  -9.0299999999999991E-002     1.7960410936268545E-011
  -8.9200000000000002E-002     1.2357632972470611E-010
  -8.8099999999999984E-002     2.3419213790454307E-010
  -8.6999999999999994E-002     1.9382428995129430E-010
  -8.5899999999999990E-002    -1.8164561521594180E-010
  -8.4799999999999986E-002    -8.9434615269112783E-010
  -8.3699999999999997E-002    -1.5196863767386048E-009
  -8.2599999999999993E-002    -1.1879250916280171E-009
  -8.1499999999999989E-002     9.4065089051298401E-010
  -8.0399999999999999E-002     4.7161590188693481E-009
  -7.9299999999999995E-002     8.0623232534549061E-009
  -7.8199999999999992E-002     7.0026398013567359E-009
  -7.7100000000000002E-002    -2.4237380991110058E-009
  -7.5999999999999984E-002    -2.0212430840160778E-008
  -7.4899999999999994E-002    -3.7972565536392722E-008
  -7.3799999999999991E-002    -3.7890128368189835E-008
  -7.2699999999999987E-002    -2.5304425221861493E-010
  -7.1599999999999997E-002     7.8088660870889726E-008
  -7.0499999999999993E-002     1.6162201177394309E-007
  -6.9399999999999989E-002     1.7138218311174569E-007
  -6.8300000000000000E-002     2.3169880236650897E-008
  -6.7199999999999996E-002    -2.8752089065164910E-007
  -6.6099999999999992E-002    -6.0208253671589773E-007
  -6.5000000000000002E-002    -6.1354688796200207E-007
  -6.3899999999999985E-002    -5.6230835099313481E-008
  -6.2799999999999995E-002     9.8388511560187908E-007
  -6.1699999999999991E-002     1.8770857650451944E-006
  -6.0599999999999994E-002     1.6794949715404073E-006
  -5.9499999999999990E-002    -1.4384501412223472E-007
  -5.8399999999999994E-002    -2.9185841867729323E-006
  -5.7299999999999990E-002    -4.6722993829462212E-006
  -5.6199999999999986E-002    -3.2991504212986911E-006
  -5.5099999999999996E-002     1.4810394759479095E-006
  -5.3999999999999992E-002     6.9406828515639063E-006
  -5.2899999999999989E-002     8.5649935499532148E-006
  -5.1799999999999985E-002     3.6238991469872417E-006
  -5.0699999999999995E-002    -5.4731413001718465E-006
  -4.9599999999999991E-002    -1.1631529559963383E-005
  -4.8499999999999988E-002    -8.5419214883586392E-006
  -4.7399999999999998E-002     2.5082715637836372E-006
  -4.6299999999999994E-002     1.1332400390529074E-005
  -4.5199999999999990E-002     6.9516077019216027E-006
  -4.4099999999999986E-002    -9.7718411780078895E-006
  -4.2999999999999997E-002    -2.1409872715594247E-005
  -4.1899999999999993E-002    -6.6986958699999377E-006
  -4.0799999999999989E-002     3.5012588341487572E-005
  -3.9699999999999985E-002     6.9880356022622436E-005
  -3.8599999999999995E-002     4.8260899347951636E-005
  -3.7499999999999992E-002    -4.7258381528081372E-005
  -3.6399999999999988E-002    -1.6226521984208375E-004
  -3.5299999999999984E-002    -1.8746434943750501E-004
  -3.4199999999999994E-002    -4.3458927393658087E-005
  -3.3099999999999991E-002     2.2184259432833642E-004
  -3.1999999999999987E-002     4.1766400681808591E-004
  -3.0899999999999997E-002     3.2993458444252610E-004
  -2.9799999999999993E-002    -8.4106948634143919E-005
  -2.8699999999999989E-002    -5.8585888473317027E-004
  -2.7599999999999986E-002    -7.6903693843632936E-004
  -2.6499999999999996E-002    -3.7099042674526572E-004
  -2.5399999999999992E-002     4.4352808617986739E-004
  -2.4299999999999988E-002     1.1004726402461529E-003
  -2.3199999999999985E-002     1.0123320389539003E-003
  -2.2099999999999995E-002     9.4926552264951169E-005
  -2.0999999999999991E-002    -1.0384260676801205E-003
  -1.9899999999999987E-002    -1.4679022133350372E-003
  -1.8799999999999983E-002    -7.2667293716222048E-004
  -1.7699999999999994E-002     6.8772252416238189E-004
  -1.6599999999999990E-002     1.5842481516301632E-003
  -1.5499999999999986E-002     1.0553655447438359E-003
  -1.4399999999999996E-002    -6.0328701511025429E-004
  -1.3299999999999992E-002    -1.9200432579964399E-003
  -1.2199999999999989E-002    -1.4177771518006921E-003
  -1.1099999999999985E-002     9.2293426860123873E-004
  -9.9999999999999950E-003     3.2457245979458094E-003
  -8.8999999999999913E-003     3.1122788786888123E-003
  -7.7999999999999875E-003    -2.8948878752999008E-004
  -6.6999999999999837E-003    -4.8802020028233528E-003
  -5.5999999999999939E-003    -6.7920289002358913E-003
  -4.4999999999999901E-003    -3.4107612445950508E-003
  -3.3999999999999864E-003     3.9451387710869312E-003
  -2.2999999999999826E-003     1.0191596113145351E-002
  -1.1999999999999927E-003     9.9600479006767273E-003
  -9.9999999999988987E-005     2.0381498616188765E-003
   1.0000000000000148E-003    -8.8512031361460686E-003
   2.1000000000000185E-003    -1.4885354787111282E-002
   3.2000000000000084E-003    -1.0931896045804024E-002
   4.3000000000000121E-003     1.0830650571733713E-003
   5.4000000000000159E-003     1.2971567921340466E-002
   6.5000000000000058E-003     1.6133047640323639E-002
   7.6000000000000234E-003     8.1723993644118309E-003
   8.7000000000000133E-003    -4.9973730929195881E-003
   9.8000000000000032E-003    -1.3549706898629665E-002
   1.0900000000000021E-002    -1.1421363800764084E-002
   1.2000000000000011E-002    -1.1678140144795179E-003
   1.3100000000000001E-002     8.1143267452716827E-003
   1.4200000000000018E-002     8.3783417940139771E-003
   1.5300000000000008E-002    -3.6674956209026277E-004
   1.6400000000000026E-002    -9.6122911199927330E-003
   1.7500000000000016E-002    -9.3264458701014519E-003
   1.8600000000000005E-002     2.9802345670759678E-003
   1.9700000000000023E-002     1.8659055233001709E-002
   2.0800000000000013E-002     2.3525338619947433E-002
   2.1900000000000003E-002     9.1698728501796722E-003
   2.3000000000000020E-002    -1.8576178699731827E-002
   2.4100000000000010E-002    -4.1316933929920197E-002
   2.5200000000000000E-002    -4.0087401866912842E-002
   2.6300000000000018E-002    -9.8648499697446823E-003
   2.7400000000000008E-002     3.4091055393218994E-002
   2.8500000000000025E-002     6.3939705491065979E-002
   2.9600000000000015E-002     5.7207819074392319E-002
   3.0700000000000005E-002     1.3270744122564793E-002
   3.1800000000000023E-002    -4.3612957000732422E-002
   3.2900000000000013E-002    -7.8336201608181000E-002
   3.4000000000000002E-002    -6.7813642323017120E-002
   3.5100000000000020E-002    -1.7305744811892509E-002
   3.6200000000000010E-002     4.1896894574165344E-002
   3.7300000000000028E-002     7.3056414723396301E-002
   3.8400000000000017E-002     5.9076488018035889E-002
   3.9500000000000007E-002     1.4007092453539371E-002
   4.0600000000000025E-002    -2.8111398220062256E-002
   4.1700000000000015E-002    -3.9365556091070175E-002
   4.2800000000000005E-002    -1.9205996766686440E-002
   4.3900000000000022E-002     6.3690785318613052E-003
   4.5000000000000012E-002     8.0225057899951935E-003
   4.6100000000000002E-002    -1.9615260884165764E-002
   4.7200000000000020E-002    -4.9952536821365356E-002
   4.8300000000000010E-002    -4.4983264058828354E-002
   4.9400000000000027E-002     1.0066717863082886E-002
   5.0500000000000017E-002     8.6593329906463623E-002
   5.1600000000000007E-002    0.12706106901168823
   5.2700000000000025E-002     8.7464496493339539E-002
   5.3800000000000014E-002    -2.3315779864788055E-002
   5.4900000000000004E-002   -0.14010550081729889
   5.6000000000000022E-002   -0.18186512589454651
   5.7100000000000012E-002   -0.10985483974218369
   5.8200000000000002E-002     3.9124384522438049E-002
   5.9300000000000019E-002    0.17177233099937439
   6.0400000000000009E-002    0.19960708916187286
   6.1500000000000027E-002    0.10059235990047455
   6.2600000000000017E-002    -6.3073605298995972E-002
   6.3700000000000007E-002   -0.18506227433681488
   6.4800000000000024E-002   -0.18609644472599030
   6.5900000000000014E-002    -6.7228391766548157E-002
   6.7000000000000004E-002     9.1456115245819092E-002
   6.8100000000000022E-002    0.18555495142936707
   6.9200000000000012E-002    0.15671183168888092
   7.0300000000000029E-002     3.0557176098227501E-002
   7.1400000000000019E-002   -0.10319845378398895
   7.2500000000000009E-002   -0.15419603884220123
   7.3600000000000027E-002    -9.4251275062561035E-002
   7.4700000000000016E-002     2.4330107495188713E-002
   7.5800000000000006E-002    0.10827741026878357
   7.6900000000000024E-002     9.3213491141796112E-002
   7.8000000000000014E-002    -6.5209199674427509E-003
   7.9100000000000004E-002   -0.10613884776830673
   8.0200000000000021E-002   -0.11389611661434174
   8.1300000000000011E-002    -4.7548930160701275E-003
   8.2400000000000029E-002    0.15209802985191345
   8.3500000000000019E-002    0.23738799989223480
   8.4600000000000009E-002    0.16980743408203125
   8.5700000000000026E-002    -2.6729458943009377E-002
   8.6800000000000016E-002   -0.23025365173816681
   8.7900000000000006E-002   -0.30278515815734863
   8.9000000000000024E-002   -0.18935537338256836
   9.0100000000000013E-002     3.9947211742401123E-002
   9.1200000000000003E-002    0.23830971121788025
   9.2300000000000021E-002    0.28628480434417725
   9.3400000000000011E-002    0.17397955060005188
   9.4500000000000028E-002     3.7934471038170159E-004
   9.5600000000000018E-002   -0.10679584741592407
   9.6700000000000008E-002    -8.7343201041221619E-002
   9.7800000000000026E-002     1.3126904144883156E-002
   9.8900000000000016E-002     8.8509581983089447E-002
  0.10000000000000001          6.1872612684965134E-002
  0.10110000000000002         -5.2089773118495941E-002
  0.10220000000000001        -0.15846170485019684
  0.10330000000000003        -0.15595833957195282
  0.10440000000000002         -1.7092900350689888E-002
  0.10550000000000001         0.18578611314296722
  0.10660000000000003         0.32466742396354675
  0.10770000000000002         0.30132904648780823
  0.10880000000000001         0.11406919360160828
  0.10990000000000003        -0.13499943912029266
  0.11100000000000002        -0.29988116025924683
  0.11210000000000001        -0.27959775924682617
  0.11320000000000002         -8.4488026797771454E-002
  0.11430000000000001         0.16478167474269867
  0.11540000000000003         0.31204199790954590
  0.11650000000000002         0.26259344816207886
  0.11760000000000001          4.9691308289766312E-002
  0.11870000000000003        -0.18692018091678619
  0.11980000000000002        -0.29501473903656006
  0.12090000000000001        -0.21482913196086884
  0.12200000000000003         -1.5705252066254616E-002
  0.12310000000000001         0.16051319241523743
  0.12420000000000003         0.20678122341632843
  0.12530000000000002         0.12065574526786804
  0.12640000000000001         -9.1804889962077141E-003
  0.12750000000000003         -9.1691225767135620E-002
  0.12860000000000002        -0.11005598306655884
  0.12970000000000001        -0.11827877908945084
  0.13080000000000003        -0.16631768643856049
  0.13190000000000002        -0.23370386660099030
  0.13300000000000001        -0.24012327194213867
  0.13410000000000000        -0.11841738969087601
  0.13520000000000004          9.3946479260921478E-002
  0.13630000000000003         0.26259464025497437
  0.13740000000000002         0.25020316243171692
  0.13850000000000001          3.8513690233230591E-002
  0.13960000000000000        -0.24917572736740112
  0.14070000000000005        -0.42845880985260010
  0.14180000000000004        -0.38642638921737671
  0.14290000000000003        -0.15710696578025818
  0.14400000000000002         0.11290097981691360
  0.14510000000000001         0.26767593622207642
  0.14620000000000000         0.23455676436424255
  0.14730000000000004          4.8378519713878632E-002
  0.14840000000000003        -0.18544706702232361
  0.14950000000000002        -0.35086831450462341
  0.15060000000000001        -0.36350873112678528
  0.15170000000000000        -0.19882808625698090
  0.15280000000000005          8.1812299787998199E-002
  0.15390000000000004         0.34350010752677917
  0.15500000000000003         0.44006711244583130
  0.15610000000000002         0.31091845035552979
  0.15720000000000001          4.1722059249877930E-002
  0.15830000000000000        -0.18142478168010712
  0.15940000000000004        -0.20835356414318085
  0.16050000000000003         -5.2273105829954147E-002
  0.16160000000000002         0.11710625886917114
  0.16270000000000001         0.12490445375442505
  0.16380000000000000         -3.9349157363176346E-002
  0.16490000000000005        -0.19714829325675964
  0.16600000000000004        -0.14066062867641449
  0.16710000000000003         0.15901668369770050
  0.16820000000000002         0.49527460336685181
  0.16930000000000001         0.58848184347152710
  0.17040000000000000         0.33603751659393311
  0.17150000000000004         -8.1694208085536957E-002
  0.17260000000000003        -0.34562397003173828
  0.17370000000000002        -0.27266055345535278
  0.17480000000000001          2.9631542041897774E-002
  0.17590000000000000         0.27535453438758850
  0.17700000000000005         0.26404857635498047
  0.17810000000000004          4.5294176787137985E-002
  0.17920000000000003        -0.15115356445312500
  0.18030000000000002        -0.15309396386146545
  0.18140000000000001         -7.2827064432203770E-003
  0.18250000000000000          9.1417334973812103E-002
  0.18360000000000004          2.4274615570902824E-002
  0.18470000000000003        -0.12782704830169678
  0.18580000000000002        -0.17406612634658813
  0.18690000000000001         -3.0633864924311638E-002
  0.18800000000000000         0.18489789962768555
  0.18910000000000005         0.26438328623771667
  0.19020000000000004         0.13633197546005249
  0.19130000000000003         -6.5297193825244904E-002
  0.19240000000000002        -0.14722783863544464
  0.19350000000000001         -8.0975241959095001E-002
  0.19460000000000005         -4.4260218739509583E-002
  0.19570000000000004        -0.21696414053440094
  0.19680000000000003        -0.53511404991149902
  0.19790000000000002        -0.69053286314010620
  0.19900000000000001        -0.41448837518692017
  0.20010000000000000         0.20586208999156952
  0.20120000000000005         0.72795832157135010
  0.20230000000000004         0.71204060316085815
  0.20340000000000003         0.12941777706146240
  0.20450000000000002        -0.57403630018234253
  0.20560000000000000        -0.85531020164489746
  0.20670000000000005        -0.54787784814834595
  0.20780000000000004          4.9853823147714138E-003
  0.20890000000000003         0.29181507229804993
