 -0.12000000000000000          0.0000000000000000
 -0.11889999999999999          0.0000000000000000
 -0.11780000000000000          0.0000000000000000
 -0.11670000000000000          3.3782165701268241E-005
 -0.11559999999999999          8.6343381553888321E-005
 -0.11449999999999999         -1.4996306163084228E-005
 -0.11340000000000000         -4.1691254591569304E-004
 -0.11230000000000000         -8.5535232210531831E-004
 -0.11119999999999999         -7.4979156488552690E-004
 -0.11009999999999999         -3.6397359508555382E-005
 -0.10900000000000000          3.2520928652957082E-004
 -0.10790000000000000         -5.2059831796213984E-004
 -0.10679999999999999         -1.3631909387186170E-003
 -0.10569999999999999          8.1507890718057752E-004
 -0.10460000000000000          6.7951185628771782E-003
 -0.10349999999999999          1.1009534820914268E-002
 -0.10239999999999999          4.0693469345569611E-003
 -0.10130000000000000         -1.6731480136513710E-002
 -0.10020000000000000         -3.8285542279481888E-002
  -9.9099999999999994E-002    -3.7065923213958740E-002
  -9.7999999999999990E-002    -4.6560761984437704E-004
  -9.6899999999999986E-002     5.3651124238967896E-002
  -9.5799999999999996E-002     8.2538358867168427E-002
  -9.4699999999999993E-002     5.2710793912410736E-002
  -9.3599999999999989E-002    -2.4701330810785294E-002
  -9.2499999999999999E-002    -9.4180010259151459E-002
  -9.1399999999999995E-002    -9.9987760186195374E-002
  -9.0299999999999991E-002    -3.8349550217390060E-002
  -8.9200000000000002E-002     3.3695265650749207E-002
  -8.8099999999999984E-002     4.8413805663585663E-002
  -8.6999999999999994E-002    -5.7894345372915268E-003
  -8.5899999999999990E-002    -6.5942563116550446E-002
  -8.4799999999999986E-002    -4.9007002264261246E-002
  -8.3699999999999997E-002     6.5908506512641907E-002
  -8.2599999999999993E-002    0.20410087704658508
  -8.1499999999999989E-002    0.24612680077552795
  -8.0399999999999999E-002    0.12231528759002686
  -7.9299999999999995E-002   -0.12835849821567535
  -7.8199999999999992E-002   -0.38008302450180054
  -7.7100000000000002E-002   -0.49774155020713806
  -7.5999999999999984E-002   -0.40835005044937134
  -7.4899999999999994E-002   -0.12859864532947540
  -7.3799999999999991E-002    0.24329407513141632
  -7.2699999999999987E-002    0.55068016052246094
  -7.1599999999999997E-002    0.62138867378234863
  -7.0499999999999993E-002    0.34801647067070007
  -6.9399999999999989E-002   -0.21620671451091766
  -6.8300000000000000E-002   -0.82558166980743408
  -6.7199999999999996E-002    -1.1483055353164673
  -6.6099999999999992E-002   -0.98329228162765503
  -6.5000000000000002E-002   -0.43750509619712830
  -6.3899999999999985E-002     9.9876329302787781E-002
  -6.2799999999999995E-002    0.20775233209133148
  -6.1699999999999991E-002   -0.26398035883903503
  -6.0599999999999994E-002    -1.0779037475585938
  -5.9499999999999990E-002    -1.7803499698638916
  -5.8399999999999994E-002    -2.0290281772613525
  -5.7299999999999990E-002    -1.8222639560699463
  -5.6199999999999986E-002    -1.4693865776062012
  -5.5099999999999996E-002    -1.3606940507888794
  -5.3999999999999992E-002    -1.7375015020370483
  -5.2899999999999989E-002    -2.6149830818176270
  -5.1799999999999985E-002    -3.8493278026580811
  -5.0699999999999995E-002    -5.2376093864440918
  -4.9599999999999991E-002    -6.5780892372131348
  -4.8499999999999988E-002    -7.7183003425598145
  -4.7399999999999998E-002    -8.6396064758300781
  -4.6299999999999994E-002    -9.5421285629272461
  -4.5199999999999990E-002    -10.818270683288574
  -4.4099999999999986E-002    -12.861472129821777
  -4.2999999999999997E-002    -15.819520950317383
  -4.1899999999999993E-002    -19.499675750732422
  -4.0799999999999989E-002    -23.533033370971680
  -3.9699999999999985E-002    -27.679939270019531
  -3.8599999999999995E-002    -32.019203186035156
  -3.7499999999999992E-002    -36.865352630615234
  -3.6399999999999988E-002    -42.509979248046875
  -3.5299999999999984E-002    -49.042938232421875
  -3.4199999999999994E-002    -56.412536621093750
  -3.3099999999999991E-002    -64.636436462402344
  -3.1999999999999987E-002    -73.922264099121094
  -3.0899999999999997E-002    -84.561988830566406
  -2.9799999999999993E-002    -96.698066711425781
  -2.8699999999999989E-002    -110.20401000976562
  -2.7599999999999986E-002    -124.80767059326172
  -2.6499999999999996E-002    -140.34335327148438
  -2.5399999999999992E-002    -156.91003417968750
  -2.4299999999999988E-002    -174.80274963378906
  -2.3199999999999985E-002    -194.30055236816406
  -2.2099999999999995E-002    -215.50350952148438
  -2.0999999999999991E-002    -238.30406188964844
  -1.9899999999999987E-002    -262.46365356445312
  -1.8799999999999983E-002    -287.69110107421875
  -1.7699999999999994E-002    -313.69833374023438
  -1.6599999999999990E-002    -340.25079345703125
  -1.5499999999999986E-002    -367.22463989257812
  -1.4399999999999996E-002    -394.58105468750000
  -1.3299999999999992E-002    -422.22286987304688
  -1.2199999999999989E-002    -449.81649780273438
  -1.1099999999999985E-002    -476.75305175781250
  -9.9999999999999950E-003    -502.31967163085938
  -8.8999999999999913E-003    -525.96978759765625
  -7.7999999999999875E-003    -547.37902832031250
  -6.6999999999999837E-003    -566.24108886718750
  -5.5999999999999939E-003    -581.96759033203125
  -4.4999999999999901E-003    -593.62609863281250
  -3.3999999999999864E-003    -600.23297119140625
  -2.2999999999999826E-003    -601.10070800781250
  -1.1999999999999927E-003    -595.89288330078125
  -9.9999999999988987E-005    -584.30273437500000
   1.0000000000000148E-003    -565.69622802734375
   2.1000000000000185E-003    -539.15087890625000
   3.2000000000000084E-003    -503.88034057617188
   4.3000000000000121E-003    -459.63546752929688
   5.4000000000000159E-003    -406.59121704101562
   6.5000000000000058E-003    -344.79742431640625
   7.6000000000000234E-003    -273.79165649414062
   8.7000000000000133E-003    -192.86766052246094
   9.8000000000000032E-003    -101.86103057861328
   1.0900000000000021E-002    -1.6333656311035156
   1.2000000000000011E-002     106.29948425292969
   1.3100000000000001E-002     220.68220520019531
   1.4200000000000018E-002     341.13024902343750
   1.5300000000000008E-002     467.67303466796875
   1.6400000000000026E-002     599.67260742187500
   1.7500000000000016E-002     735.16632080078125
   1.8600000000000005E-002     871.39971923828125
   1.9700000000000023E-002     1006.1036376953125
   2.0800000000000013E-002     1138.1983642578125
   2.1900000000000003E-002     1267.1962890625000
   2.3000000000000020E-002     1391.8088378906250
   2.4100000000000010E-002     1509.2229003906250
   2.5200000000000000E-002     1615.9038085937500
   2.6300000000000018E-002     1709.2390136718750
   2.7400000000000008E-002     1788.3714599609375
   2.8500000000000025E-002     1853.3713378906250
   2.9600000000000015E-002     1903.5006103515625
   3.0700000000000005E-002     1936.4085693359375
   3.1800000000000023E-002     1949.1652832031250
   3.2900000000000013E-002     1940.2208251953125
   3.4000000000000002E-002     1910.2785644531250
   3.5100000000000020E-002     1861.1685791015625
   3.6200000000000010E-002     1793.7523193359375
   3.7300000000000028E-002     1707.0775146484375
   3.8400000000000017E-002     1599.6412353515625
   3.9500000000000007E-002     1471.6851806640625
   4.0600000000000025E-002     1326.0551757812500
   4.1700000000000015E-002     1166.7906494140625
   4.2800000000000005E-002     996.66271972656250
   4.3900000000000022E-002     816.20544433593750
   4.5000000000000012E-002     625.21057128906250
   4.6100000000000002E-002     425.23251342773438
   4.7200000000000020E-002     220.57029724121094
   4.8300000000000010E-002     16.524459838867188
   4.9400000000000027E-002    -183.31217956542969
   5.0500000000000017E-002    -378.08578491210938
   5.1600000000000007E-002    -568.03149414062500
   5.2700000000000025E-002    -751.78051757812500
   5.3800000000000014E-002    -925.47924804687500
   5.4900000000000004E-002    -1084.4884033203125
   5.6000000000000022E-002    -1226.1579589843750
   5.7100000000000012E-002    -1350.7679443359375
   5.8200000000000002E-002    -1459.7460937500000
   5.9300000000000019E-002    -1553.0301513671875
   6.0400000000000009E-002    -1628.2097167968750
   6.1500000000000027E-002    -1682.4390869140625
   6.2600000000000017E-002    -1715.0084228515625
   6.3700000000000007E-002    -1728.1235351562500
   6.4800000000000024E-002    -1724.9064941406250
   6.5900000000000014E-002    -1706.8708496093750
   6.7000000000000004E-002    -1673.2884521484375
   6.8100000000000022E-002    -1623.0595703125000
   6.9200000000000012E-002    -1557.0759277343750
   7.0300000000000029E-002    -1478.6214599609375
   7.1400000000000019E-002    -1391.4365234375000
   7.2500000000000009E-002    -1297.4559326171875
   7.3600000000000027E-002    -1196.5620117187500
   7.4700000000000016E-002    -1088.4573974609375
   7.5800000000000006E-002    -974.65332031250000
   7.6900000000000024E-002    -858.52856445312500
   7.8000000000000014E-002    -743.27801513671875
   7.9100000000000004E-002    -630.18841552734375
   8.0200000000000021E-002    -518.72344970703125
   8.1300000000000011E-002    -408.58795166015625
   8.2400000000000029E-002    -301.20132446289062
   8.3500000000000019E-002    -199.31210327148438
   8.4600000000000009E-002    -104.86592864990234
   8.5700000000000026E-002    -17.740982055664062
   8.6800000000000016E-002     63.612243652343750
   8.7900000000000006E-002     139.86082458496094
   8.9000000000000024E-002     209.80209350585938
   9.0100000000000013E-002     271.23632812500000
   9.1200000000000003E-002     323.22860717773438
   9.2300000000000021E-002     367.00946044921875
   9.3400000000000011E-002     404.73242187500000
   9.4500000000000028E-002     437.41970825195312
   9.5600000000000018E-002     463.96844482421875
   9.6700000000000008E-002     482.65673828125000
   9.7800000000000026E-002     493.21954345703125
   9.8900000000000016E-002     497.55050659179688
  0.10000000000000001          498.09320068359375
  0.10110000000000002          495.74920654296875
  0.10220000000000001          489.38565063476562
  0.10330000000000003          477.52767944335938
  0.10440000000000002          460.39019775390625
  0.10550000000000001          440.12741088867188
  0.10660000000000003          419.04144287109375
  0.10770000000000002          397.64529418945312
  0.10880000000000001          374.60662841796875
  0.10990000000000003          348.60620117187500
  0.11100000000000002          320.14334106445312
  0.11210000000000001          291.36730957031250
  0.11320000000000002          264.18255615234375
  0.11430000000000001          238.62640380859375
  0.11540000000000003          213.21020507812500
  0.11650000000000002          186.84214782714844
  0.11760000000000001          160.26229858398438
  0.11870000000000003          135.45010375976562
  0.11980000000000002          113.73249053955078
  0.12090000000000001          94.494186401367188
  0.12200000000000003          76.015808105468750
  0.12310000000000001          57.391876220703125
  0.12420000000000003          39.555278778076172
  0.12530000000000002          24.268058776855469
  0.12640000000000001          12.237411499023438
  0.12750000000000003          2.3626279830932617
  0.12860000000000002         -7.1082963943481445
  0.12970000000000001         -16.713682174682617
  0.13080000000000003         -25.218450546264648
  0.13190000000000002         -31.027471542358398
  0.13300000000000001         -33.970027923583984
  0.13410000000000000         -35.627212524414062
  0.13520000000000004         -37.783031463623047
  0.13630000000000003         -40.672561645507812
  0.13740000000000002         -42.856548309326172
  0.13850000000000001         -42.853469848632812
  0.13960000000000000         -40.803085327148438
  0.14070000000000005         -38.423797607421875
  0.14180000000000004         -37.255981445312500
  0.14290000000000003         -37.129264831542969
  0.14400000000000002         -36.418304443359375
  0.14510000000000001         -33.832511901855469
  0.14620000000000000         -29.844032287597656
  0.14730000000000004         -26.252239227294922
  0.14840000000000003         -24.365585327148438
  0.14950000000000002         -23.706985473632812
  0.15060000000000001         -22.593685150146484
  0.15170000000000000         -19.946790695190430
  0.15280000000000005         -16.413026809692383
  0.15390000000000004         -13.657269477844238
  0.15500000000000003         -12.603957176208496
  0.15610000000000002         -12.509513854980469
  0.15720000000000001         -11.804944038391113
  0.15830000000000000         -9.7851915359497070
  0.15940000000000004         -7.3326010704040527
  0.16050000000000003         -5.9395136833190918
  0.16160000000000002         -6.1068496704101562
  0.16270000000000001         -6.8114633560180664
  0.16380000000000000         -6.5990509986877441
  0.16490000000000005         -5.1034984588623047
  0.16600000000000004         -3.3965806961059570
  0.16710000000000003         -2.8238921165466309
  0.16820000000000002         -3.5988693237304688
  0.16930000000000001         -4.6227984428405762
  0.17040000000000000         -4.6754941940307617
  0.17150000000000004         -3.6763436794281006
  0.17260000000000003         -2.6882278919219971
  0.17370000000000002         -2.7184648513793945
  0.17480000000000001         -3.6261653900146484
  0.17590000000000000         -4.3015646934509277
  0.17700000000000005         -3.8703668117523193
  0.17810000000000004         -2.6096410751342773
  0.17920000000000003         -1.6119635105133057
  0.18030000000000002         -1.6047201156616211
  0.18140000000000001         -2.2102892398834229
  0.18250000000000000         -2.4144916534423828
  0.18360000000000004         -1.6916227340698242
  0.18470000000000003        -0.55443060398101807
  0.18580000000000002          4.9576010555028915E-002
  0.18690000000000001        -0.20490932464599609
  0.18800000000000000        -0.65675705671310425
  0.18910000000000005        -0.36898219585418701
  0.19020000000000004         0.87567752599716187
  0.19130000000000003          2.3687434196472168
  0.19240000000000002          3.2428963184356689
  0.19350000000000001          3.3612837791442871
  0.19460000000000005          3.3756473064422607
  0.19570000000000004          3.9508924484252930
  0.19680000000000003          5.0379261970520020
  0.19790000000000002          5.9874210357666016
  0.19900000000000001          6.3375830650329590
  0.20010000000000000          6.3725886344909668
  0.20120000000000005          6.8304157257080078
  0.20230000000000004          8.1020479202270508
  0.20340000000000003          9.8153133392333984
  0.20450000000000002          11.254893302917480
  0.20560000000000000          12.134350776672363
  0.20670000000000005          12.865482330322266
  0.20780000000000004          14.051357269287109
  0.20890000000000003          15.798306465148926
