 -0.12000000000000000          0.0000000000000000
 -0.11889999999999999          0.0000000000000000
 -0.11780000000000000          0.0000000000000000
 -0.11670000000000000          0.0000000000000000
 -0.11559999999999999          0.0000000000000000
 -0.11449999999999999          0.0000000000000000
 -0.11340000000000000          0.0000000000000000
 -0.11230000000000000          2.3089490309656541E-025
 -0.11119999999999999          5.2947319191515284E-019
 -0.11009999999999999          5.5196500825229393E-018
 -0.10900000000000000          2.3324989459641759E-017
 -0.10790000000000000          3.5705254449573890E-017
 -0.10679999999999999         -9.6422220543819894E-017
 -0.10569999999999999         -6.4913958099609408E-016
 -0.10460000000000000         -1.4980138719986069E-015
 -0.10349999999999999         -7.7722425045030435E-016
 -0.10239999999999999          5.6081386516843631E-015
 -0.10130000000000000          1.9316828613557234E-014
 -0.10020000000000000          2.7607377037111407E-014
  -9.9099999999999994E-002    -5.0257403964924612E-015
  -9.7999999999999990E-002    -1.1371570460445846E-013
  -9.6899999999999986E-002    -2.5918110431281949E-013
  -9.5799999999999996E-002    -2.4769899673038331E-013
  -9.4699999999999993E-002     2.1670997787069657E-013
  -9.3599999999999989E-002     1.2101215212181882E-012
  -9.2499999999999999E-002     2.0951192170048927E-012
  -9.1399999999999995E-002     1.3772783911611408E-012
  -9.0299999999999991E-002    -2.3680059649255902E-012
  -8.9200000000000002E-002    -8.3923692648091297E-012
  -8.8099999999999984E-002    -1.1922115204787698E-011
  -8.6999999999999994E-002    -5.3586913552339244E-012
  -8.5899999999999990E-002     1.5498295355409475E-011
  -8.4799999999999986E-002     4.2538993161311822E-011
  -8.3699999999999997E-002     5.1860030159112114E-011
  -8.2599999999999993E-002     1.5270852291027204E-011
  -8.1499999999999989E-002    -7.2403999462622437E-011
  -8.0399999999999999E-002    -1.6698704918827190E-010
  -7.9299999999999995E-002    -1.7954379649687269E-010
  -7.8199999999999992E-002    -3.1889144103125489E-011
  -7.7100000000000002E-002     2.5689494975722482E-010
  -7.5999999999999984E-002     5.2012993911887406E-010
  -7.4899999999999994E-002     5.0466408829663578E-010
  -7.3799999999999991E-002     5.3043961584231525E-011
  -7.2699999999999987E-002    -6.9901895383139845E-010
  -7.1599999999999997E-002    -1.2889651568315230E-009
  -7.0499999999999993E-002    -1.1698084723121838E-009
  -6.9399999999999989E-002    -1.3187514968926450E-010
  -6.8300000000000000E-002     1.4000111070444632E-009
  -6.7199999999999996E-002     2.4966038125739942E-009
  -6.6099999999999992E-002     2.2965842561006866E-009
  -6.5000000000000002E-002     6.4651684006378218E-010
  -6.3899999999999985E-002    -1.7063027657471252E-009
  -6.2799999999999995E-002    -3.5684473154162788E-009
  -6.1699999999999991E-002    -4.0429024572574690E-009
  -6.0599999999999994E-002    -2.9227025244438209E-009
  -5.9499999999999990E-002    -4.6102702211392455E-010
  -5.8399999999999994E-002     3.0303239917373048E-009
  -5.7299999999999990E-002     7.0100694138375275E-009
  -5.6199999999999986E-002     9.9052419599843233E-009
  -5.5099999999999996E-002     8.7907334744841137E-009
  -5.3999999999999992E-002     9.5373975383949983E-010
  -5.2899999999999989E-002    -1.2789651115951983E-008
  -5.1799999999999985E-002    -2.5656108348925954E-008
  -5.0699999999999995E-002    -2.6893861360122173E-008
  -4.9599999999999991E-002    -9.1252250200568596E-009
  -4.8499999999999988E-002     2.3227199719144664E-008
  -4.7399999999999998E-002     5.2006118522740508E-008
  -4.6299999999999994E-002     5.4615625799669942E-008
  -4.5199999999999990E-002     2.0640047893039082E-008
  -4.4099999999999986E-002    -3.6199150343918518E-008
  -4.2999999999999997E-002    -8.2280116942001769E-008
  -4.1899999999999993E-002    -8.4970672276085679E-008
  -4.0799999999999989E-002    -3.6477231901699270E-008
  -3.9699999999999985E-002     3.7982683664949946E-008
  -3.8599999999999995E-002     9.5784976394952537E-008
  -3.7499999999999992E-002     1.0541113226736343E-007
  -3.6399999999999988E-002     6.5703346763257287E-008
  -3.5299999999999984E-002     1.2493793777323958E-009
  -3.4199999999999994E-002    -5.9688616715902754E-008
  -3.3099999999999991E-002    -1.0279966033976962E-007
  -3.1999999999999987E-002    -1.2475344135509658E-007
  -3.0899999999999997E-002    -1.1646100261941683E-007
  -2.9799999999999993E-002    -5.7084182714106646E-008
  -2.8699999999999989E-002     6.4817555767149315E-008
  -2.7599999999999986E-002     2.1700748220609967E-007
  -2.6499999999999996E-002     3.1419520496456244E-007
  -2.5399999999999992E-002     2.6060718028020347E-007
  -2.4299999999999988E-002     2.6959536825188479E-008
  -2.3199999999999985E-002    -2.9723412353632739E-007
  -2.2099999999999995E-002    -5.3127547516851337E-007
  -2.0999999999999991E-002    -5.0983896926481975E-007
  -1.9899999999999987E-002    -2.0024972968712973E-007
  -1.8799999999999983E-002     2.5757921662261651E-007
  -1.7699999999999994E-002     6.2568255998485256E-007
  -1.6599999999999990E-002     7.0926023454376264E-007
  -1.5499999999999986E-002     4.6698283995283418E-007
  -1.4399999999999996E-002     1.9491764646772936E-008
  -1.3299999999999992E-002    -4.3521259840417770E-007
  -1.2199999999999989E-002    -7.2672764872550033E-007
  -1.1099999999999985E-002    -7.6765383028032375E-007
  -9.9999999999999950E-003    -5.4829882856211043E-007
  -8.8999999999999913E-003    -1.1349120399017920E-007
  -7.7999999999999875E-003     4.3728445575652586E-007
  -6.6999999999999837E-003     9.3482412921730429E-007
  -5.5999999999999939E-003     1.1595833484534523E-006
  -4.4999999999999901E-003     9.2891673375561368E-007
  -3.3999999999999864E-003     2.2153730583340803E-007
  -2.2999999999999826E-003    -7.4520278303680243E-007
  -1.1999999999999927E-003    -1.5604171039740322E-006
  -9.9999999999988987E-005    -1.7916573824550142E-006
   1.0000000000000148E-003    -1.2075364566044300E-006
   2.1000000000000185E-003     6.2202737183270074E-008
   3.2000000000000084E-003     1.5199034351098817E-006
   4.3000000000000121E-003     2.4754017431405373E-006
   5.4000000000000159E-003     2.3566331037727650E-006
   6.5000000000000058E-003     1.0344568863729364E-006
   7.6000000000000234E-003    -1.0077704928335152E-006
   8.7000000000000133E-003    -2.8062643195880810E-006
   9.8000000000000032E-003    -3.3650615023361752E-006
   1.0900000000000021E-002    -2.2291221739578759E-006
   1.2000000000000011E-002     1.5839093236991175E-007
   1.3100000000000001E-002     2.5995061605499359E-006
   1.4200000000000018E-002     3.7812590107932920E-006
   1.5300000000000008E-002     3.0532887649314944E-006
   1.6400000000000026E-002     8.3507455883591319E-007
   1.7500000000000016E-002    -1.6429117977168062E-006
   1.8600000000000005E-002    -3.1050769848661730E-006
   1.9700000000000023E-002    -2.9814596018695738E-006
   2.0800000000000013E-002    -1.6400878166678012E-006
   2.1900000000000003E-002     7.5017956291389964E-009
   2.3000000000000020E-002     1.1760932920878986E-006
   2.4100000000000010E-002     1.6388192989325034E-006
   2.5200000000000000E-002     1.6547651284781750E-006
   2.6300000000000018E-002     1.5511581068494706E-006
   2.7400000000000008E-002     1.3664729294760036E-006
   2.8500000000000025E-002     8.4936607436247868E-007
   2.9600000000000015E-002    -2.2462911886123038E-007
   3.0700000000000005E-002    -1.7147644939541351E-006
   3.1800000000000023E-002    -3.0422170311794616E-006
   3.2900000000000013E-002    -3.4497168144298485E-006
   3.4000000000000002E-002    -2.4350763396796538E-006
   3.5100000000000020E-002    -1.1276313927055526E-007
   3.6200000000000010E-002     2.6938787414110266E-006
   3.7300000000000028E-002     4.7202879613905679E-006
   3.8400000000000017E-002     4.8380811676906887E-006
   3.9500000000000007E-002     2.7192359084438067E-006
   4.0600000000000025E-002    -7.9154955301419250E-007
   4.1700000000000015E-002    -3.9466426642320585E-006
   4.2800000000000005E-002    -5.0264420679013710E-006
   4.3900000000000022E-002    -3.4467905152268941E-006
   4.5000000000000012E-002    -2.6257828267262084E-007
   4.6100000000000002E-002     2.4273622329928912E-006
   4.7200000000000020E-002     2.9027580694673816E-006
   4.8300000000000010E-002     1.0839389688044321E-006
   4.9400000000000027E-002    -1.3628922488351236E-006
   5.0500000000000017E-002    -2.2475910554931033E-006
   5.1600000000000007E-002    -5.5474168902946985E-007
   5.2700000000000025E-002     2.6851510028791381E-006
   5.3800000000000014E-002     5.0479457058827393E-006
   5.4900000000000004E-002     4.4449975575844292E-006
   5.6000000000000022E-002     6.6036636781063862E-007
   5.7100000000000012E-002    -4.4075291043554898E-006
   5.8200000000000002E-002    -7.8885668699513189E-006
   5.9300000000000019E-002    -7.6614933277596720E-006
   6.0400000000000009E-002    -3.5407167615630897E-006
   6.1500000000000027E-002     2.6501686534174951E-006
   6.2600000000000017E-002     8.0070203694049269E-006
   6.3700000000000007E-002     9.9204717116663232E-006
   6.4800000000000024E-002     7.2656694101169705E-006
   6.5900000000000014E-002     1.0516130259929923E-006
   6.7000000000000004E-002    -5.9018725551140960E-006
   6.8100000000000022E-002    -1.0220448530162685E-005
   6.9200000000000012E-002    -9.7369147624704055E-006
   7.0300000000000029E-002    -4.7797302613616921E-006
   7.1400000000000019E-002     1.9847725525323767E-006
   7.2500000000000009E-002     7.1650742938800249E-006
   7.3600000000000027E-002     8.6855279732844792E-006
   7.4700000000000016E-002     6.7843957367585972E-006
   7.5800000000000006E-002     3.2877599096536869E-006
   7.6900000000000024E-002    -7.6406962534747436E-008
   7.8000000000000014E-002    -2.9667603484995198E-006
   7.9100000000000004E-002    -5.9005164985137526E-006
   8.0200000000000021E-002    -8.8387932919431478E-006
   8.1300000000000011E-002    -1.0186991858063266E-005
   8.2400000000000029E-002    -7.6967580753262155E-006
   8.3500000000000019E-002    -4.7923896318025072E-007
   8.4600000000000009E-002     9.3107992142904550E-006
   8.5700000000000026E-002     1.7102500351029448E-005
   8.6800000000000016E-002     1.8370223187957890E-005
   8.7900000000000006E-002     1.1491788427520078E-005
   8.9000000000000024E-002    -1.2613930948646157E-006
   9.0100000000000013E-002    -1.4781356185267214E-005
   9.1200000000000003E-002    -2.3454676920664497E-005
   9.2300000000000021E-002    -2.3382339350064285E-005
   9.3400000000000011E-002    -1.3844580280419905E-005
   9.4500000000000028E-002     2.4124708488670876E-006
   9.5600000000000018E-002     1.9499599147820845E-005
   9.6700000000000008E-002     3.0055514798732474E-005
   9.7800000000000026E-002     2.8558119083754718E-005
   9.8900000000000016E-002     1.4380784705281258E-005
  0.10000000000000001         -6.9968887146387715E-006
  0.10110000000000002         -2.6056130081997253E-005
  0.10220000000000001         -3.4107346436940134E-005
  0.10330000000000003         -2.7660677005769685E-005
  0.10440000000000002         -1.0181793186347932E-005
  0.10550000000000001          1.0765469596663024E-005
  0.10660000000000003          2.7256714020040818E-005
  0.10770000000000002          3.4154647437389940E-005
  0.10880000000000001          2.9463701139320619E-005
  0.10990000000000003          1.4243569239624776E-005
  0.11100000000000002         -7.7103213698137552E-006
  0.11210000000000001         -2.9423463274724782E-005
  0.11320000000000002         -4.2017501982627437E-005
  0.11430000000000001         -3.8050668081268668E-005
  0.11540000000000003         -1.6562678865739144E-005
  0.11650000000000002          1.4539024050463922E-005
  0.11760000000000001          4.1307685023639351E-005
  0.11870000000000003          5.0750499212881550E-005
  0.11980000000000002          3.8020829379092902E-005
  0.12090000000000001          8.8858132585301064E-006
  0.12200000000000003         -2.3770251573296264E-005
  0.12310000000000001         -4.6446391934296116E-005
  0.12420000000000003         -5.0562419346533716E-005
  0.12530000000000002         -3.4848810173571110E-005
  0.12640000000000001         -4.9840850806504022E-006
  0.12750000000000003          2.8172016754979268E-005
  0.12860000000000002          5.1461218390613794E-005
  0.12970000000000001          5.3980387747287750E-005
  0.13080000000000003          3.2723881304264069E-005
  0.13190000000000002         -4.1974099076469429E-006
  0.13300000000000001         -3.9973954699235037E-005
  0.13410000000000000         -5.7548459153622389E-005
  0.13520000000000004         -4.9086727813119069E-005
  0.13630000000000003         -2.0431854864000343E-005
  0.13740000000000002          1.3548899005400017E-005
  0.13850000000000001          3.8071466406108811E-005
  0.13960000000000000          4.6005130570847541E-005
  0.14070000000000005          3.8449430576292798E-005
  0.14180000000000004          2.0421004592208192E-005
  0.14290000000000003         -2.9260702376632253E-006
  0.14400000000000002         -2.6369896659161896E-005
  0.14510000000000001         -4.3382879084674641E-005
  0.14620000000000000         -4.6136243327055126E-005
  0.14730000000000004         -3.0380131647689268E-005
  0.14840000000000003         -4.7381359991049976E-007
  0.14950000000000002          3.0378323572222143E-005
  0.15060000000000001          4.7788260417291895E-005
  0.15170000000000000          4.4359439925756305E-005
  0.15280000000000005          2.4354380002478138E-005
  0.15390000000000004         -1.0651763204805320E-006
  0.15500000000000003         -2.2075735614635050E-005
  0.15610000000000002         -3.4747536119539291E-005
  0.15720000000000001         -3.8776761357439682E-005
  0.15830000000000000         -3.3042168070096523E-005
  0.15940000000000004         -1.5936051568132825E-005
  0.16050000000000003          1.0575809028523508E-005
  0.16160000000000002          3.7040648749098182E-005
  0.16270000000000001          4.9772130296332762E-005
  0.16380000000000000          4.0321174310520291E-005
  0.16490000000000005          1.2807434359274339E-005
  0.16600000000000004         -1.7867474525701255E-005
  0.16710000000000003         -3.6382374673848972E-005
  0.16820000000000002         -3.7178091588430107E-005
  0.16930000000000001         -2.6092300686286762E-005
  0.17040000000000000         -1.2713395335595123E-005
  0.17150000000000004         -1.3888886769564124E-006
  0.17260000000000003          9.8054097179556265E-006
  0.17370000000000002          2.2761136278859340E-005
  0.17480000000000001          3.2776326406747103E-005
  0.17590000000000000          3.0975112167652696E-005
  0.17700000000000005          1.3512729310605209E-005
  0.17810000000000004         -1.2503614925662987E-005
  0.17920000000000003         -3.2429103157483041E-005
  0.18030000000000002         -3.4610093280207366E-005
  0.18140000000000001         -2.1270974684739485E-005
  0.18250000000000000         -4.5789925025019329E-006
  0.18360000000000004          3.9623114389542025E-006
  0.18470000000000003          5.3331154958868865E-006
  0.18580000000000002          8.0177578638540581E-006
  0.18690000000000001          1.7573149307281710E-005
  0.18800000000000000          2.8630458473344333E-005
  0.18910000000000005          2.8960499548702501E-005
  0.19020000000000004          1.2239581337780692E-005
  0.19130000000000003         -1.4022712093719747E-005
  0.19240000000000002         -3.3051212085410953E-005
  0.19350000000000001         -3.3608212106628343E-005
  0.19460000000000005         -1.8692127923713997E-005
  0.19570000000000004         -1.4829280416961410E-006
  0.19680000000000003          8.6226837083813734E-006
  0.19790000000000002          1.4221641322365031E-005
  0.19900000000000001          2.2424765120376833E-005
  0.20010000000000000          3.4577540645841509E-005
  0.20120000000000005          4.0842009184416384E-005
  0.20230000000000004          2.7994787160423584E-005
  0.20340000000000003         -3.7037032143416582E-006
  0.20450000000000002         -3.7803813029313460E-005
  0.20560000000000000         -5.1678234740393236E-005
  0.20670000000000005         -3.7977424653945491E-005
  0.20780000000000004         -7.2048601396090817E-006
  0.20890000000000003          1.9444441932137124E-005
