 -0.12000000000000000          0.0000000000000000
 -0.11889999999999999          0.0000000000000000
 -0.11780000000000000          0.0000000000000000
 -0.11670000000000000          0.0000000000000000
 -0.11559999999999999          0.0000000000000000
 -0.11449999999999999          0.0000000000000000
 -0.11340000000000000         -5.2008167068548863E-016
 -0.11230000000000000         -1.8974713276710643E-015
 -0.11119999999999999          2.7187966132179598E-015
 -0.11009999999999999          2.8200796461496508E-014
 -0.10900000000000000          4.6558521198548225E-014
 -0.10790000000000000         -9.3496296317031879E-014
 -0.10679999999999999         -5.1396257041980142E-013
 -0.10569999999999999         -6.6578405115425010E-013
 -0.10460000000000000          1.0618426710823359E-012
 -0.10349999999999999          5.3910443817417608E-012
 -0.10239999999999999          7.3803081701573348E-012
 -0.10130000000000000         -4.8507890412774479E-012
 -0.10020000000000000         -3.6578556156241504E-011
  -9.9099999999999994E-002    -5.9549740138997720E-011
  -9.7999999999999990E-002    -6.3015157328316640E-012
  -9.6899999999999986E-002     1.6406857816786413E-010
  -9.5799999999999996E-002     3.4063851739318807E-010
  -9.4699999999999993E-002     2.2035108460105590E-010
  -9.3599999999999989E-002    -4.5119041836017004E-010
  -9.2499999999999999E-002    -1.3888311611864879E-009
  -9.1399999999999995E-002    -1.5150762866511513E-009
  -9.0299999999999991E-002     3.6967243155494600E-010
  -8.9200000000000002E-002     3.9708045740383113E-009
  -8.8099999999999984E-002     6.3010681117248168E-009
  -8.6999999999999994E-002     3.0164599706949957E-009
  -8.5899999999999990E-002    -7.1533250434185902E-009
  -8.4799999999999986E-002    -1.8021500736153939E-008
  -8.3699999999999997E-002    -1.7321207579357178E-008
  -8.2599999999999993E-002     3.3166147606067398E-009
  -8.1499999999999989E-002     3.5598681336068694E-008
  -8.0399999999999999E-002     5.2377480130871845E-008
  -7.9299999999999995E-002     2.5693797311987510E-008
  -7.8199999999999992E-002    -4.2925282883743421E-008
  -7.7100000000000002E-002    -1.0686255080827323E-007
  -7.5999999999999984E-002    -9.9202445369428460E-008
  -7.4899999999999994E-002     7.5746342531601840E-009
  -7.3799999999999991E-002     1.5381370133127348E-007
  -7.2699999999999987E-002     2.1367908686897863E-007
  -7.1599999999999997E-002     9.4366392033862212E-008
  -7.0499999999999993E-002    -1.5616625148595631E-007
  -6.9399999999999989E-002    -3.4147984706578427E-007
  -6.8300000000000000E-002    -2.5729195840540342E-007
  -6.7199999999999996E-002     1.0627751123593043E-007
  -6.6099999999999992E-002     4.8413198783237021E-007
  -6.5000000000000002E-002     5.0327656708759605E-007
  -6.3899999999999985E-002     1.6649851275474248E-008
  -6.2799999999999995E-002    -6.7287106730873347E-007
  -6.1699999999999991E-002    -9.5669474831083789E-007
  -6.0599999999999994E-002    -4.0970687109620485E-007
  -5.9499999999999990E-002     7.4335088129373617E-007
  -5.8399999999999994E-002     1.6377900919906097E-006
  -5.7299999999999990E-002     1.3801136447000317E-006
  -5.6199999999999986E-002    -1.4900862765898637E-007
  -5.5099999999999996E-002    -1.9899111975973938E-006
  -5.3999999999999992E-002    -2.6892835194303188E-006
  -5.2899999999999989E-002    -1.4430730743697495E-006
  -5.1799999999999985E-002     1.1031261237803847E-006
  -5.0699999999999995E-002     3.1558399768982781E-006
  -4.9599999999999991E-002     3.0923333724786062E-006
  -4.8499999999999988E-002     8.0917033074001665E-007
  -4.7399999999999998E-002    -2.0462041447899537E-006
  -4.6299999999999994E-002    -3.2837538128660526E-006
  -4.5199999999999990E-002    -1.9392603007872822E-006
  -4.4099999999999986E-002     8.4624701912616729E-007
  -4.2999999999999997E-002     2.6603700007399311E-006
  -4.1899999999999993E-002     1.8016122567132697E-006
  -4.0799999999999989E-002    -1.1790066309913527E-006
  -3.9699999999999985E-002    -3.7230586258374387E-006
  -3.8599999999999995E-002    -3.2489697332493961E-006
  -3.7499999999999992E-002     6.2369184661292820E-007
  -3.6399999999999988E-002     5.4225879466685001E-006
  -3.5299999999999984E-002     7.4194313128828071E-006
  -3.4199999999999994E-002     4.4113467083661817E-006
  -3.3099999999999991E-002    -2.3736711227684282E-006
  -3.1999999999999987E-002    -8.7694734247634187E-006
  -3.0899999999999997E-002    -1.0378726074122824E-005
  -2.9799999999999993E-002    -5.6713774938543793E-006
  -2.8699999999999989E-002     2.7306739411869785E-006
  -2.7599999999999986E-002     9.6101575763896108E-006
  -2.6499999999999996E-002     1.0618288797559217E-005
  -2.5399999999999992E-002     5.2977788982389029E-006
  -2.4299999999999988E-002    -2.5321685370727209E-006
  -2.3199999999999985E-002    -7.4902136475429870E-006
  -2.2099999999999995E-002    -6.6627599153434858E-006
  -2.0999999999999991E-002    -1.9852275272569386E-006
  -1.9899999999999987E-002     1.0690949920899584E-006
  -1.8799999999999983E-002    -2.1115565687068738E-006
  -1.7699999999999994E-002    -1.0977194506267551E-005
  -1.6599999999999990E-002    -1.9227096345275640E-005
  -1.5499999999999986E-002    -1.9065882952418178E-005
  -1.4399999999999996E-002    -7.5868388194066938E-006
  -1.3299999999999992E-002     9.6749390650074929E-006
  -1.2199999999999989E-002     2.1432770154206082E-005
  -1.1099999999999985E-002     1.8350216123508289E-005
  -9.9999999999999950E-003     2.2456546844296099E-007
  -8.8999999999999913E-003    -2.3144710212363862E-005
  -7.7999999999999875E-003    -3.8693815440637991E-005
  -6.6999999999999837E-003    -3.9688104152446613E-005
  -5.5999999999999939E-003    -3.0747782147955149E-005
  -4.4999999999999901E-003    -2.4112430764944293E-005
  -3.3999999999999864E-003    -2.9832372092641890E-005
  -2.2999999999999826E-003    -4.7619996621506289E-005
  -1.1999999999999927E-003    -6.7020337155554444E-005
  -9.9999999999988987E-005    -7.5992327765561640E-005
   1.0000000000000148E-003    -7.1165275585372001E-005
   2.1000000000000185E-003    -6.1527462094090879E-005
   3.2000000000000084E-003    -6.2420687754638493E-005
   4.3000000000000121E-003    -8.4370709373615682E-005
   5.4000000000000159E-003    -1.2531840184237808E-004
   6.5000000000000058E-003    -1.7213555111084133E-004
   7.6000000000000234E-003    -2.1015288075432181E-004
   8.7000000000000133E-003    -2.3347053502220660E-004
   9.8000000000000032E-003    -2.4855663650669158E-004
   1.0900000000000021E-002    -2.6888452703133225E-004
   1.2000000000000011E-002    -3.0493826488964260E-004
   1.3100000000000001E-002    -3.5697047132998705E-004
   1.4200000000000018E-002    -4.1554323979653418E-004
   1.5300000000000008E-002    -4.6917115105316043E-004
   1.6400000000000026E-002    -5.1338388584554195E-004
   1.7500000000000016E-002    -5.5465748300775886E-004
   1.8600000000000005E-002    -6.0620624572038651E-004
   1.9700000000000023E-002    -6.7837833194062114E-004
   2.0800000000000013E-002    -7.7033491106703877E-004
   2.1900000000000003E-002    -8.6928304517641664E-004
   2.3000000000000020E-002    -9.5848285127431154E-004
   2.4100000000000010E-002    -1.0287846671417356E-003
   2.5200000000000000E-002    -1.0853902203962207E-003
   2.6300000000000018E-002    -1.1441218666732311E-003
   2.7400000000000008E-002    -1.2192571302875876E-003
   2.8500000000000025E-002    -1.3116709887981415E-003
   2.9600000000000015E-002    -1.4064504066482186E-003
   3.0700000000000005E-002    -1.4822713565081358E-003
   3.1800000000000023E-002    -1.5257558552548289E-003
   3.2900000000000013E-002    -1.5394185902550817E-003
   3.4000000000000002E-002    -1.5371185727417469E-003
   3.5100000000000020E-002    -1.5306854620575905E-003
   3.6200000000000010E-002    -1.5186797827482224E-003
   3.7300000000000028E-002    -1.4864491531625390E-003
   3.8400000000000017E-002    -1.4168508350849152E-003
   3.9500000000000007E-002    -1.3022705679759383E-003
   4.0600000000000025E-002    -1.1481862748041749E-003
   4.1700000000000015E-002    -9.6516928169876337E-004
   4.2800000000000005E-002    -7.5730693060904741E-004
   4.3900000000000022E-002    -5.1685184007510543E-004
   4.5000000000000012E-002    -2.2877400624565780E-004
   4.6100000000000002E-002     1.1802469816757366E-004
   4.7200000000000020E-002     5.2352499915286899E-004
   4.8300000000000010E-002     9.7744038794189692E-004
   4.9400000000000027E-002     1.4672363176941872E-003
   5.0500000000000017E-002     1.9859436433762312E-003
   5.1600000000000007E-002     2.5337503757327795E-003
   5.2700000000000025E-002     3.1144006643444300E-003
   5.3800000000000014E-002     3.7289783358573914E-003
   5.4900000000000004E-002     4.3727722950279713E-003
   5.6000000000000022E-002     5.0351279787719250E-003
   5.7100000000000012E-002     5.7014250196516514E-003
   5.8200000000000002E-002     6.3557955436408520E-003
   5.9300000000000019E-002     6.9832620210945606E-003
   6.0400000000000009E-002     7.5716124847531319E-003
   6.1500000000000027E-002     8.1114526838064194E-003
   6.2600000000000017E-002     8.5939355194568634E-003
   6.3700000000000007E-002     9.0078981593251228E-003
   6.4800000000000024E-002     9.3385456129908562E-003
   6.5900000000000014E-002     9.5693524926900864E-003
   6.7000000000000004E-002     9.6858646720647812E-003
   6.8100000000000022E-002     9.6777305006980896E-003
   6.9200000000000012E-002     9.5373289659619331E-003
   7.0300000000000029E-002     9.2556970193982124E-003
   7.1400000000000019E-002     8.8217696174979210E-003
   7.2500000000000009E-002     8.2254968583583832E-003
   7.3600000000000027E-002     7.4635171331465244E-003
   7.4700000000000016E-002     6.5412679687142372E-003
   7.5800000000000006E-002     5.4689859971404076E-003
   7.6900000000000024E-002     4.2552980594336987E-003
   7.8000000000000014E-002     2.9045247938483953E-003
   7.9100000000000004E-002     1.4218749711290002E-003
   8.0200000000000021E-002    -1.7995605594478548E-004
   8.1300000000000011E-002    -1.8788411980494857E-003
   8.2400000000000029E-002    -3.6492757499217987E-003
   8.3500000000000019E-002    -5.4700360633432865E-003
   8.4600000000000009E-002    -7.3263510130345821E-003
   8.5700000000000026E-002    -9.2017091810703278E-003
   8.6800000000000016E-002    -1.1068839579820633E-002
   8.7900000000000006E-002    -1.2888802215456963E-002
   8.9000000000000024E-002    -1.4621244743466377E-002
   9.0100000000000013E-002    -1.6238257288932800E-002
   9.1200000000000003E-002    -1.7726374790072441E-002
   9.2300000000000021E-002    -1.9077148288488388E-002
   9.3400000000000011E-002    -2.0272454246878624E-002
   9.4500000000000028E-002    -2.1281572058796883E-002
   9.5600000000000018E-002    -2.2073090076446533E-002
   9.6700000000000008E-002    -2.2631309926509857E-002
   9.7800000000000026E-002    -2.2959358990192413E-002
   9.8900000000000016E-002    -2.3067370057106018E-002
  0.10000000000000001         -2.2956136614084244E-002
  0.10110000000000002         -2.2612882778048515E-002
  0.10220000000000001         -2.2024439647793770E-002
  0.10330000000000003         -2.1195491775870323E-002
  0.10440000000000002         -2.0151017233729362E-002
  0.10550000000000001         -1.8921663984656334E-002
  0.10660000000000003         -1.7524756491184235E-002
  0.10770000000000002         -1.5961442142724991E-002
  0.10880000000000001         -1.4231965877115726E-002
  0.10990000000000003         -1.2354199774563313E-002
  0.11100000000000002         -1.0364176705479622E-002
  0.11210000000000001         -8.2971844822168350E-003
  0.11320000000000002         -6.1673503369092941E-003
  0.11430000000000001         -3.9660157635807991E-003
  0.11540000000000003         -1.6844075871631503E-003
  0.11650000000000002          6.6555989906191826E-004
  0.11760000000000001          3.0505207832902670E-003
  0.11870000000000003          5.4395832121372223E-003
  0.11980000000000002          7.8293131664395332E-003
  0.12090000000000001          1.0243017226457596E-002
  0.12200000000000003          1.2703027576208115E-002
  0.12310000000000001          1.5204426832497120E-002
  0.12420000000000003          1.7716893926262856E-002
  0.12530000000000002          2.0211491733789444E-002
  0.12640000000000001          2.2688997909426689E-002
  0.12750000000000003          2.5174934417009354E-002
  0.12860000000000002          2.7690690010786057E-002
  0.12970000000000001          3.0220361426472664E-002
  0.13080000000000003          3.2715130597352982E-002
  0.13190000000000002          3.5124909132719040E-002
  0.13300000000000001          3.7430811673402786E-002
  0.13410000000000000          3.9639301598072052E-002
  0.13520000000000004          4.1747644543647766E-002
  0.13630000000000003          4.3711565434932709E-002
  0.13740000000000002          4.5449990779161453E-002
  0.13850000000000001          4.6885255724191666E-002
  0.13960000000000000          4.7976318746805191E-002
  0.14070000000000005          4.8715390264987946E-002
  0.14180000000000004          4.9085818231105804E-002
  0.14290000000000003          4.9027658998966217E-002
  0.14400000000000002          4.8445727676153183E-002
  0.14510000000000001          4.7258213162422180E-002
  0.14620000000000000          4.5436091721057892E-002
  0.14730000000000004          4.3000537902116776E-002
  0.14840000000000003          3.9972346276044846E-002
  0.14950000000000002          3.6330662667751312E-002
  0.15060000000000001          3.2019842416048050E-002
  0.15170000000000000          2.7003044262528419E-002
  0.15280000000000005          2.1310986950993538E-002
  0.15390000000000004          1.5040950849652290E-002
  0.15500000000000003          8.3019854500889778E-003
  0.15610000000000002          1.1607747292146087E-003
  0.15720000000000001         -6.3578775152564049E-003
  0.15830000000000000         -1.4220117591321468E-002
  0.15940000000000004         -2.2324316203594208E-002
  0.16050000000000003         -3.0502147972583771E-002
  0.16160000000000002         -3.8569565862417221E-002
  0.16270000000000001         -4.6390462666749954E-002
  0.16380000000000000         -5.3889680653810501E-002
  0.16490000000000005         -6.1002604663372040E-002
  0.16600000000000004         -6.7618943750858307E-002
  0.16710000000000003         -7.3570653796195984E-002
  0.16820000000000002         -7.8681595623493195E-002
  0.16930000000000001         -8.2830339670181274E-002
  0.17040000000000000         -8.5972562432289124E-002
  0.17150000000000004         -8.8099986314773560E-002
  0.17260000000000003         -8.9186079800128937E-002
  0.17370000000000002         -8.9166238903999329E-002
  0.17480000000000001         -8.7969385087490082E-002
  0.17590000000000000         -8.5576109588146210E-002
  0.17700000000000005         -8.2041099667549133E-002
  0.17810000000000004         -7.7465839684009552E-002
  0.17920000000000003         -7.1946531534194946E-002
  0.18030000000000002         -6.5548762679100037E-002
  0.18140000000000001         -5.8328028768301010E-002
  0.18250000000000000         -5.0371117889881134E-002
  0.18360000000000004         -4.1821386665105820E-002
  0.18470000000000003         -3.2858155667781830E-002
  0.18580000000000002         -2.3653483018279076E-002
  0.18690000000000001         -1.4343440532684326E-002
  0.18800000000000000         -5.0396160222589970E-003
  0.18910000000000005          4.1423179209232330E-003
  0.19020000000000004          1.3061393052339554E-002
  0.19130000000000003          2.1562842652201653E-002
  0.19240000000000002          2.9507812112569809E-002
  0.19350000000000001          3.6794025450944901E-002
  0.19460000000000005          4.3352589011192322E-002
  0.19570000000000004          4.9128711223602295E-002
  0.19680000000000003          5.4067090153694153E-002
  0.19790000000000002          5.8114927262067795E-002
  0.19900000000000001          6.1236605048179626E-002
  0.20010000000000000          6.3426934182643890E-002
  0.20120000000000005          6.4704298973083496E-002
  0.20230000000000004          6.5103985369205475E-002
  0.20340000000000003          6.4668275415897369E-002
  0.20450000000000002          6.3448555767536163E-002
  0.20560000000000000          6.1507977545261383E-002
  0.20670000000000005          5.8917928487062454E-002
  0.20780000000000004          5.5756803601980209E-002
  0.20890000000000003          5.2106261253356934E-002
