 -0.12000000000000000          0.0000000000000000
 -0.11889999999999999          0.0000000000000000
 -0.11780000000000000          0.0000000000000000
 -0.11670000000000000          0.0000000000000000
 -0.11559999999999999          0.0000000000000000
 -0.11449999999999999         -1.6038299160971026E-013
 -0.11340000000000000         -6.5363133742316265E-013
 -0.11230000000000000         -1.3801825893127087E-013
 -0.11119999999999999          5.5266624610083110E-012
 -0.11009999999999999          1.8234642962245893E-011
 -0.10900000000000000          2.4247721885920436E-011
 -0.10790000000000000         -1.1720327833249521E-011
 -0.10679999999999999         -1.1690327872404781E-010
 -0.10569999999999999         -2.4399501863394134E-010
 -0.10460000000000000         -2.3112974034680722E-010
 -0.10349999999999999          1.1279878420199595E-010
 -0.10239999999999999          7.7769762851790855E-010
 -0.10130000000000000          1.3419738653653541E-009
 -0.10020000000000000          1.0763182567430836E-009
  -9.9099999999999994E-002    -4.8545462094657309E-010
  -9.7999999999999990E-002    -2.7994506712759726E-009
  -9.6899999999999986E-002    -4.1187160348954264E-009
  -9.5799999999999996E-002    -2.4994666336649887E-009
  -9.4699999999999993E-002     2.2385282516527180E-009
  -9.3599999999999989E-002     7.1002719259635042E-009
  -9.2499999999999999E-002     7.0159500431528210E-009
  -9.1399999999999995E-002    -1.0032679131930226E-009
  -9.0299999999999991E-002    -1.3122436470780570E-008
  -8.9200000000000002E-002    -1.8137788160284397E-008
  -8.8099999999999984E-002    -4.5030632556046517E-009
  -8.6999999999999994E-002     2.7658469292651497E-008
  -8.5899999999999990E-002     5.8942646319333519E-008
  -8.4799999999999986E-002     5.7694435895412078E-008
  -8.3699999999999997E-002     2.7211504160880243E-009
  -8.2599999999999993E-002    -9.2069861068473312E-008
  -8.1499999999999989E-002    -1.7286717479690202E-007
  -8.0399999999999999E-002    -1.7313476519117016E-007
  -7.9299999999999995E-002    -6.0429471204739172E-008
  -7.8199999999999992E-002     1.3034953383339310E-007
  -7.7100000000000002E-002     3.0691239771836324E-007
  -7.5999999999999984E-002     3.7163593447070450E-007
  -7.4899999999999994E-002     2.7977307581747902E-007
  -7.3799999999999991E-002     6.0753848174532708E-008
  -7.2699999999999987E-002    -2.0944831646823141E-007
  -7.1599999999999997E-002    -4.5376762614064959E-007
  -7.0499999999999993E-002    -6.1331513734333843E-007
  -6.9399999999999989E-002    -6.3068836198007723E-007
  -6.8300000000000000E-002    -4.3694197415795101E-007
  -6.7199999999999996E-002     9.3657437361505046E-009
  -6.6099999999999992E-002     6.3712639075688749E-007
  -6.5000000000000002E-002     1.2107697102693757E-006
  -6.3899999999999985E-002     1.4019560694578277E-006
  -6.2799999999999995E-002     9.8785346835922951E-007
  -6.1699999999999991E-002     5.1319382521091652E-008
  -6.0599999999999994E-002    -9.9104806849952964E-007
  -5.9499999999999990E-002    -1.6063486327765844E-006
  -5.8399999999999994E-002    -1.4884778920529407E-006
  -5.7299999999999990E-002    -7.7875495207963647E-007
  -5.6199999999999986E-002     2.1544355632922614E-008
  -5.5099999999999996E-002     4.0637402776138712E-007
  -5.3999999999999992E-002     2.3249990022094302E-007
  -5.2899999999999989E-002    -1.7904815763374821E-007
  -5.1799999999999985E-002    -2.8871741619684511E-007
  -5.0699999999999995E-002     2.5156560923310778E-007
  -4.9599999999999991E-002     1.3278079222803338E-006
  -4.8499999999999988E-002     2.4238822788902529E-006
  -4.7399999999999998E-002     2.9557493235185385E-006
  -4.6299999999999994E-002     2.6370596515330814E-006
  -4.5199999999999990E-002     1.6364315342796011E-006
  -4.4099999999999986E-002     4.5240716417549601E-007
  -4.2999999999999997E-002    -3.7749597936415361E-007
  -4.1899999999999993E-002    -5.3051712711709725E-007
  -4.0799999999999989E-002     3.5498704420584830E-008
  -3.9699999999999985E-002     1.2157706805736344E-006
  -3.8599999999999995E-002     2.9654690933964566E-006
  -3.7499999999999992E-002     5.3942890190228075E-006
  -3.6399999999999988E-002     8.6293912318072452E-006
  -3.5299999999999984E-002     1.2505694940046414E-005
  -3.4199999999999994E-002     1.6333055100404051E-005
  -3.3099999999999991E-002     1.9032839190913303E-005
  -3.1999999999999987E-002     1.9728862753253975E-005
  -3.0899999999999997E-002     1.8506338165024871E-005
  -2.9799999999999993E-002     1.6795154806459411E-005
  -2.8699999999999989E-002     1.6961874280242002E-005
  -2.7599999999999986E-002     2.1206702513155640E-005
  -2.6499999999999996E-002     3.0407314625336806E-005
  -2.5399999999999992E-002     4.3676107452484376E-005
  -2.4299999999999988E-002     5.8941895986208862E-005
  -2.3199999999999985E-002     7.4153889727313275E-005
  -2.2099999999999995E-002     8.8303037045989863E-005
  -2.0999999999999991E-002     1.0168390872422735E-004
  -1.9899999999999987E-002     1.1545800225576551E-004
  -1.8799999999999983E-002     1.3105645484756841E-004
  -1.7699999999999994E-002     1.4989003830123836E-004
  -1.6599999999999990E-002     1.7336248129140716E-004
  -1.5499999999999986E-002     2.0282187324483105E-004
  -1.4399999999999996E-002     2.3920749663375529E-004
  -1.3299999999999992E-002     2.8259749524295607E-004
  -1.2199999999999989E-002     3.3212636481039557E-004
  -1.1099999999999985E-002     3.8651356589980792E-004
  -9.9999999999999950E-003     4.4490367872640892E-004
  -8.8999999999999913E-003     5.0743576139212088E-004
  -7.7999999999999875E-003     5.7517638197169185E-004
  -6.6999999999999837E-003     6.4960157033056541E-004
  -5.5999999999999939E-003     7.3210441041738359E-004
  -4.4999999999999901E-003     8.2379532977939270E-004
  -3.3999999999999864E-003     9.2547043459490625E-004
  -2.2999999999999826E-003     1.0374569101259186E-003
  -1.1999999999999927E-003     1.1593709932640275E-003
  -9.9999999999988987E-005     1.2901220470666972E-003
   1.0000000000000148E-003     1.4284754870459533E-003
   2.1000000000000185E-003     1.5738393412903057E-003
   3.2000000000000084E-003     1.7266562208533402E-003
   4.3000000000000121E-003     1.8878135597333436E-003
   5.4000000000000159E-003     2.0574501249939325E-003
   6.5000000000000058E-003     2.2340638097375757E-003
   7.6000000000000234E-003     2.4146565701812631E-003
   8.7000000000000133E-003     2.5957697071135174E-003
   9.8000000000000032E-003     2.7745016850531240E-003
   1.0900000000000021E-002     2.9486624989658737E-003
   1.2000000000000011E-002     3.1160756479948902E-003
   1.3100000000000001E-002     3.2738228328526154E-003
   1.4200000000000018E-002     3.4180677030235650E-003
   1.5300000000000008E-002     3.5443839151412366E-003
   1.6400000000000026E-002     3.6479055415839070E-003
   1.7500000000000016E-002     3.7231594324112038E-003
   1.8600000000000005E-002     3.7636589258909312E-003
   1.9700000000000023E-002     3.7624184042215408E-003
   2.0800000000000013E-002     3.7130978889763390E-003
   2.1900000000000003E-002     3.6109841894358410E-003
   2.3000000000000020E-002     3.4527077805250874E-003
   2.4100000000000010E-002     3.2345149666070903E-003
   2.5200000000000000E-002     2.9506047721952131E-003
   2.6300000000000018E-002     2.5929578114300849E-003
   2.7400000000000008E-002     2.1530701778828924E-003
   2.8500000000000025E-002     1.6242441488429685E-003
   2.9600000000000015E-002     1.0024246294051149E-003
   3.0700000000000005E-002     2.8531448333521181E-004
   3.1800000000000023E-002    -5.2926834905523562E-004
   3.2900000000000013E-002    -1.4438235666603262E-003
   3.4000000000000002E-002    -2.4601228069514518E-003
   3.5100000000000020E-002    -3.5778568126261772E-003
   3.6200000000000010E-002    -4.7947419807315454E-003
   3.7300000000000028E-002    -6.1080860905349879E-003
   3.8400000000000017E-002    -7.5163790024817666E-003
   3.9500000000000007E-002    -9.0183941647411121E-003
   4.0600000000000025E-002    -1.0611011646688064E-002
   4.1700000000000015E-002    -1.2286386452615344E-002
   4.2800000000000005E-002    -1.4031738974154082E-002
   4.3900000000000022E-002    -1.5831511467695326E-002
   4.5000000000000012E-002    -1.7670063301920984E-002
   4.6100000000000002E-002    -1.9532522186637022E-002
   4.7200000000000020E-002    -2.1403755992651083E-002
   4.8300000000000010E-002    -2.3266222327947717E-002
   4.9400000000000027E-002    -2.5099596008658510E-002
   5.0500000000000017E-002    -2.6881808415055372E-002
   5.1600000000000007E-002    -2.8589846566319556E-002
   5.2700000000000025E-002    -3.0199334025383086E-002
   5.3800000000000014E-002    -3.1682595610618675E-002
   5.4900000000000004E-002    -3.3007569611072624E-002
   5.6000000000000022E-002    -3.4139182418584893E-002
   5.7100000000000012E-002    -3.5042028874158929E-002
   5.8200000000000002E-002    -3.5682573914527949E-002
   5.9300000000000019E-002    -3.6028657108545345E-002
   6.0400000000000009E-002    -3.6047529429197353E-002
   6.1500000000000027E-002    -3.5704426467418698E-002
   6.2600000000000017E-002    -3.4963380545377738E-002
   6.3700000000000007E-002    -3.3789351582527161E-002
   6.4800000000000024E-002    -3.2149642705917331E-002
   6.5900000000000014E-002    -3.0013646930456120E-002
   6.7000000000000004E-002    -2.7351716533303198E-002
   6.8100000000000022E-002    -2.4135667830705566E-002
   6.9200000000000012E-002    -2.0341604948043723E-002
   7.0300000000000029E-002    -1.5952698886394376E-002
   7.1400000000000019E-002    -1.0960962623357627E-002
   7.2500000000000009E-002    -5.3665400482712493E-003
   7.3600000000000027E-002     8.2353915786389544E-004
   7.4700000000000016E-002     7.5940238311888904E-003
   7.5800000000000006E-002     1.4918752945959802E-002
   7.6900000000000024E-002     2.2757960483432076E-002
   7.8000000000000014E-002     3.1057652086019794E-002
   7.9100000000000004E-002     3.9752565324306786E-002
   8.0200000000000021E-002     4.8767067492008521E-002
   8.1300000000000011E-002     5.8013495057821600E-002
   8.2400000000000029E-002     6.7389890551567425E-002
   8.3500000000000019E-002     7.6777227222919811E-002
   8.4600000000000009E-002     8.6041770875454310E-002
   8.5700000000000026E-002     9.5038548111915935E-002
   8.6800000000000016E-002    0.10361742973327671
   8.7900000000000006E-002    0.11162231117486988
   8.9000000000000024E-002    0.11889044940471681
   9.0100000000000013E-002    0.12525312602520020
   9.1200000000000003E-002    0.13054171204566983
   9.2300000000000021E-002    0.13459327816963221
   9.3400000000000011E-002    0.13725699484348322
   9.4500000000000028E-002    0.13839544355869313
   9.5600000000000018E-002    0.13788518309593215
   9.6700000000000008E-002    0.13561698794364940
   9.7800000000000026E-002    0.13150189816951757
   9.8900000000000016E-002    0.12547925114631653
  0.10000000000000001         0.11752256751060479
  0.10110000000000002         0.10763938724994646
  0.10220000000000001          9.5870129764079839E-002
  0.10330000000000003          8.2286566495895122E-002
  0.10440000000000002          6.6995412111282016E-002
  0.10550000000000001          5.0142139196395492E-002
  0.10660000000000003          3.1911768019198934E-002
  0.10770000000000002          1.2525292113422858E-002
  0.10880000000000001         -7.7678230591123653E-003
  0.10990000000000003         -2.8695005923510167E-002
  0.11100000000000002         -4.9962013959885247E-002
  0.11210000000000001         -7.1255549788475647E-002
  0.11320000000000002         -9.2246599495411558E-002
  0.11430000000000001        -0.11260008811950747
  0.11540000000000003        -0.13198390603065555
  0.11650000000000002        -0.15007609128952090
  0.11760000000000001        -0.16656833887100281
  0.11870000000000003        -0.18117059767246302
  0.11980000000000002        -0.19361831247806605
  0.12090000000000001        -0.20368005335331010
  0.12200000000000003        -0.21116858720779461
  0.12310000000000001        -0.21594183146953619
  0.12420000000000003        -0.21790544688701657
  0.12530000000000002        -0.21701203286647819
  0.12640000000000001        -0.21326306462287914
  0.12750000000000003        -0.20671404898166662
  0.12860000000000002        -0.19747199118137357
  0.12970000000000001        -0.18569329380989064
  0.13080000000000003        -0.17157706618309004
  0.13190000000000002        -0.15535874664783453
  0.13300000000000001        -0.13730919361114471
  0.13410000000000000        -0.11773228645324670
  0.13520000000000004         -9.6960492432117046E-002
  0.13630000000000003         -7.5342454016208191E-002
  0.13740000000000002         -5.3232297301291934E-002
  0.13850000000000001         -3.0979990959166967E-002
  0.13960000000000000         -8.9291641488666012E-003
  0.14070000000000005          1.2585434131324829E-002
  0.14180000000000004          3.3243764191866462E-002
  0.14290000000000003          5.2751403301954804E-002
  0.14400000000000002          7.0849142968655146E-002
  0.14510000000000001          8.7317273020744809E-002
  0.14620000000000000         0.10197348892688797
  0.14730000000000004         0.11467014998197599
  0.14840000000000003         0.12529568374156991
  0.14950000000000002         0.13378049433231390
  0.15060000000000001         0.14010210335254697
  0.15170000000000000         0.14428205788135554
  0.15280000000000005         0.14637847244739552
  0.15390000000000004         0.14647735655307784
  0.15500000000000003         0.14468979835510262
  0.15610000000000002         0.14115394651889809
  0.15720000000000001         0.13603653013706207
  0.15830000000000000         0.12952555716037747
  0.15940000000000004         0.12181989848613732
  0.16050000000000003         0.11311866343021382
  0.16160000000000002         0.10361897200345981
  0.16270000000000001          9.3518033623695221E-002
  0.16380000000000000          8.3012938499450517E-002
  0.16490000000000005          7.2296090424060641E-002
  0.16600000000000004          6.1546918004751004E-002
  0.16710000000000003          5.0925634801387579E-002
  0.16820000000000002          4.0572740137576849E-002
  0.16930000000000001          3.0612768605351240E-002
  0.17040000000000000          2.1157098934054173E-002
  0.17150000000000004          1.2300513684749404E-002
  0.17260000000000003          4.1164928115902440E-003
  0.17370000000000002         -3.3456615637989643E-003
  0.17480000000000001         -1.0055464692413975E-002
  0.17590000000000000         -1.5995264053344879E-002
  0.17700000000000005         -2.1157307550311231E-002
  0.17810000000000004         -2.5545319542288905E-002
  0.17920000000000003         -2.9177859425544846E-002
  0.18030000000000002         -3.2087679952383132E-002
  0.18140000000000001         -3.4316860139370041E-002
  0.18250000000000000         -3.5910636186599794E-002
  0.18360000000000004         -3.6915726959705408E-002
  0.18470000000000003         -3.7382837384939235E-002
  0.18580000000000002         -3.7368249148130445E-002
  0.18690000000000001         -3.6931637674570104E-002
  0.18800000000000000         -3.6129884421825423E-002
  0.18910000000000005         -3.5013452172279365E-002
  0.19020000000000004         -3.3628109842538827E-002
  0.19130000000000003         -3.2020181417465203E-002
  0.19240000000000002         -3.0239228159189207E-002
  0.19350000000000001         -2.8334606438875174E-002
  0.19460000000000005         -2.6349056512117362E-002
  0.19570000000000004         -2.4315455928444835E-002
  0.19680000000000003         -2.2260213270783397E-002
  0.19790000000000002         -2.0209448412060706E-002
  0.19900000000000001         -1.8191307783126796E-002
  0.20010000000000000         -1.6231844201683967E-002
  0.20120000000000005         -1.4348928816616502E-002
  0.20230000000000004         -1.2550905346870391E-002
  0.20340000000000003         -1.0842258110642404E-002
  0.20450000000000002         -9.2307804152369222E-003
  0.20560000000000000         -7.7294073998927793E-003
  0.20670000000000005         -6.3503561541437834E-003
  0.20780000000000004         -5.0977868959307428E-003
  0.20890000000000003         -3.9663095958530677E-003
