 -0.12000000000000000          0.0000000000000000
 -0.11889999999999999          0.0000000000000000
 -0.11780000000000000          0.0000000000000000
 -0.11670000000000000          0.0000000000000000
 -0.11559999999999999          0.0000000000000000
 -0.11449999999999999          0.0000000000000000
 -0.11340000000000000          0.0000000000000000
 -0.11230000000000000          0.0000000000000000
 -0.11119999999999999          1.0885792503957237E-019
 -0.11009999999999999          1.6054818819394421E-018
 -0.10900000000000000          7.5611769156471881E-018
 -0.10790000000000000          8.3395952310890839E-018
 -0.10679999999999999         -5.9724862211165765E-017
 -0.10569999999999999         -2.8616645487005905E-016
 -0.10460000000000000         -4.3849506015922623E-016
 -0.10349999999999999          6.0458162456410708E-016
 -0.10239999999999999          4.1928262179194841E-015
 -0.10130000000000000          7.8932755717313276E-015
 -0.10020000000000000          3.7610361911487413E-016
  -9.9099999999999994E-002    -3.2652794856002328E-014
  -9.7999999999999990E-002    -7.8191590030005641E-014
  -9.6899999999999986E-002    -5.9071278142401237E-014
  -9.5799999999999996E-002     1.3666403620751583E-013
  -9.4699999999999993E-002     4.8819553000871373E-013
  -9.3599999999999989E-002     6.2215017209217472E-013
  -9.2499999999999999E-002    -1.1738816841331131E-013
  -9.1399999999999995E-002    -1.9603626447844940E-012
  -9.0299999999999991E-002    -3.6423242893987400E-012
  -8.9200000000000002E-002    -2.2759385522036326E-012
  -8.8099999999999984E-002     4.3641787232654493E-012
  -8.6999999999999994E-002     1.3673153755055281E-011
  -8.5899999999999990E-002     1.6192757204544986E-011
  -8.4799999999999986E-002     9.9181220961542699E-013
  -8.3699999999999997E-002    -3.1465399730200874E-011
  -8.2599999999999993E-002    -5.9085514259031953E-011
  -8.1499999999999989E-002    -4.6084400184821712E-011
  -8.0399999999999999E-002     2.6137099429227838E-011
  -7.9299999999999995E-002     1.2561539308729511E-010
  -7.8199999999999992E-002     1.7158974241479516E-010
  -7.7100000000000002E-002     9.0765388260893748E-011
  -7.5999999999999984E-002    -1.0561142238517187E-010
  -7.4899999999999994E-002    -2.9917202049028160E-010
  -7.3799999999999991E-002    -3.4328612175109167E-010
  -7.2699999999999987E-002    -1.9091676850546807E-010
  -7.1599999999999997E-002     6.0322906392120008E-011
  -7.0499999999999993E-002     2.8283542174972041E-010
  -6.9399999999999989E-002     4.8476761493882399E-010
  -6.8300000000000000E-002     7.8702994121848064E-010
  -6.7199999999999996E-002     1.1159256851915372E-009
  -6.6099999999999992E-002     9.0789453732773669E-010
  -6.5000000000000002E-002    -6.3192701071950551E-010
  -6.3899999999999985E-002    -3.5363387773666082E-009
  -6.2799999999999995E-002    -6.0770748433476690E-009
  -6.1699999999999991E-002    -5.1191739736106797E-009
  -6.0599999999999994E-002     1.4788915647676095E-009
  -5.9499999999999990E-002     1.1720785231263932E-008
  -5.8399999999999994E-002     1.8630000653274871E-008
  -5.7299999999999990E-002     1.4059995834255844E-008
  -5.6199999999999986E-002    -4.1904351100238974E-009
  -5.5099999999999996E-002    -2.7453166850935682E-008
  -5.3999999999999992E-002    -3.9280077857025772E-008
  -5.2899999999999989E-002    -2.6831399324568873E-008
  -5.1799999999999985E-002     7.1662005218891938E-009
  -5.0699999999999995E-002     4.2786844289822177E-008
  -4.9599999999999991E-002     5.5875574389562397E-008
  -4.8499999999999988E-002     3.7066076430374106E-008
  -4.7399999999999998E-002     4.0846423464873346E-010
  -4.6299999999999994E-002    -2.8293451137518352E-008
  -4.5199999999999990E-002    -3.5143003174172430E-008
  -4.4099999999999986E-002    -3.1431440561370060E-008
  -4.2999999999999997E-002    -4.0131705958406583E-008
  -4.1899999999999993E-002    -6.4449338310657306E-008
  -4.0799999999999989E-002    -7.0236382043768671E-008
  -3.9699999999999985E-002    -9.2119307737497768E-009
  -3.8599999999999995E-002     1.2626850320889161E-007
  -3.7499999999999992E-002     2.6495899874141411E-007
  -3.6399999999999988E-002     2.8421632691791595E-007
  -3.5299999999999984E-002     1.0278275652804054E-007
  -3.4199999999999994E-002    -2.2717340186783517E-007
  -3.3099999999999991E-002    -5.1552439117594647E-007
  -3.1999999999999987E-002    -5.4742986321797350E-007
  -3.0899999999999997E-002    -2.4563129841213569E-007
  -2.9799999999999993E-002     2.4529708753123527E-007
  -2.8699999999999989E-002     6.3568722907810359E-007
  -2.7599999999999986E-002     6.8699102939708398E-007
  -2.6499999999999996E-002     3.8091093301752060E-007
  -2.5399999999999992E-002    -7.4629461721716809E-008
  -2.4299999999999988E-002    -4.0986296312439197E-007
  -2.3199999999999985E-002    -4.9214850150727722E-007
  -2.2099999999999995E-002    -3.9335338897193316E-007
  -2.0999999999999991E-002    -2.7554128223519377E-007
  -1.9899999999999987E-002    -2.0936568034828060E-007
  -1.8799999999999983E-002    -1.0335689637514410E-007
  -1.7699999999999994E-002     1.7955662201512198E-007
  -1.6599999999999990E-002     6.2330764194495176E-007
  -1.5499999999999986E-002     9.7723579983755453E-007
  -1.4399999999999996E-002     9.0291268861651361E-007
  -1.3299999999999992E-002     2.5688666482894518E-007
  -1.2199999999999989E-002    -7.2267607720312381E-007
  -1.1099999999999985E-002    -1.5029452242747898E-006
  -9.9999999999999950E-003    -1.5829606354603067E-006
  -8.8999999999999913E-003    -8.3231810776831806E-007
  -7.7999999999999875E-003     4.0107710219729124E-007
  -6.6999999999999837E-003     1.4875645319994952E-006
  -5.5999999999999939E-003     1.8774750287776784E-006
  -4.4999999999999901E-003     1.3954326050220705E-006
  -3.3999999999999864E-003     3.0754540603011301E-007
  -2.2999999999999826E-003    -8.4305992231799662E-007
  -1.1999999999999927E-003    -1.5192224509518553E-006
  -9.9999999999988987E-005    -1.4495770983551637E-006
   1.0000000000000148E-003    -7.5600559057343505E-007
   2.1000000000000185E-003     1.0885296575260251E-007
   3.2000000000000084E-003     6.0398230061732854E-007
   4.3000000000000121E-003     4.2004137412658368E-007
   5.4000000000000159E-003    -3.0332864753347370E-007
   6.5000000000000058E-003    -1.0240007668470565E-006
   7.6000000000000234E-003    -1.1131101018683171E-006
   8.7000000000000133E-003    -2.4243919938184610E-007
   9.8000000000000032E-003     1.4304860087579083E-006
   1.0900000000000021E-002     3.4048960060308861E-006
   1.2000000000000011E-002     5.1632027862053628E-006
   1.3100000000000001E-002     6.3916550061535126E-006
   1.4200000000000018E-002     6.9367038122433050E-006
   1.5300000000000008E-002     6.6344805418347046E-006
   1.6400000000000026E-002     5.3102908168523315E-006
   1.7500000000000016E-002     3.0722517294637949E-006
   1.8600000000000005E-002     6.5394056036784434E-007
   1.9700000000000023E-002    -6.2462919459203774E-007
   2.0800000000000013E-002     5.4146528327503274E-007
   2.1900000000000003E-002     4.6177788135531246E-006
   2.3000000000000020E-002     1.0831831787073262E-005
   2.4100000000000010E-002     1.7596532416065088E-005
   2.5200000000000000E-002     2.3496690118917538E-005
   2.6300000000000018E-002     2.8094047593182734E-005
   2.7400000000000008E-002     3.1957795727062020E-005
   2.8500000000000025E-002     3.6006913433079385E-005
   2.9600000000000015E-002     4.0841514419294858E-005
   3.0700000000000005E-002     4.6680521336381516E-005
   3.1800000000000023E-002     5.3866831876800357E-005
   3.2900000000000013E-002     6.3291954575101555E-005
   3.4000000000000002E-002     7.6139491284258010E-005
   3.5100000000000020E-002     9.3041388026893486E-005
   3.6200000000000010E-002     1.1341415665809723E-004
   3.7300000000000028E-002     1.3570800365413275E-004
   3.8400000000000017E-002     1.5853915829210284E-004
   3.9500000000000007E-002     1.8188449030275046E-004
   4.0600000000000025E-002     2.0738564489873276E-004
   4.1700000000000015E-002     2.3752667766527841E-004
   4.2800000000000005E-002     2.7430037152950719E-004
   4.3900000000000022E-002     3.1829546787772947E-004
   4.5000000000000012E-002     3.6869302857663852E-004
   4.6100000000000002E-002     4.2399071389805635E-004
   4.7200000000000020E-002     4.8289488768200992E-004
   4.8300000000000010E-002     5.4501695558424016E-004
   4.9400000000000027E-002     6.1116751749062861E-004
   5.0500000000000017E-002     6.8322982406237144E-004
   5.1600000000000007E-002     7.6337979407973741E-004
   5.2700000000000025E-002     8.5281871724865899E-004
   5.3800000000000014E-002     9.5069117378435034E-004
   5.4900000000000004E-002     1.0539906797929679E-003
   5.6000000000000022E-002     1.1591019574551749E-003
   5.7100000000000012E-002     1.2639502529053724E-003
   5.8200000000000002E-002     1.3692758511750602E-003
   5.9300000000000019E-002     1.4777147443963677E-003
   6.0400000000000009E-002     1.5909973299129310E-003
   6.1500000000000027E-002     1.7076224321497903E-003
   6.2600000000000017E-002     1.8224990926681301E-003
   6.3700000000000007E-002     1.9294531084595357E-003
   6.4800000000000024E-002     2.0240105222908765E-003
   6.5900000000000014E-002     2.1047170739618929E-003
   6.7000000000000004E-002     2.1714903414247347E-003
   6.8100000000000022E-002     2.2230050526557241E-003
   6.9200000000000012E-002     2.2555091418323785E-003
   7.0300000000000029E-002     2.2635322529820480E-003
   7.1400000000000019E-002     2.2420489694921059E-003
   7.2500000000000009E-002     2.1875549573449195E-003
   7.3600000000000027E-002     2.0969768520442598E-003
   7.4700000000000016E-002     1.9661888945845820E-003
   7.5800000000000006E-002     1.7897314392028478E-003
   7.6900000000000024E-002     1.5621471684424530E-003
   7.8000000000000014E-002     1.2802932178600341E-003
   7.9100000000000004E-002     9.4409164739762724E-004
   8.0200000000000021E-002     5.5537646403529457E-004
   8.1300000000000011E-002     1.1568647460077664E-004
   8.2400000000000029E-002    -3.7456411519086442E-004
   8.3500000000000019E-002    -9.1530114877962435E-004
   8.4600000000000009E-002    -1.5060852747409295E-003
   8.5700000000000026E-002    -2.1460843272505326E-003
   8.6800000000000016E-002    -2.8342299629000303E-003
   8.7900000000000006E-002    -3.5687098279592209E-003
   8.9000000000000024E-002    -4.3436950072642290E-003
   9.0100000000000013E-002    -5.1466780714686123E-003
   9.1200000000000003E-002    -5.9583848342294144E-003
   9.2300000000000021E-002    -6.7574968561524016E-003
   9.3400000000000011E-002    -7.5268656946711823E-003
   9.4500000000000028E-002    -8.2578333094708474E-003
   9.5600000000000018E-002    -8.9477095752946208E-003
   9.6700000000000008E-002    -9.5931701362124127E-003
   9.7800000000000026E-002    -1.0183648206292637E-002
   9.8900000000000016E-002    -1.0700589977203804E-002
  0.10000000000000001         -1.1121224611996565E-002
  0.10110000000000002         -1.1424603872000099E-002
  0.10220000000000001         -1.1592905037103991E-002
  0.10330000000000003         -1.1611501686273907E-002
  0.10440000000000002         -1.1467992328106269E-002
  0.10550000000000001         -1.1154161766170390E-002
  0.10660000000000003         -1.0669399984179899E-002
  0.10770000000000002         -1.0021099820732094E-002
  0.10880000000000001         -9.2196166515341269E-003
  0.10990000000000003         -8.2714902237049481E-003
  0.11100000000000002         -7.1750134229652861E-003
  0.11210000000000001         -5.9241708368056988E-003
  0.11320000000000002         -4.5179356820876692E-003
  0.11430000000000001         -2.9673499520864806E-003
  0.11540000000000003         -1.2960176682097954E-003
  0.11650000000000002          4.6515112626367808E-004
  0.11760000000000001          2.2844469640402468E-003
  0.11870000000000003          4.1301934979852779E-003
  0.11980000000000002          5.9706913307304163E-003
  0.12090000000000001          7.7736065722995218E-003
  0.12200000000000003          9.5123862847677366E-003
  0.12310000000000001          1.1169577017425481E-002
  0.12420000000000003          1.2735849246381549E-002
  0.12530000000000002          1.4197940006850845E-002
  0.12640000000000001          1.5528831630943773E-002
  0.12750000000000003          1.6685683280228025E-002
  0.12860000000000002          1.7622055485842975E-002
  0.12970000000000001          1.8306266516445357E-002
  0.13080000000000003          1.8729973584411769E-002
  0.13190000000000002          1.8901202827690245E-002
  0.13300000000000001          1.8831085413692591E-002
  0.13410000000000000          1.8524205312131066E-002
  0.13520000000000004          1.7980476841328800E-002
  0.13630000000000003          1.7204511910675291E-002
  0.13740000000000002          1.6209701076148365E-002
  0.13850000000000001          1.5012080781160321E-002
  0.13960000000000000          1.3623322360216239E-002
  0.14070000000000005          1.2048094533382658E-002
  0.14180000000000004          1.0297238826750680E-002
  0.14290000000000003          8.4001999348393436E-003
  0.14400000000000002          6.4063053578131569E-003
  0.14510000000000001          4.3695489875967388E-003
  0.14620000000000000          2.3301031906154783E-003
  0.14730000000000004          3.0743269599032690E-004
  0.14840000000000003         -1.6885595396160184E-003
  0.14950000000000002         -3.6404798738655657E-003
  0.15060000000000001         -5.5181165225799255E-003
  0.15170000000000000         -7.2897090576582758E-003
  0.15280000000000005         -8.9360522106281884E-003
  0.15390000000000004         -1.0452541522680768E-002
  0.15500000000000003         -1.1834502220152733E-002
  0.15610000000000002         -1.3061955571173432E-002
  0.15720000000000001         -1.4101083390413426E-002
  0.15830000000000000         -1.4924388378857191E-002
  0.15940000000000004         -1.5531085431574330E-002
  0.16050000000000003         -1.5947297215460236E-002
  0.16160000000000002         -1.6204735264180564E-002
  0.16270000000000001         -1.6316153109072102E-002
  0.16380000000000000         -1.6271965578196896E-002
  0.16490000000000005         -1.6058884561060336E-002
  0.16600000000000004         -1.5682101249693329E-002
  0.16710000000000003         -1.5167499892412166E-002
  0.16820000000000002         -1.4542026445268192E-002
  0.16930000000000001         -1.3812772929667103E-002
  0.17040000000000000         -1.2967742979525273E-002
  0.17150000000000004         -1.1997755616902141E-002
  0.17260000000000003         -1.0919044725595833E-002
  0.17370000000000002         -9.7697181627144653E-003
  0.17480000000000001         -8.5835130885234829E-003
  0.17590000000000000         -7.3643289506427952E-003
  0.17700000000000005         -6.0890400782221245E-003
  0.17810000000000004         -4.7354595735664071E-003
  0.17920000000000003         -3.3080435823645382E-003
  0.18030000000000002         -1.8358794040975533E-003
  0.18140000000000001         -3.4525457886037681E-004
  0.18250000000000000          1.1662469478323620E-003
  0.18360000000000004          2.7242980431763466E-003
  0.18470000000000003          4.3483935296532222E-003
  0.18580000000000002          6.0255201533432022E-003
  0.18690000000000001          7.7164629474275950E-003
  0.18800000000000000          9.3860588967792213E-003
  0.18910000000000005          1.1029244400559905E-002
  0.19020000000000004          1.2666715309022754E-002
  0.19130000000000003          1.4308917336164654E-002
  0.19240000000000002          1.5932304784654173E-002
  0.19350000000000001          1.7485683783887266E-002
  0.19460000000000005          1.8926052376626222E-002
  0.19570000000000004          2.0243657752869675E-002
  0.19680000000000003          2.1453341469166703E-002
  0.19790000000000002          2.2553678601978148E-002
  0.19900000000000001          2.3502044379709000E-002
  0.20010000000000000          2.4228079244492207E-002
  0.20120000000000005          2.4676168337462039E-002
  0.20230000000000004          2.4834457784888794E-002
  0.20340000000000003          2.4723332375285668E-002
  0.20450000000000002          2.4357939139006204E-002
  0.20560000000000000          2.3715434595940228E-002
  0.20670000000000005          2.2750156000254339E-002
  0.20780000000000004          2.1431580185888095E-002
  0.20890000000000003          1.9771901890633520E-002
