 -0.12000000000000000          0.0000000000000000
 -0.11889999999999999          0.0000000000000000
 -0.11780000000000000          0.0000000000000000
 -0.11670000000000000          0.0000000000000000
 -0.11559999999999999          0.0000000000000000
 -0.11449999999999999          0.0000000000000000
 -0.11340000000000000          0.0000000000000000
 -0.11230000000000000          0.0000000000000000
 -0.11119999999999999          0.0000000000000000
 -0.11009999999999999         -2.7672477081916585E-032
 -0.10900000000000000         -6.1502828340389757E-031
 -0.10790000000000000         -5.7972736990463610E-030
 -0.10679999999999999         -3.0933835376917067E-029
 -0.10569999999999999         -1.0555390079423438E-028
 -0.10460000000000000         -2.4214767746441757E-028
 -0.10349999999999999         -3.6618103255685545E-028
 -0.10239999999999999         -2.6779181985992249E-028
 -0.10130000000000000          4.0876408992511069E-028
 -0.10020000000000000          2.0825906712605323E-027
  -9.9099999999999994E-002     3.9991815887544400E-027
  -9.7999999999999990E-002     1.0552906833501393E-028
  -9.6899999999999986E-002    -2.2664878223701553E-026
  -9.5799999999999996E-002    -6.1785052885155290E-026
  -9.4699999999999993E-002    -4.0022038350603703E-026
  -9.3599999999999989E-002     2.0379225549491998E-025
  -9.2499999999999999E-002     6.6156454100917991E-025
  -9.1399999999999995E-002     6.2253939481267015E-025
  -9.0299999999999991E-002    -1.3329234804099708E-024
  -8.9200000000000002E-002    -5.3236743616774062E-024
  -8.8099999999999984E-002    -6.3997851604688081E-024
  -8.6999999999999994E-002     5.4938683409656712E-024
  -8.5899999999999990E-002     3.3154615311532328E-023
  -8.4799999999999986E-002     4.9568355814044535E-023
  -8.3699999999999997E-002    -4.9299195684322221E-024
  -8.2599999999999993E-002    -1.6108086562909102E-022
  -8.1499999999999989E-002    -3.0293069078408696E-022
  -8.0399999999999999E-002    -1.3022048817732572E-022
  -7.9299999999999995E-002     5.9018544058220959E-022
  -7.8199999999999992E-002     1.4847043812081553E-021
  -7.7100000000000002E-002     1.2741110836923127E-021
  -7.5999999999999984E-002    -1.4001826178920573E-021
  -7.4899999999999994E-002    -5.8183023986831169E-021
  -7.3799999999999991E-002    -7.4291166842854468E-021
  -7.2699999999999987E-002     1.3612827380741312E-022
  -7.1599999999999997E-002     1.7625595188435458E-020
  -7.0499999999999993E-002     3.1986101703970977E-020
  -6.9399999999999989E-002     1.8748479945279122E-020
  -6.8300000000000000E-002    -3.6376062305889267E-020
  -6.7199999999999996E-002    -1.0609881886995133E-019
  -6.6099999999999992E-002    -1.1345326230911470E-019
  -6.5000000000000002E-002     1.7967178776154377E-020
  -6.3899999999999985E-002     2.6392272778300667E-019
  -6.2799999999999995E-002     4.3156419135486100E-019
  -6.1699999999999991E-002     2.3999994068493712E-019
  -6.0599999999999994E-002    -4.1717075755794962E-019
  -5.9499999999999990E-002    -1.1894940960549559E-018
  -5.8399999999999994E-002    -1.2889429191749093E-018
  -5.7299999999999990E-002    -3.3983720265066664E-020
  -5.6199999999999986E-002     2.2951770116751202E-018
  -5.5099999999999996E-002     4.0205816776660580E-018
  -5.3999999999999992E-002     2.8427269434079123E-018
  -5.2899999999999989E-002    -2.1547571056348027E-018
  -5.1799999999999985E-002    -8.5747750869482365E-018
  -5.0699999999999995E-002    -1.0932235696821303E-017
  -4.9599999999999991E-002    -4.1851819341676787E-018
  -4.8499999999999988E-002     1.0972691446220046E-017
  -4.7399999999999998E-002     2.5298619240136132E-017
  -4.6299999999999994E-002     2.4861803356620354E-017
  -4.5199999999999990E-002     1.5481617810070566E-018
  -4.4099999999999986E-002    -3.6240857204924425E-017
  -4.2999999999999997E-002    -6.2619769361971136E-017
  -4.1899999999999993E-002    -4.8682884462473441E-017
  -4.0799999999999989E-002     1.3412637679596288E-017
  -3.9699999999999985E-002     9.3908048085356819E-017
  -3.8599999999999995E-002     1.3430692054518115E-016
  -3.7499999999999992E-002     8.4520031206357686E-017
  -3.6399999999999988E-002    -5.2270360161671021E-017
  -3.5299999999999984E-002    -2.0197535037992274E-016
  -3.4199999999999994E-002    -2.5364629245634598E-016
  -3.3099999999999991E-002    -1.3476708442866685E-016
  -3.1999999999999987E-002     1.2012282444781586E-016
  -3.0899999999999997E-002     3.6453767538895164E-016
  -2.9799999999999993E-002     4.2065996089165345E-016
  -2.8699999999999989E-002     2.0436518766615174E-016
  -2.7599999999999986E-002    -1.9218662735986822E-016
  -2.6499999999999996E-002    -5.3375484709698197E-016
  -2.5399999999999992E-002    -5.8843437079271368E-016
  -2.4299999999999988E-002    -2.9439249474665888E-016
  -2.3199999999999985E-002     1.7930325623213031E-016
  -2.2099999999999995E-002     5.4055816278976931E-016
  -2.0999999999999991E-002     5.8616146375787517E-016
  -1.9899999999999987E-002     3.5589526587921801E-016
  -1.8799999999999983E-002     8.9621955493131652E-017
  -1.7699999999999994E-002    -2.7084866969288254E-018
  -1.6599999999999990E-002     2.5706411010318649E-017
  -1.5499999999999986E-002    -1.4445131799374367E-016
  -1.4399999999999996E-002    -7.9103660496294341E-016
  -1.3299999999999992E-002    -1.7291453405026639E-015
  -1.2199999999999989E-002    -2.1624300098357875E-015
  -1.1099999999999985E-002    -1.0957841833689045E-015
  -9.9999999999999950E-003     1.7994704627066890E-015
  -8.8999999999999913E-003     5.4349873295736918E-015
  -7.7999999999999875E-003     7.3873986965113277E-015
  -6.6999999999999837E-003     5.1407869524873820E-015
  -5.5999999999999939E-003    -1.9867788817395319E-015
  -4.4999999999999901E-003    -1.1435748622199999E-014
  -3.3999999999999864E-003    -1.7787617353440949E-014
  -2.2999999999999826E-003    -1.5357708526664120E-014
  -1.1999999999999927E-003    -1.9857378782473564E-015
  -9.9999999999988987E-005     1.8160718426047523E-014
   1.0000000000000148E-003     3.4984442778699179E-014
   2.1000000000000185E-003     3.6830659507457175E-014
   3.2000000000000084E-003     1.7257444185161432E-014
   4.3000000000000121E-003    -1.9337880770428292E-014
   5.4000000000000159E-003    -5.7030179461282221E-014
   6.5000000000000058E-003    -7.4387632826525968E-014
   7.6000000000000234E-003    -5.5391275740430609E-014
   8.7000000000000133E-003    -9.6818890043486023E-017
   9.8000000000000032E-003     7.1195355383704695E-014
   1.0900000000000021E-002     1.2419039863327541E-013
   1.2000000000000011E-002     1.2612283992793211E-013
   1.3100000000000001E-002     6.3894392164295932E-014
   1.4200000000000018E-002    -4.4723593724911234E-014
   1.5300000000000008E-002    -1.5444076410537494E-013
   1.6400000000000026E-002    -2.1131206051454299E-013
   1.7500000000000016E-002    -1.7952725081277904E-013
   1.8600000000000005E-002    -6.2636948037174400E-014
   1.9700000000000023E-002     9.3532305381685554E-014
   2.0800000000000013E-002     2.2068626223323284E-013
   2.1900000000000003E-002     2.6246271323838999E-013
   2.3000000000000020E-002     2.0525307798877068E-013
   2.4100000000000010E-002     8.6459912309027470E-014
   2.5200000000000000E-002    -2.7901571908483559E-014
   2.6300000000000018E-002    -8.6130321624855455E-014
   2.7400000000000008E-002    -8.8779847460130484E-014
   2.8500000000000025E-002    -9.4268715826028443E-014
   2.9600000000000015E-002    -1.8088808716957422E-013
   3.0700000000000005E-002    -3.8136272026596807E-013
   3.1800000000000023E-002    -6.2920832823512574E-013
   3.2900000000000013E-002    -7.5837659719787953E-013
   3.4000000000000002E-002    -5.7276064316727493E-013
   3.5100000000000020E-002     3.9516231676835559E-014
   3.6200000000000010E-002     1.0066373732839362E-012
   3.7300000000000028E-002     2.0514490713802180E-012
   3.8400000000000017E-002     2.7747691297430599E-012
   3.9500000000000007E-002     2.8119869713988388E-012
   4.0600000000000025E-002     1.9837720875715004E-012
   4.1700000000000015E-002     3.5784564330829105E-013
   4.2800000000000005E-002    -1.8128081501200821E-012
   4.3900000000000022E-002    -4.2336342764848212E-012
   4.5000000000000012E-002    -6.6944921828238080E-012
   4.6100000000000002E-002    -9.0789754186859639E-012
   4.7200000000000020E-002    -1.1224442382495869E-011
   4.8300000000000010E-002    -1.2697164500363733E-011
   4.9400000000000027E-002    -1.2615653313674535E-011
   5.0500000000000017E-002    -9.6485250344890972E-012
   5.1600000000000007E-002    -2.2276108908869663E-012
   5.2700000000000025E-002     1.1101032419691403E-011
   5.3800000000000014E-002     3.1346147899569132E-011
   5.4900000000000004E-002     5.8911639455594411E-011
   5.6000000000000022E-002     9.3669932921258692E-011
   5.7100000000000012E-002     1.3521517239212244E-010
   5.8200000000000002E-002     1.8317755645647082E-010
   5.9300000000000019E-002     2.3750473809869277E-010
   6.0400000000000009E-002     2.9870642070939368E-010
   6.1500000000000027E-002     3.6813857517969950E-010
   6.2600000000000017E-002     4.4839917889838432E-010
   6.3700000000000007E-002     5.4380000502618486E-010
   6.4800000000000024E-002     6.6073735371929843E-010
   6.5900000000000014E-002     8.0771489496811455E-010
   6.7000000000000004E-002     9.9486674454141166E-010
   6.8100000000000022E-002     1.2330689802553252E-009
   6.9200000000000012E-002     1.5330037239635885E-009
   7.0300000000000029E-002     1.9046757504526113E-009
   7.1400000000000019E-002     2.3577721997014578E-009
   7.2500000000000009E-002     2.9029103565392234E-009
   7.3600000000000027E-002     3.5534193365549527E-009
   7.4700000000000016E-002     4.3270289573626997E-009
   7.5800000000000006E-002     5.2468944744532564E-009
   7.6900000000000024E-002     6.3417262552434295E-009
   7.8000000000000014E-002     7.6452426611695046E-009
   7.9100000000000004E-002     9.1955101311214094E-009
   8.0200000000000021E-002     1.1034730462711195E-008
   8.1300000000000011E-002     1.3209769278432759E-008
   8.2400000000000029E-002     1.5773229833371261E-008
   8.3500000000000019E-002     1.8784582778152981E-008
   8.4600000000000009E-002     2.2310809200121184E-008
   8.5700000000000026E-002     2.6426329569062545E-008
   8.6800000000000016E-002     3.1212433526661698E-008
   8.7900000000000006E-002     3.6756794941084081E-008
   8.9000000000000024E-002     4.3153612239166250E-008
   9.0100000000000013E-002     5.0504688431374234E-008
   9.1200000000000003E-002     5.8921095558162051E-008
   9.2300000000000021E-002     6.8524791174695565E-008
   9.3400000000000011E-002     7.9449300471878814E-008
   9.4500000000000028E-002     9.1839041260755039E-008
   9.5600000000000018E-002     1.0584715681716261E-007
   9.6700000000000008E-002     1.2163248186425335E-007
   9.7800000000000026E-002     1.3935631670847215E-007
   9.8900000000000016E-002     1.5917963480660546E-007
  0.10000000000000001          1.8126100087556551E-007
  0.10110000000000002          2.0575511427978199E-007
  0.10220000000000001          2.3281135952402110E-007
  0.10330000000000003          2.6257197305312729E-007
  0.10440000000000002          2.9516940003304626E-007
  0.10550000000000001          3.3072257110688952E-007
  0.10660000000000003          3.6933229807800672E-007
  0.10770000000000002          4.1107537640527880E-007
  0.10880000000000001          4.5599804820994905E-007
  0.10990000000000003          5.0410858420946170E-007
  0.11100000000000002          5.5536975196446292E-007
  0.11210000000000001          6.0969193782511866E-007
  0.11320000000000002          6.6692723521555308E-007
  0.11430000000000001          7.2686509611230576E-007
  0.11540000000000003          7.8922948887338862E-007
  0.11650000000000002          8.5367668134495034E-007
  0.11760000000000001          9.1979245553375222E-007
  0.11870000000000003          9.8708824225468561E-007
  0.11980000000000002          1.0549965736572631E-006
  0.12090000000000001          1.1228659104745020E-006
  0.12200000000000003          1.1899581977559137E-006
  0.12310000000000001          1.2554479553728015E-006
  0.12420000000000003          1.3184268254917697E-006
  0.12530000000000002          1.3779103937849868E-006
  0.12640000000000001          1.4328487623060937E-006
  0.12750000000000003          1.4821376908003003E-006
  0.12860000000000002          1.5246311022565351E-006
  0.12970000000000001          1.5591530200254056E-006
  0.13080000000000003          1.5845116649870761E-006
  0.13190000000000002          1.5995144622138469E-006
  0.13300000000000001          1.6029865719247027E-006
  0.13410000000000000          1.5937914668029407E-006
  0.13520000000000004          1.5708536693637143E-006
  0.13630000000000003          1.5331825125031173E-006
  0.13740000000000002          1.4798961274209432E-006
  0.13850000000000001          1.4102445220487425E-006
  0.13960000000000000          1.3236334552857443E-006
  0.14070000000000005          1.2196464922453742E-006
  0.14180000000000004          1.0980669458149350E-006
  0.14290000000000003          9.5889754447853193E-007
  0.14400000000000002          8.0237811062033870E-007
  0.14510000000000001          6.2899863451093552E-007
  0.14620000000000000          4.3950922190560959E-007
  0.14730000000000004          2.3492511047606968E-007
  0.14840000000000003          1.6527458512882731E-008
  0.14950000000000002         -2.1414066964098311E-007
  0.15060000000000001         -4.5528270220529521E-007
  0.15170000000000000         -7.0486191816598875E-007
  0.15280000000000005         -9.6061978638317669E-007
  0.15390000000000004         -1.2200995342936949E-006
  0.15500000000000003         -1.4806740864514722E-006
  0.15610000000000002         -1.7395790337104700E-006
  0.15720000000000001         -1.9939498088206165E-006
  0.15830000000000000         -2.2408621589420363E-006
  0.15940000000000004         -2.4773762561380863E-006
  0.16050000000000003         -2.7005819447367685E-006
  0.16160000000000002         -2.9076459213683847E-006
  0.16270000000000001         -3.0958588013163535E-006
  0.16380000000000000         -3.2626808206259739E-006
  0.16490000000000005         -3.4057859465974616E-006
  0.16600000000000004         -3.5231037145422306E-006
  0.16710000000000003         -3.6128578813077183E-006
  0.16820000000000002         -3.6736014408234041E-006
  0.16930000000000001         -3.7042452731839148E-006
  0.17040000000000000         -3.7040822462586220E-006
  0.17150000000000004         -3.6728031318489229E-006
  0.17260000000000003         -3.6105063827562844E-006
  0.17370000000000002         -3.5176983601559186E-006
  0.17480000000000001         -3.3952878766285721E-006
  0.17590000000000000         -3.2445734632347012E-006
  0.17700000000000005         -3.0672229058836820E-006
  0.17810000000000004         -2.8652489163505379E-006
  0.17920000000000003         -2.6409770725877024E-006
  0.18030000000000002         -2.3970096663106233E-006
  0.18140000000000001         -2.1361843209888320E-006
  0.18250000000000000         -1.8615287444845308E-006
  0.18360000000000004         -1.5762108205308323E-006
  0.18470000000000003         -1.2834871085942723E-006
  0.18580000000000002         -9.8665054792945739E-007
  0.18690000000000001         -6.8897759319952456E-007
  0.18800000000000000         -3.9367751014651731E-007
  0.18910000000000005         -1.0384549398168019E-007
  0.19020000000000004          1.7758104320364509E-007
  0.19130000000000003          4.4786156649934128E-007
  0.19240000000000002          7.0448703581860173E-007
  0.19350000000000001          9.4520993343394366E-007
  0.19460000000000005          1.1680697298288578E-006
  0.19570000000000004          1.3714126225750078E-006
  0.19680000000000003          1.5539059177172021E-006
  0.19790000000000002          1.7145456467915210E-006
  0.19900000000000001          1.8526577605371131E-006
  0.20010000000000000          1.9678939224831993E-006
  0.20120000000000005          2.0602199128916254E-006
  0.20230000000000004          2.1299006220942829E-006
  0.20340000000000003          2.1774787910544546E-006
  0.20450000000000002          2.2037502276361920E-006
  0.20560000000000000          2.2097372038842877E-006
  0.20670000000000005          2.1966573058307404E-006
  0.20780000000000004          2.1658927380485693E-006
  0.20890000000000003          2.1189578092162265E-006
