 -0.12000000000000000          0.0000000000000000
 -0.11889999999999999          0.0000000000000000
 -0.11780000000000000          0.0000000000000000
 -0.11670000000000000          0.0000000000000000
 -0.11559999999999999          0.0000000000000000
 -0.11449999999999999          0.0000000000000000
 -0.11340000000000000          0.0000000000000000
 -0.11230000000000000          0.0000000000000000
 -0.11119999999999999          0.0000000000000000
 -0.11009999999999999          0.0000000000000000
 -0.10900000000000000         -2.2229834279827743E-033
 -0.10790000000000000          7.8364645930053817E-031
 -0.10679999999999999         -3.9552202606863429E-030
 -0.10569999999999999          3.8674235092109972E-029
 -0.10460000000000000          3.0977153152484981E-028
 -0.10349999999999999         -2.9863368606346399E-028
 -0.10239999999999999         -4.2739478509443449E-027
 -0.10130000000000000          4.0662813732028802E-027
 -0.10020000000000000          6.6139201466401775E-026
  -9.9099999999999994E-002     4.6236530487539283E-026
  -9.7999999999999990E-002    -6.3490400064110429E-025
  -9.6899999999999986E-002    -1.5805878407183047E-024
  -9.5799999999999996E-002     2.4597454136326002E-024
  -9.4699999999999993E-002     1.6908897448666764E-023
  -9.3599999999999989E-002     1.5185263192029631E-023
  -9.2499999999999999E-002    -8.1591429043127844E-023
  -9.1399999999999995E-002    -2.5305461295269019E-022
  -9.0299999999999991E-002    -2.9037073775197113E-023
  -8.9200000000000002E-002     1.3119944815239817E-021
  -8.8099999999999984E-002     2.7318806991267976E-021
  -8.6999999999999994E-002    -1.0014172420787299E-021
  -8.5899999999999990E-002    -1.4601334011649224E-020
  -8.4799999999999986E-002    -2.4130099239090647E-020
  -8.3699999999999997E-002     1.4758054041572479E-020
  -8.2599999999999993E-002     1.2665021812405934E-019
  -8.1499999999999989E-002     1.8710850012873921E-019
  -8.0399999999999999E-002    -1.1700765740125506E-019
  -7.9299999999999995E-002    -9.0458290099933498E-019
  -7.8199999999999992E-002    -1.3124526329545852E-018
  -7.7100000000000002E-002     5.9337129157243741E-019
  -7.5999999999999984E-002     5.4588808452314249E-018
  -7.4899999999999994E-002     8.3474948059401039E-018
  -7.3799999999999991E-002    -1.4462251087972734E-018
  -7.2699999999999987E-002    -2.8069970422848068E-017
  -7.1599999999999997E-002    -4.7667427616335993E-017
  -7.0499999999999993E-002    -6.6582662636537133E-018
  -6.9399999999999989E-002     1.2233047024104638E-016
  -6.8300000000000000E-002     2.4153962407146067E-016
  -6.7199999999999996E-002     1.0863637608622280E-016
  -6.6099999999999992E-002    -4.4123145303492462E-016
  -6.5000000000000002E-002    -1.0746109007863888E-015
  -6.3899999999999985E-002    -8.0672238459667217E-016
  -6.2799999999999995E-002     1.2309430073007867E-015
  -6.1699999999999991E-002     4.1504373011070749E-015
  -6.0599999999999994E-002     4.3893315089353624E-015
  -5.9499999999999990E-002    -2.0272820914531012E-015
  -5.8399999999999994E-002    -1.3680650206703438E-014
  -5.7299999999999990E-002    -1.9260897333984138E-014
  -5.6199999999999986E-002    -2.9327607355844219E-015
  -5.5099999999999996E-002     3.7191241433103331E-014
  -5.3999999999999992E-002     7.0375298741754549E-014
  -5.2899999999999989E-002     4.1627613763797408E-014
  -5.1799999999999985E-002    -7.6211674232724846E-014
  -5.0699999999999995E-002    -2.1542842379776439E-013
  -4.9599999999999991E-002    -2.1004328647471898E-013
  -4.8499999999999988E-002     7.7007112709095993E-014
  -4.7399999999999998E-002     5.4388524933779436E-013
  -4.6299999999999994E-002     7.6001721192528460E-013
  -4.5199999999999990E-002     2.2239305395074099E-013
  -4.4099999999999986E-002    -1.0699383002840679E-012
  -4.2999999999999997E-002    -2.1835445777884654E-012
  -4.1899999999999993E-002    -1.6210945346512018E-012
  -4.0799999999999989E-002     1.3163748520048091E-012
  -3.9699999999999985E-002     5.0608809677721300E-012
  -3.8599999999999995E-002     5.8916647602269556E-012
  -3.7499999999999992E-002     6.7227923531906764E-013
  -3.6399999999999988E-002    -9.1095611956526490E-012
  -3.5299999999999984E-002    -1.5772003494896047E-011
  -3.4199999999999994E-002    -9.8288105085386768E-012
  -3.3099999999999991E-002     1.0671246872262508E-011
  -3.1999999999999987E-002     3.3117186076792038E-011
  -3.0899999999999997E-002     3.4862668307766853E-011
  -2.9799999999999993E-002     1.4153436452349344E-012
  -2.8699999999999989E-002    -5.3310023062635992E-011
  -2.7599999999999986E-002    -8.5223827994695966E-011
  -2.6499999999999996E-002    -4.9055436796008323E-011
  -2.5399999999999992E-002     5.5593980807788768E-011
  -2.4299999999999988E-002     1.6010109904485148E-010
  -2.3199999999999985E-002     1.6085049958647346E-010
  -2.2099999999999995E-002     5.8014773540726594E-012
  -2.0999999999999991E-002    -2.2870659532880921E-010
  -1.9899999999999987E-002    -3.5294728251145102E-010
  -1.8799999999999983E-002    -1.9797348482786248E-010
  -1.7699999999999994E-002     2.1072085742979141E-010
  -1.6599999999999990E-002     5.9394067442042342E-010
  -1.5499999999999986E-002     5.8052551654697027E-010
  -1.4399999999999996E-002     2.4162548697970188E-011
  -1.3299999999999992E-002    -7.6846029539723304E-010
  -1.2199999999999989E-002    -1.1521013032478322E-009
  -1.1099999999999985E-002    -6.2161198410848328E-010
  -9.9999999999999950E-003     6.6422439770619235E-010
  -8.8999999999999913E-003     1.7923447170886675E-009
  -7.7999999999999875E-003     1.6774899247451458E-009
  -6.6999999999999837E-003     5.3590382999291197E-012
  -5.5999999999999939E-003    -2.2192574444801494E-009
  -4.4999999999999901E-003    -3.1590108307000264E-009
  -3.3999999999999864E-003    -1.5528494046179731E-009
  -2.2999999999999826E-003     1.9535106865475882E-009
  -1.1999999999999927E-003     4.7977346540051258E-009
  -9.9999999999988987E-005     4.2264112209977611E-009
   1.0000000000000148E-003    -2.8578595046013788E-010
   2.1000000000000185E-003    -5.9025673238011223E-009
   3.2000000000000084E-003    -7.9717157319691978E-009
   4.3000000000000121E-003    -3.6334657504966117E-009
   5.4000000000000159E-003     5.1426569669388300E-009
   6.5000000000000058E-003     1.1943515509926783E-008
   7.6000000000000234E-003     1.0310253095724420E-008
   8.7000000000000133E-003    -6.4399308108420428E-010
   9.8000000000000032E-003    -1.3990018032927765E-008
   1.0900000000000021E-002    -1.8936516354983723E-008
   1.2000000000000011E-002    -9.1246761257934850E-009
   1.3100000000000001E-002     1.0818732576467482E-008
   1.4200000000000018E-002     2.6534474173445233E-008
   1.5300000000000008E-002     2.3796037140755288E-008
   1.6400000000000026E-002     5.9754146075619019E-010
   1.7500000000000016E-002    -2.8316629041569286E-008
   1.8600000000000005E-002    -4.0067128281862097E-008
   1.9700000000000023E-002    -2.1074685108146696E-008
   2.0800000000000013E-002     1.9464881262365452E-008
   2.1900000000000003E-002     5.2323489541095114E-008
   2.3000000000000020E-002     4.8434269928065987E-008
   2.4100000000000010E-002     3.3044917913116478E-009
   2.5200000000000000E-002    -5.3986148884632712E-008
   2.6300000000000018E-002    -7.8045538032256445E-008
   2.7400000000000008E-002    -4.1745376933022271E-008
   2.8500000000000025E-002     3.7248412354529137E-008
   2.9600000000000015E-002     1.0188880850137139E-007
   3.0700000000000005E-002     9.5183416704003321E-008
   3.1800000000000023E-002     7.6988886377193921E-009
   3.2900000000000013E-002    -1.0483677215233911E-007
   3.4000000000000002E-002    -1.5451756496531743E-007
   3.5100000000000020E-002    -8.7524220759860327E-008
   3.6200000000000010E-002     6.4701943358613789E-008
   3.7300000000000028E-002     1.9465522882455844E-007
   3.8400000000000017E-002     1.9233885950598051E-007
   3.9500000000000007E-002     3.4785085034627627E-008
   4.0600000000000025E-002    -1.7911396810177393E-007
   4.1700000000000015E-002    -2.8707165711239213E-007
   4.2800000000000005E-002    -1.8408117341550678E-007
   4.3900000000000022E-002     8.2401143686183786E-008
   4.5000000000000012E-002     3.2498081736775930E-007
   4.6100000000000002E-002     3.4483230137993814E-007
   4.7200000000000020E-002     9.1007599678505358E-008
   4.8300000000000010E-002    -2.7416106718192168E-007
   4.9400000000000027E-002    -4.7236918021553720E-007
   5.0500000000000017E-002    -3.1673693001721404E-007
   5.1600000000000007E-002     1.2168187879524339E-007
   5.2700000000000025E-002     5.3038701253171894E-007
   5.3800000000000014E-002     5.7085890148300678E-007
   5.4900000000000004E-002     1.4958838789880247E-007
   5.6000000000000022E-002    -4.6655264895889559E-007
   5.7100000000000012E-002    -8.0880823816187331E-007
   5.8200000000000002E-002    -5.5361880413329345E-007
   5.9300000000000019E-002     1.9288087571567303E-007
   6.0400000000000009E-002     9.1226888798701111E-007
   6.1500000000000027E-002     1.0254927929054247E-006
   6.2600000000000017E-002     3.4688682148953376E-007
   6.3700000000000007E-002    -7.0828048137627775E-007
   6.4800000000000024E-002    -1.3652912684847252E-006
   6.5900000000000014E-002    -1.0528539178267238E-006
   6.7000000000000004E-002     1.1573577296530857E-007
   6.8100000000000022E-002     1.3381309145188425E-006
   6.9200000000000012E-002     1.6648921246087411E-006
   7.0300000000000029E-002     7.3132491706928704E-007
   7.1400000000000019E-002    -8.7750208876968827E-007
   7.2500000000000009E-002    -1.9682295260281535E-006
   7.3600000000000027E-002    -1.6093713384179864E-006
   7.4700000000000016E-002     9.2649052874094195E-008
   7.5800000000000006E-002     1.9420754142629448E-006
   7.6900000000000024E-002     2.4636476609884994E-006
   7.8000000000000014E-002     1.0427720553707331E-006
   7.9100000000000004E-002    -1.4670372365799267E-006
   8.0200000000000021E-002    -3.2215375540545210E-006
   8.1300000000000011E-002    -2.7108530957775656E-006
   8.2400000000000029E-002     6.1086198321902430E-009
   8.3500000000000019E-002     3.1426050099980785E-006
   8.4600000000000009E-002     4.3587078835116699E-006
   8.5700000000000026E-002     2.5096146600844804E-006
   8.6800000000000016E-002    -1.3335560424820869E-006
   8.7900000000000006E-002    -4.4722119127982296E-006
   8.9000000000000024E-002    -4.4987036744714715E-006
   9.0100000000000013E-002    -1.1918781410713564E-006
   9.1200000000000003E-002     3.0948494895710610E-006
   9.2300000000000021E-002     5.0194094001199119E-006
   9.3400000000000011E-002     2.7824871722259559E-006
   9.4500000000000028E-002    -2.2750625703338301E-006
   9.5600000000000018E-002    -6.3598236010875553E-006
   9.6700000000000008E-002    -5.9096073528053239E-006
   9.7800000000000026E-002    -3.9966101894606254E-007
   9.8900000000000016E-002     6.8899544203304686E-006
  0.10000000000000001          1.0943214874714613E-005
  0.10110000000000002          8.5948649939382449E-006
  0.10220000000000001          1.0226166295979056E-006
  0.10330000000000003         -6.8571312112908345E-006
  0.10440000000000002         -9.8760756372939795E-006
  0.10550000000000001         -6.5241551965300459E-006
  0.10660000000000003         -2.9279232194312499E-007
  0.10770000000000002          2.7924918413191335E-006
  0.10880000000000001         -1.1700611821652274E-006
  0.10990000000000003         -1.0578422006801702E-005
  0.11100000000000002         -1.8995711798197590E-005
  0.11210000000000001         -1.9720457203220576E-005
  0.11320000000000002         -1.1052929949073587E-005
  0.11430000000000001          1.7731523485053913E-006
  0.11540000000000003          9.7829943115357310E-006
  0.11650000000000002          6.5489707594679203E-006
  0.11760000000000001         -7.0113719630171545E-006
  0.11870000000000003         -2.3114724172046408E-005
  0.11980000000000002         -3.2852014555828646E-005
  0.12090000000000001         -3.3088210329879075E-005
  0.12200000000000003         -2.9216822440503165E-005
  0.12310000000000001         -3.1315008527599275E-005
  0.12420000000000003         -4.6242130338214338E-005
  0.12530000000000002         -7.1640839450992644E-005
  0.12640000000000001         -9.6817340818233788E-005
  0.12750000000000003         -1.1050871398765594E-004
  0.12860000000000002         -1.1012639879481867E-004
  0.12970000000000001         -1.0538334026932716E-004
  0.13080000000000003         -1.1290007387287915E-004
  0.13190000000000002         -1.4503955026157200E-004
  0.13300000000000001         -2.0091528131160885E-004
  0.13410000000000000         -2.6652627275325358E-004
  0.13520000000000004         -3.2455965992994606E-004
  0.13630000000000003         -3.6714342422783375E-004
  0.13740000000000002         -4.0219529182650149E-004
  0.13850000000000001         -4.4826706289313734E-004
  0.13960000000000000         -5.2128027891740203E-004
  0.14070000000000005         -6.2278797850012779E-004
  0.14180000000000004         -7.3886674363166094E-004
  0.14290000000000003         -8.5095170652493834E-004
  0.14400000000000002         -9.5088395755738020E-004
  0.14510000000000001         -1.0487970430403948E-003
  0.14620000000000000         -1.1670865351334214E-003
  0.14730000000000004         -1.3243911089375615E-003
  0.14840000000000003         -1.5210882993414998E-003
  0.14950000000000002         -1.7376724863424897E-003
  0.15060000000000001         -1.9480597693473101E-003
  0.15170000000000000         -2.1386896260082722E-003
  0.15280000000000005         -2.3191336076706648E-003
  0.15390000000000004         -2.5155125185847282E-003
  0.15500000000000003         -2.7506281621754169E-003
  0.15610000000000002         -3.0249110423028469E-003
  0.15720000000000001         -3.3128187060356140E-003
  0.15830000000000000         -3.5781345795840025E-003
  0.15940000000000004         -3.7975336890667677E-003
  0.16050000000000003         -3.9758495986461639E-003
  0.16160000000000002         -4.1407183744013309E-003
  0.16270000000000001         -4.3196952901780605E-003
  0.16380000000000000         -4.5159012079238892E-003
  0.16490000000000005         -4.7002579085528851E-003
  0.16600000000000004         -4.8264008946716785E-003
  0.16710000000000003         -4.8576402477920055E-003
  0.16820000000000002         -4.7870925627648830E-003
  0.16930000000000001         -4.6360744163393974E-003
  0.17040000000000000         -4.4312709942460060E-003
  0.17150000000000004         -4.1792602278292179E-003
  0.17260000000000003         -3.8557611405849457E-003
  0.17370000000000002         -3.4190388396382332E-003
  0.17480000000000001         -2.8361903969198465E-003
  0.17590000000000000         -2.1034900564700365E-003
  0.17700000000000005         -1.2449867790564895E-003
  0.17810000000000004         -2.8998116613365710E-004
  0.17920000000000003          7.5359508628025651E-004
  0.18030000000000002          1.9068175461143255E-003
  0.18140000000000001          3.2049438450485468E-003
  0.18250000000000000          4.6670460142195225E-003
  0.18360000000000004          6.2733860686421394E-003
  0.18470000000000003          7.9717217013239861E-003
  0.18580000000000002          9.7037674859166145E-003
  0.18690000000000001          1.1438008397817612E-002
  0.18800000000000000          1.3178857043385506E-002
  0.18910000000000005          1.4950732700526714E-002
  0.19020000000000004          1.6762364655733109E-002
  0.19130000000000003          1.8580997362732887E-002
  0.19240000000000002          2.0333932712674141E-002
  0.19350000000000001          2.1938035264611244E-002
  0.19460000000000005          2.3334752768278122E-002
  0.19570000000000004          2.4505445733666420E-002
  0.19680000000000003          2.5459159165620804E-002
  0.19790000000000002          2.6197373867034912E-002
  0.19900000000000001          2.6688780635595322E-002
  0.20010000000000000          2.6868131011724472E-002
  0.20120000000000005          2.6665462180972099E-002
  0.20230000000000004          2.6039579883217812E-002
  0.20340000000000003          2.4993371218442917E-002
  0.20450000000000002          2.3559741675853729E-002
  0.20560000000000000          2.1769100800156593E-002
  0.20670000000000005          1.9621120765805244E-002
  0.20780000000000004          1.7086079344153404E-002
  0.20890000000000003          1.4132883399724960E-002
