 -0.12000000000000000          0.0000000000000000
 -0.11889999999999999          0.0000000000000000
 -0.11780000000000000          0.0000000000000000
 -0.11670000000000000          0.0000000000000000
 -0.11559999999999999          0.0000000000000000
 -0.11449999999999999          0.0000000000000000
 -0.11340000000000000          0.0000000000000000
 -0.11230000000000000          0.0000000000000000
 -0.11119999999999999          0.0000000000000000
 -0.11009999999999999          0.0000000000000000
 -0.10900000000000000          0.0000000000000000
 -0.10790000000000000          0.0000000000000000
 -0.10679999999999999          0.0000000000000000
 -0.10569999999999999          0.0000000000000000
 -0.10460000000000000          0.0000000000000000
 -0.10349999999999999          6.9193920932367406E-037
 -0.10239999999999999          1.8184581922702745E-035
 -0.10130000000000000          1.5985482244041275E-034
 -0.10020000000000000          5.4940916184304411E-034
  -9.9099999999999994E-002    -7.2652635989345957E-034
  -9.7999999999999990E-002    -1.4274592139323432E-032
  -9.6899999999999986E-002    -5.4499391689927929E-032
  -9.5799999999999996E-002    -4.7826700946221091E-032
  -9.4699999999999993E-002     3.9630795218763926E-031
  -9.3599999999999989E-002     1.8527944474609958E-030
  -9.2499999999999999E-002     2.9771126643049803E-030
  -9.1399999999999995E-002    -4.0498684327072076E-030
  -9.0299999999999991E-002    -3.1773119535494567E-029
  -8.9200000000000002E-002    -6.7257981537778357E-029
  -8.8099999999999984E-002    -1.1479053291373019E-029
  -8.6999999999999994E-002     3.0804751126100727E-028
  -8.5899999999999990E-002     8.3334362766403770E-028
  -8.4799999999999986E-002     6.9950464100099525E-028
  -8.3699999999999997E-002    -1.6914221661968351E-027
  -8.2599999999999993E-002    -6.3239061430061633E-027
  -8.1499999999999989E-002    -7.4938850878760875E-027
  -8.0399999999999999E-002     5.2225700376561223E-027
  -7.9299999999999995E-002     3.1448587099096950E-026
  -7.8199999999999992E-002     3.7517287879986372E-026
  -7.7100000000000002E-002    -2.8284798808949861E-026
  -7.5999999999999984E-002    -1.3589926216181635E-025
  -7.4899999999999994E-002    -6.3983947191676462E-026
  -7.3799999999999991E-002     4.3704481731815811E-025
  -7.2699999999999987E-002     9.8658800364614004E-025
  -7.1599999999999997E-002    -1.9315112893660701E-026
  -7.0499999999999993E-002    -4.2236760658150069E-024
  -6.9399999999999989E-002    -9.1333913287427084E-024
  -6.8300000000000000E-002    -4.2101806278789384E-024
  -6.7199999999999996E-002     2.3167913930472956E-023
  -6.6099999999999992E-002     6.4389162112418438E-023
  -6.5000000000000002E-002     6.3657181233907482E-023
  -6.3899999999999985E-002    -6.2706162081009239E-023
  -6.2799999999999995E-002    -3.1695719303699383E-022
  -6.1699999999999991E-002    -4.7097490104332352E-022
  -6.0599999999999994E-002    -8.5366923646402848E-023
  -5.9499999999999990E-002     1.0683297114805734E-021
  -5.8399999999999994E-002     2.2970052343096401E-021
  -5.7299999999999990E-002     1.7659948629353767E-021
  -5.6199999999999986E-002    -2.1702398054358886E-021
  -5.5099999999999996E-002    -8.1289017889825048E-021
  -5.3999999999999992E-002    -9.8855821862458153E-021
  -5.2899999999999989E-002     2.7041588899834319E-022
  -5.1799999999999985E-002     2.1827123400579315E-020
  -5.0699999999999995E-002     3.7182081958162569E-020
  -4.9599999999999991E-002     1.7930076817624533E-020
  -4.8499999999999988E-002    -4.5946454751422567E-020
  -4.7399999999999998E-002    -1.1183730035900700E-019
  -4.6299999999999994E-002    -8.9939664657968942E-020
  -4.5199999999999990E-002     7.7576106234868545E-020
  -4.4099999999999986E-002     3.0155223367320373E-019
  -4.2999999999999997E-002     3.2370694806133532E-019
  -4.1899999999999993E-002    -8.7282527885901337E-020
  -4.0799999999999989E-002    -7.8288958854539380E-019
  -3.9699999999999985E-002    -1.0690426401943982E-018
  -3.8599999999999995E-002    -1.4127734336871403E-019
  -3.7499999999999992E-002     1.9091518789264766E-018
  -3.6399999999999988E-002     3.3654631111253388E-018
  -3.5299999999999984E-002     1.6840201995594504E-018
  -3.4199999999999994E-002    -3.8606082559207527E-018
  -3.3099999999999991E-002    -9.5609083803706791E-018
  -3.1999999999999987E-002    -8.1746281199869345E-018
  -3.0899999999999997E-002     4.8031623659514515E-018
  -2.9799999999999993E-002     2.3055541992547511E-017
  -2.8699999999999989E-002     2.8387012208027393E-017
  -2.7599999999999986E-002     3.7333609943401891E-018
  -2.6499999999999996E-002    -4.4902999935351125E-017
  -2.5399999999999992E-002    -7.7891971924313184E-017
  -2.4299999999999988E-002    -4.4424118608964576E-017
  -2.3199999999999985E-002     6.4863427290349769E-017
  -2.2099999999999995E-002     1.7678559638020471E-016
  -2.0999999999999991E-002     1.6361230175648942E-016
  -1.9899999999999987E-002    -4.4903612049004415E-017
  -1.8799999999999983E-002    -3.4056828410799025E-016
  -1.7699999999999994E-002    -4.4324731204005105E-016
  -1.6599999999999990E-002    -1.1144978940308306E-016
  -1.5499999999999986E-002     5.5552248211067422E-016
  -1.4399999999999996E-002     1.0150596141549647E-015
  -1.3299999999999992E-002     6.2171096009810533E-016
  -1.2199999999999989E-002    -7.0545758404917083E-016
  -1.1099999999999985E-002    -2.0497860627957535E-015
  -9.9999999999999950E-003    -1.9289068379260395E-015
  -8.8999999999999913E-003     3.8546357141130993E-016
  -7.7999999999999875E-003     3.6236315123093672E-015
  -6.6999999999999837E-003     4.7788442684114623E-015
  -5.5999999999999939E-003     1.4281503827508354E-015
  -4.4999999999999901E-003    -5.3065762877369926E-015
  -3.3999999999999864E-003    -1.0052929219324727E-014
  -2.2999999999999826E-003    -6.7080689554509590E-015
  -1.1999999999999927E-003     5.4139292434720026E-015
  -9.9999999999988987E-005     1.8075347669359657E-014
   1.0000000000000148E-003     1.8338049855752894E-014
   2.1000000000000185E-003    -1.4759735717852375E-016
   3.2000000000000084E-003    -2.7309644956151520E-014
   4.3000000000000121E-003    -3.9341129637847361E-014
   5.4000000000000159E-003    -1.6965421106266039E-014
   6.5000000000000058E-003     3.2611669712346442E-014
   7.6000000000000234E-003     7.1212451896712076E-014
   8.7000000000000133E-003     5.5069250754543470E-014
   9.8000000000000032E-003    -2.3031503462202230E-014
   1.0900000000000021E-002    -1.1089111399964491E-013
   1.2000000000000011E-002    -1.2480274246776807E-013
   1.3100000000000001E-002    -2.0831498012035057E-014
   1.4200000000000018E-002     1.4512660008198647E-013
   1.5300000000000008E-002     2.3359916431764383E-013
   1.6400000000000026E-002     1.2768924101663054E-013
   1.7500000000000016E-002    -1.4254203828563405E-013
   1.8600000000000005E-002    -3.7462323824663524E-013
   1.9700000000000023E-002    -3.2917519079446456E-013
   2.0800000000000013E-002     4.9068750771581390E-014
   2.1900000000000003E-002     5.1206434925621380E-013
   2.3000000000000020E-002     6.4397510761426968E-013
   2.4100000000000010E-002     2.0662128692033876E-013
   2.5200000000000000E-002    -5.7100347670632767E-013
   2.6300000000000018E-002    -1.0591445255558884E-012
   2.7400000000000008E-002    -7.0146389781824969E-013
   2.8500000000000025E-002     4.3002092772054246E-013
   2.9600000000000015E-002     1.5074816395177493E-012
   3.0700000000000005E-002     1.5012257929825079E-012
   3.1800000000000023E-002     9.2280553315969571E-014
   3.2900000000000013E-002    -1.8179707956048063E-012
   3.4000000000000002E-002    -2.6008971452246010E-012
   3.5100000000000020E-002    -1.2160414819203935E-012
   3.6200000000000010E-002     1.6592657152772472E-012
   3.7300000000000028E-002     3.7946343116324055E-012
   3.8400000000000017E-002     3.0557396890618094E-012
   3.9500000000000007E-002    -6.1041612302997761E-013
   4.0600000000000025E-002    -4.6084130435330994E-012
   4.1700000000000015E-002    -5.4198078316969323E-012
   4.2800000000000005E-002    -1.5861067884440083E-012
   4.3900000000000022E-002     4.4918973055030342E-012
   4.5000000000000012E-002     7.8575826401028337E-012
   4.6100000000000002E-002     4.9137100638363407E-012
   4.7200000000000020E-002    -3.0384045973663731E-012
   4.8300000000000010E-002    -9.9280106705124105E-012
   4.9400000000000027E-002    -9.3684504598456897E-012
   5.0500000000000017E-002    -3.1060988199896333E-013
   5.1600000000000007E-002     1.0942164709037971E-011
   5.2700000000000025E-002     1.4877946097335837E-011
   5.3800000000000014E-002     6.5670047524890585E-012
   5.4900000000000004E-002    -9.1348482597619629E-012
   5.6000000000000022E-002    -2.0038748438366838E-011
   5.7100000000000012E-002    -1.5922580962057786E-011
   5.8200000000000002E-002     2.2954554923515502E-012
   5.9300000000000019E-002     2.1521406184943359E-011
   6.0400000000000009E-002     2.5775446013676095E-011
   6.1500000000000027E-002     9.3636591536050418E-012
   6.2600000000000017E-002    -1.6817817971581661E-011
   6.3700000000000007E-002    -3.2210078354522054E-011
   6.4800000000000024E-002    -2.2642875421863273E-011
   6.5900000000000014E-002     6.9230099083994467E-012
   6.7000000000000004E-002     3.4156823203179698E-011
   6.8100000000000022E-002     3.5913039903023858E-011
   6.9200000000000012E-002     7.4516712245120686E-012
   7.0300000000000029E-002    -3.1408951828293397E-011
   7.1400000000000019E-002    -4.9766857301847267E-011
   7.2500000000000009E-002    -2.9732275669269725E-011
   7.3600000000000027E-002     1.7506416455370655E-011
   7.4700000000000016E-002     5.7530209762735041E-011
   7.5800000000000006E-002     5.7825924604237855E-011
   7.6900000000000024E-002     1.3811362643834091E-011
   7.8000000000000014E-002    -4.4910165863942808E-011
   7.9100000000000004E-002    -7.4683828565902388E-011
   8.0200000000000021E-002    -5.0635773352070146E-011
   8.1300000000000011E-002     1.2474130235695657E-011
   8.2400000000000029E-002     6.8553315801800352E-011
   8.3500000000000019E-002     7.3482039897321272E-011
   8.4600000000000009E-002     1.9675660406504036E-011
   8.5700000000000026E-002    -5.4658090553605376E-011
   8.6800000000000016E-002    -9.0936334851132727E-011
   8.7900000000000006E-002    -5.4029832691204760E-011
   8.9000000000000024E-002     3.7268205882456940E-011
   9.0100000000000013E-002     1.1791392862114947E-010
   9.1200000000000003E-002     1.2093087642384148E-010
   9.2300000000000021E-002     2.8978035249149769E-011
   9.3400000000000011E-002    -1.0518180076912742E-010
   9.4500000000000028E-002    -1.8882950758580819E-010
   9.5600000000000018E-002    -1.5366619088297284E-010
   9.6700000000000008E-002    -9.9185243351840313E-012
   9.7800000000000026E-002     1.5224685401271643E-010
   9.8900000000000016E-002     2.2151940004544457E-010
  0.10000000000000001          1.4652980218077261E-010
  0.10110000000000002         -2.0777619208489639E-011
  0.10220000000000001         -1.5745280079748625E-010
  0.10330000000000003         -1.6044771067313945E-010
  0.10440000000000002         -3.0270837919621485E-011
  0.10550000000000001          1.2076345479172801E-010
  0.10660000000000003          1.5125822816486334E-010
  0.10770000000000002          7.7777723497818307E-012
  0.10880000000000001         -2.1587184817484228E-010
  0.10990000000000003         -3.3384914277512223E-010
  0.11100000000000002         -2.0829636626640280E-010
  0.11210000000000001          1.2856742059863535E-010
  0.11320000000000002          4.7135789715824217E-010
  0.11430000000000001          5.7481769344391864E-010
  0.11540000000000003          3.3405822552623476E-010
  0.11650000000000002         -1.2377576741329221E-010
  0.11760000000000001         -5.1470749884430234E-010
  0.11870000000000003         -5.9463695079031709E-010
  0.11980000000000002         -3.3517297270968527E-010
  0.12090000000000001          5.5849144753317148E-011
  0.12200000000000003          2.9065891360424700E-010
  0.12310000000000001          2.2093984974880243E-010
  0.12420000000000003         -4.6653614999003779E-011
  0.12530000000000002         -2.3235136037413895E-010
  0.12640000000000001         -1.0744333894807667E-010
  0.12750000000000003          3.0679087048568476E-010
  0.12860000000000002          7.2242395399157999E-010
  0.12970000000000001          7.7746642457299231E-010
  0.13080000000000003          3.0818050889003246E-010
  0.13190000000000002         -4.9629617082658228E-010
  0.13300000000000001         -1.1806593480656602E-009
  0.13410000000000000         -1.3077501304081807E-009
  0.13520000000000004         -7.5236178398441211E-010
  0.13630000000000003          2.0088504470994195E-010
  0.13740000000000002          1.0330526434287890E-009
  0.13850000000000001          1.3273814269965101E-009
  0.13960000000000000          1.0343330636430892E-009
  0.14070000000000005          4.7320608542733567E-010
  0.14180000000000004          6.1832233777536771E-011
  0.14290000000000003         -3.0517671723018225E-011
  0.14400000000000002         -3.8198454815896454E-011
  0.14510000000000001         -4.1915876325404611E-010
  0.14620000000000000         -1.4483539922949262E-009
  0.14730000000000004         -2.8905535742751454E-009
  0.14840000000000003         -4.0395180533892017E-009
  0.14950000000000002         -4.1605905387598341E-009
  0.15060000000000001         -3.0587512522828320E-009
  0.15170000000000000         -1.3542397203636369E-009
  0.15280000000000005         -2.1574123043599513E-010
  0.15390000000000004         -6.8216343684923686E-010
  0.15500000000000003         -3.0240372428380624E-009
  0.15610000000000002         -6.6002479037763351E-009
  0.15720000000000001         -1.0325773125430260E-008
  0.15830000000000000         -1.3420673461439492E-008
  0.15940000000000004         -1.5898278249437681E-008
  0.16050000000000003         -1.8446280947159721E-008
  0.16160000000000002         -2.1820786955117910E-008
  0.16270000000000001         -2.6253722751334863E-008
  0.16380000000000000         -3.1366791830578222E-008
  0.16490000000000005         -3.6684909332507232E-008
  0.16600000000000004         -4.2353359930302759E-008
  0.16710000000000003         -4.9468582119516213E-008
  0.16820000000000002         -5.9695238974200038E-008
  0.16930000000000001         -7.4375627434619673E-008
  0.17040000000000000         -9.3742777096395002E-008
  0.17150000000000004         -1.1681815692554665E-007
  0.17260000000000003         -1.4211991583579220E-007
  0.17370000000000002         -1.6874855646165088E-007
  0.17480000000000001         -1.9715135124442895E-007
  0.17590000000000000         -2.2908029961854481E-007
  0.17700000000000005         -2.6680245923671464E-007
  0.17810000000000004         -3.1212076123665611E-007
  0.17920000000000003         -3.6587576346391870E-007
  0.18030000000000002         -4.2824470369851042E-007
  0.18140000000000001         -4.9957492365138023E-007
  0.18250000000000000         -5.8108810208068462E-007
  0.18360000000000004         -6.7486320176612935E-007
  0.18470000000000003         -7.8302809924934991E-007
  0.18580000000000002         -9.0671534280772903E-007
  0.18690000000000001         -1.0455997880853829E-006
  0.18800000000000000         -1.1985030141659081E-006
  0.18910000000000005         -1.3647968444274738E-006
  0.19020000000000004         -1.5456928394996794E-006
  0.19130000000000003         -1.7444704099034425E-006
  0.19240000000000002         -1.9653671188279986E-006
  0.19350000000000001         -2.2117919797892682E-006
  0.19460000000000005         -2.4850498903106200E-006
  0.19570000000000004         -2.7844132546306355E-006
  0.19680000000000003         -3.1084041438589338E-006
  0.19790000000000002         -3.4562519886094378E-006
  0.19900000000000001         -3.8283706089714542E-006
  0.20010000000000000         -4.2255055632267613E-006
  0.20120000000000005         -4.6472705435007811E-006
  0.20230000000000004         -5.0913172344735358E-006
  0.20340000000000003         -5.5539044296892826E-006
  0.20450000000000002         -6.0315037444524933E-006
  0.20560000000000000         -6.5221865952480584E-006
  0.20670000000000005         -7.0256473918561824E-006
  0.20780000000000004         -7.5416587606014218E-006
  0.20890000000000003         -8.0678855738369748E-006
