 -0.12000000000000000          0.0000000000000000
 -0.11889999999999999          0.0000000000000000
 -0.11780000000000000          0.0000000000000000
 -0.11670000000000000          0.0000000000000000
 -0.11559999999999999          0.0000000000000000
 -0.11449999999999999          0.0000000000000000
 -0.11340000000000000          0.0000000000000000
 -0.11230000000000000          0.0000000000000000
 -0.11119999999999999          0.0000000000000000
 -0.11009999999999999          0.0000000000000000
 -0.10900000000000000         -2.4452815147896062E-037
 -0.10790000000000000         -1.9410977532200226E-035
 -0.10679999999999999         -3.9974255786696188E-034
 -0.10569999999999999         -4.0414719030079069E-033
 -0.10460000000000000         -2.4925337967837268E-032
 -0.10349999999999999         -1.0244165254704248E-031
 -0.10239999999999999         -2.8417103382399770E-031
 -0.10130000000000000         -4.7825029981001397E-031
 -0.10020000000000000         -1.5550273873666303E-031
  -9.9099999999999994E-002     1.6136311880291351E-030
  -9.7999999999999990E-002     4.6515996650739256E-030
  -9.6899999999999986E-002     4.5632638036774284E-030
  -9.5799999999999996E-002    -7.5120769587038765E-030
  -9.4699999999999993E-002    -3.3468268905764526E-029
  -9.3599999999999989E-002    -4.5484985413881622E-029
  -9.2499999999999999E-002     1.7622400426623499E-029
  -9.1399999999999995E-002     1.8484116252375142E-028
  -9.0299999999999991E-002     3.2310837972261268E-028
  -8.9200000000000002E-002     8.1743309909627941E-029
  -8.8099999999999984E-002    -8.7031031220259518E-028
  -8.6999999999999994E-002    -2.2013616153729265E-027
  -8.5899999999999990E-002    -2.0402465977242513E-027
  -8.4799999999999986E-002     3.1921479937641792E-027
  -8.3699999999999997E-002     1.5320490751456603E-026
  -8.2599999999999993E-002     2.3558953452156418E-026
  -8.1499999999999989E-002    -6.6045746101036373E-027
  -8.0399999999999999E-002    -1.0791910541072571E-025
  -7.9299999999999995E-002    -2.0462429420875020E-025
  -7.8199999999999992E-002    -7.9127717692924003E-028
  -7.7100000000000002E-002     7.9698227754406870E-025
  -7.5999999999999984E-002     1.5924952030445501E-024
  -7.4899999999999994E-002     6.8488478545956524E-026
  -7.3799999999999991E-002    -6.0102913994031753E-024
  -7.2699999999999987E-002    -1.2298886615281082E-023
  -7.1599999999999997E-002    -2.1579445862349559E-024
  -7.0499999999999993E-002     4.1151986194467077E-023
  -6.9399999999999989E-002     9.1891958224945859E-023
  -6.8300000000000000E-002     4.2852230725264407E-023
  -6.7199999999999996E-002    -2.2840701368963246E-022
  -6.6099999999999992E-002    -6.1109866067237243E-022
  -6.5000000000000002E-002    -5.0324423455891148E-022
  -6.3899999999999985E-002     9.1420542521050473E-022
  -6.2799999999999995E-002     3.4026090653240132E-021
  -6.1699999999999991E-002     4.0980357198306124E-021
  -6.0599999999999994E-002    -1.7731256606475953E-021
  -5.9499999999999990E-002    -1.5237019081221958E-020
  -5.8399999999999994E-002    -2.5146266387805033E-020
  -5.7299999999999990E-002    -7.8090704664343160E-021
  -5.6199999999999986E-002     5.1795723512597788E-020
  -5.5099999999999996E-002     1.2069539659307838E-019
  -5.3999999999999992E-002     1.0005711752525816E-019
  -5.2899999999999989E-002    -1.1054675643175650E-019
  -5.1799999999999985E-002    -4.5547309732827614E-019
  -5.0699999999999995E-002    -5.9450246106010367E-019
  -4.9599999999999991E-002    -4.1082829851241099E-020
  -4.8499999999999988E-002     1.3013188853071980E-018
  -4.7399999999999998E-002     2.5085039965204021E-018
  -4.6299999999999994E-002     1.7165793726380330E-018
  -4.5199999999999990E-002    -2.3695397215630248E-018
  -4.4099999999999986E-002    -8.0388331875465542E-018
  -4.2999999999999997E-002    -9.5450579454729380E-018
  -4.1899999999999993E-002    -3.8539316676065309E-019
  -4.0799999999999989E-002     1.9001956635621199E-017
  -3.9699999999999985E-002     3.4733899564975320E-017
  -3.8599999999999995E-002     2.3710324930554687E-017
  -3.7499999999999992E-002    -2.6563328765892958E-017
  -3.6399999999999988E-002    -9.2834460294491595E-017
  -3.5299999999999984E-002    -1.1169802299618777E-016
  -3.4199999999999994E-002    -1.9333245779671137E-017
  -3.3099999999999991E-002     1.7449708541029100E-016
  -3.1999999999999987E-002     3.3673331596951680E-016
  -3.0899999999999997E-002     2.6240220438101169E-016
  -2.9799999999999993E-002    -1.5306405488054380E-016
  -2.8699999999999989E-002    -7.2309016303304520E-016
  -2.7599999999999986E-002    -9.5855531679305125E-016
  -2.6499999999999996E-002    -3.7504525144853925E-016
  -2.5399999999999992E-002     9.9384270937566540E-016
  -2.4299999999999988E-002     2.2861548418918022E-015
  -2.3199999999999985E-002     2.1606378998776342E-015
  -2.2099999999999995E-002    -1.4580972061312315E-016
  -2.0999999999999991E-002    -3.7077736477072413E-015
  -1.9899999999999987E-002    -5.8398983009979276E-015
  -1.8799999999999983E-002    -3.7207154641083397E-015
  -1.7699999999999994E-002     2.9698055097743519E-015
  -1.6599999999999990E-002     1.0441183711357681E-014
  -1.5499999999999986E-002     1.2284071600632968E-014
  -1.4399999999999996E-002     4.1481117721503882E-015
  -1.3299999999999992E-002    -1.1318991059651624E-014
  -1.2199999999999989E-002    -2.3768786350480790E-014
  -1.1099999999999985E-002    -2.1164669951508064E-014
  -9.9999999999999950E-003     2.2169343035905560E-016
  -8.8999999999999913E-003     2.9331619327398889E-014
  -7.7999999999999875E-003     4.4527614017839112E-014
  -6.6999999999999837E-003     2.8596096573584723E-014
  -5.5999999999999939E-003    -1.5045729351531416E-014
  -4.4999999999999901E-003    -5.8847735983236921E-014
  -3.3999999999999864E-003    -6.7400654556269007E-014
  -2.2999999999999826E-003    -2.5174501900953293E-014
  -1.1999999999999927E-003     4.5216414434282731E-014
  -9.9999999999988987E-005     9.2762040724506806E-014
   1.0000000000000148E-003     7.4704911039776695E-014
   2.1000000000000185E-003    -5.1183410029016167E-015
   3.2000000000000084E-003    -8.9521719572917269E-014
   4.3000000000000121E-003    -1.0654437130729749E-013
   5.4000000000000159E-003    -3.0181898104907068E-014
   6.5000000000000058E-003     8.5598479801669847E-014
   7.6000000000000234E-003     1.3696030800366271E-013
   8.7000000000000133E-003     5.3879067819697507E-014
   9.8000000000000032E-003    -1.2407632701220278E-013
   1.0900000000000021E-002    -2.5072489657357311E-013
   1.2000000000000011E-002    -1.7482797978404796E-013
   1.3100000000000001E-002     1.2186485273592979E-013
   1.4200000000000018E-002     4.6121131002871407E-013
   1.5300000000000008E-002     5.5679891036372609E-013
   1.6400000000000026E-002     2.2203064582206056E-013
   1.7500000000000016E-002    -4.4202637969163738E-013
   1.8600000000000005E-002    -1.0376717931095958E-012
   1.9700000000000023E-002    -1.0926706588143542E-012
   2.0800000000000013E-002    -3.9484496401620550E-013
   2.1900000000000003E-002     7.9042057187644899E-013
   2.3000000000000020E-002     1.8025586448824904E-012
   2.4100000000000010E-002     1.9576332742354818E-012
   2.5200000000000000E-002     9.8776011241835660E-013
   2.6300000000000018E-002    -7.4388796988608674E-013
   2.7400000000000008E-002    -2.4067082961959363E-012
   2.8500000000000025E-002    -3.1434893750514892E-012
   2.9600000000000015E-002    -2.5039367280987879E-012
   3.0700000000000005E-002    -6.1925199126497410E-013
   3.1800000000000023E-002     1.9146813041298616E-012
   3.2900000000000013E-002     4.2656195416157505E-012
   3.4000000000000002E-002     5.5177524875549278E-012
   3.5100000000000020E-002     4.7728440123739890E-012
   3.6200000000000010E-002     1.4300885779403028E-012
   3.7300000000000028E-002    -4.2074174005923837E-012
   3.8400000000000017E-002    -1.0279815193525721E-011
   3.9500000000000007E-002    -1.3398628560812309E-011
   4.0600000000000025E-002    -1.0019634427704815E-011
   4.1700000000000015E-002     1.0218351772367518E-012
   4.2800000000000005E-002     1.6235502525718815E-011
   4.3900000000000022E-002     2.7536325650223681E-011
   4.5000000000000012E-002     2.5866534608676162E-011
   4.6100000000000002E-002     7.2710800054498481E-012
   4.7200000000000020E-002    -2.2172697705657995E-011
   4.8300000000000010E-002    -4.6802308556470607E-011
   4.9400000000000027E-002    -4.8942180169708749E-011
   5.0500000000000017E-002    -2.0570038727907303E-011
   5.1600000000000007E-002     2.8083242328835745E-011
   5.2700000000000025E-002     7.0231660764807913E-011
   5.3800000000000014E-002     7.6430292650364606E-011
   5.4900000000000004E-002     3.4226094181022404E-011
   5.6000000000000022E-002    -3.8880183794720580E-011
   5.7100000000000012E-002    -1.0017130180894895E-010
   5.8200000000000002E-002    -1.0535456534954690E-010
   5.9300000000000019E-002    -3.9100278570458613E-011
   6.0400000000000009E-002     6.7449289209431385E-011
   6.1500000000000027E-002     1.4776065093702329E-010
   6.2600000000000017E-002     1.3863722669871237E-010
   6.3700000000000007E-002     2.5861741567712038E-011
   6.4800000000000024E-002    -1.3383041896908310E-010
   6.5900000000000014E-002    -2.3568794138562055E-010
   6.7000000000000004E-002    -1.8959692149600471E-010
   6.8100000000000022E-002     1.1786156252358015E-011
   6.9200000000000012E-002     2.6577487433065983E-010
   7.0300000000000029E-002     4.0257547295752261E-010
   7.1400000000000019E-002     2.8650215533332357E-010
   7.2500000000000009E-002    -7.9235722150183818E-011
   7.3600000000000027E-002    -5.1480436580320088E-010
   7.4700000000000016E-002    -7.3595840532902912E-010
   7.5800000000000006E-002    -5.1634074793582840E-010
   7.6900000000000024E-002     1.4419507254892494E-010
   7.8000000000000014E-002     9.5348917650284193E-010
   7.9100000000000004E-002     1.4314320839758921E-009
   8.0200000000000021E-002     1.1607649286204946E-009
   8.1300000000000011E-002     6.3277438844266953E-011
   8.2400000000000029E-002    -1.4619512267444179E-009
   8.3500000000000019E-002    -2.6524757945622923E-009
   8.4600000000000009E-002    -2.7349593700876085E-009
   8.5700000000000026E-002    -1.3590646386063554E-009
   8.6800000000000016E-002     1.1204113192775367E-009
   8.7900000000000006E-002     3.6985376983267315E-009
   8.9000000000000024E-002     5.1348107987791991E-009
   9.0100000000000013E-002     4.5501264978042855E-009
   9.1200000000000003E-002     1.9045669485961980E-009
   9.2300000000000021E-002    -1.9121810801436823E-009
   9.3400000000000011E-002    -5.4549786909774411E-009
   9.4500000000000028E-002    -7.3851347259790145E-009
   9.5600000000000018E-002    -7.0704881949268383E-009
   9.6700000000000008E-002    -4.7945980519159548E-009
   9.7800000000000026E-002    -1.4657971503240219E-009
   9.8900000000000016E-002     1.9813830576254077E-009
  0.10000000000000001          5.0991273425893269E-009
  0.10110000000000002          8.0003186297972206E-009
  0.10220000000000001          1.0921387350038003E-008
  0.10330000000000003          1.3565231604673045E-008
  0.10440000000000002          1.4725461738862577E-008
  0.10550000000000001          1.2582625608104081E-008
  0.10660000000000003          5.6555427008220249E-009
  0.10770000000000002         -6.0850506855558706E-009
  0.10880000000000001         -2.0664803201952964E-008
  0.10990000000000003         -3.4626502554147010E-008
  0.11100000000000002         -4.4538627008705589E-008
  0.11210000000000001         -4.8759353887817269E-008
  0.11320000000000002         -4.8441375355423588E-008
  0.11430000000000001         -4.7089780963460726E-008
  0.11540000000000003         -4.8802661467561848E-008
  0.11650000000000002         -5.6172151374767054E-008
  0.11760000000000001         -6.9153870185800770E-008
  0.11870000000000003         -8.5734548349591932E-008
  0.11980000000000002         -1.0413803153141998E-007
  0.12090000000000001         -1.2523834413968871E-007
  0.12200000000000003         -1.5350548210335546E-007
  0.12310000000000001         -1.9553172592168266E-007
  0.12420000000000003         -2.5666278702374257E-007
  0.12530000000000002         -3.3763802775865770E-007
  0.12640000000000001         -4.3351133172109257E-007
  0.12750000000000003         -5.3608675898431102E-007
  0.12860000000000002         -6.3910914605003200E-007
  0.12970000000000001         -7.4361418000989943E-007
  0.13080000000000003         -8.6033844581834273E-007
  0.13190000000000002         -1.0073976000057883E-006
  0.13300000000000001         -1.2039793091389583E-006
  0.13410000000000000         -1.4631770000050892E-006
  0.13520000000000004         -1.7878684275274281E-006
  0.13630000000000003         -2.1721200482716085E-006
  0.13740000000000002         -2.6076320409629261E-006
  0.13850000000000001         -3.0918824904802023E-006
  0.13960000000000000         -3.6335336517367978E-006
  0.14070000000000005         -4.2520809984125663E-006
  0.14180000000000004         -4.9719492380972952E-006
  0.14290000000000003         -5.8144323702435941E-006
  0.14400000000000002         -6.7921405388915446E-006
  0.14510000000000001         -7.9091760198934935E-006
  0.14620000000000000         -9.1669026005547494E-006
  0.14730000000000004         -1.0571794518909883E-005
  0.14840000000000003         -1.2140520993852988E-005
  0.14950000000000002         -1.3898973520554136E-005
  0.15060000000000001         -1.5875522876740433E-005
  0.15170000000000000         -1.8092308891937137E-005
  0.15280000000000005         -2.0559587937896140E-005
  0.15390000000000004         -2.3276403226191178E-005
  0.15500000000000003         -2.6237110432703048E-005
  0.15610000000000002         -2.9439635909511708E-005
  0.15720000000000001         -3.2890246075112373E-005
  0.15830000000000000         -3.6601624742615968E-005
  0.15940000000000004         -4.0585044189356267E-005
  0.16050000000000003         -4.4841090129921213E-005
  0.16160000000000002         -4.9354068323737010E-005
  0.16270000000000001         -5.4093139624455944E-005
  0.16380000000000000         -5.9019188483944163E-005
  0.16490000000000005         -6.4092411776073277E-005
  0.16600000000000004         -6.9275025452952832E-005
  0.16710000000000003         -7.4527008109726012E-005
  0.16820000000000002         -7.9796722275204957E-005
  0.16930000000000001         -8.5012041381560266E-005
  0.17040000000000000         -9.0077875938732177E-005
  0.17150000000000004         -9.4882285338826478E-005
  0.17260000000000003         -9.9308686912991107E-005
  0.17370000000000002         -1.0324671893613413E-004
  0.17480000000000001         -1.0659534018486738E-004
  0.17590000000000000         -1.0925598326139152E-004
  0.17700000000000005         -1.1111922503914684E-004
  0.17810000000000004         -1.1205285409232602E-004
  0.17920000000000003         -1.1189930228283629E-004
  0.18030000000000002         -1.1048587475670502E-004
  0.18140000000000001         -1.0764379840111360E-004
  0.18250000000000000         -1.0322765592718497E-004
  0.18360000000000004         -9.7126685432158411E-005
  0.18470000000000003         -8.9262313849758357E-005
  0.18580000000000002         -7.9574710980523378E-005
  0.18690000000000001         -6.8008972448296845E-005
  0.18800000000000000         -5.4509739129571244E-005
  0.18910000000000005         -3.9027559978421777E-005
  0.19020000000000004         -2.1535317500820383E-005
  0.19130000000000003         -2.0467396097956225E-006
  0.19240000000000002          1.9371405869605951E-005
  0.19350000000000001          4.2598028812790290E-005
  0.19460000000000005          6.7466120526660234E-005
  0.19570000000000004          9.3773654953110963E-005
  0.19680000000000003          1.2129041715525091E-004
  0.19790000000000002          1.4975803787820041E-004
  0.19900000000000001          1.7888424918055534E-004
  0.20010000000000000          2.0833648159168661E-004
  0.20120000000000005          2.3774077999405563E-004
  0.20230000000000004          2.6668896316550672E-004
  0.20340000000000003          2.9475192422978580E-004
  0.20450000000000002          3.2149272738024592E-004
  0.20560000000000000          3.4647478605620563E-004
  0.20670000000000005          3.6926401662640274E-004
  0.20780000000000004          3.8942811079323292E-004
  0.20890000000000003          4.0653836913406849E-004
