 -0.12000000000000000          0.0000000000000000
 -0.11889999999999999          0.0000000000000000
 -0.11780000000000000          0.0000000000000000
 -0.11670000000000000         -2.1172672859393060E-007
 -0.11559999999999999         -7.4842597541646683E-007
 -0.11449999999999999         -1.5875773442530772E-006
 -0.11340000000000000         -3.5553109682950890E-006
 -0.11230000000000000         -7.2366042331850622E-006
 -0.11119999999999999         -7.4588342613424174E-006
 -0.11009999999999999          7.7126487667555921E-006
 -0.10900000000000000          3.9071965147741139E-005
 -0.10790000000000000          4.9147227400681004E-005
 -0.10679999999999999         -2.6876785341301002E-005
 -0.10569999999999999         -1.9750067440327257E-004
 -0.10460000000000000         -3.1888706143945456E-004
 -0.10349999999999999         -1.3722250878345221E-004
 -0.10239999999999999          4.5090570347383618E-004
 -0.10130000000000000          1.0987711139023304E-003
 -0.10020000000000000          1.0551821906119585E-003
  -9.9099999999999994E-002    -2.3473073088098317E-004
  -9.7999999999999990E-002    -2.3326601367443800E-003
  -9.6899999999999986E-002    -3.6364824045449495E-003
  -9.5799999999999996E-002    -2.3859508801251650E-003
  -9.4699999999999993E-002     1.6491536516696215E-003
  -9.3599999999999989E-002     6.2497998587787151E-003
  -9.2499999999999999E-002     7.8204199671745300E-003
  -9.1399999999999995E-002     4.0903338231146336E-003
  -9.0299999999999991E-002    -3.6181265022605658E-003
  -8.9200000000000002E-002    -1.0713567025959492E-002
  -8.8099999999999984E-002    -1.2434067204594612E-002
  -8.6999999999999994E-002    -7.4021369218826294E-003
  -8.5899999999999990E-002     1.3475709129124880E-003
  -8.4799999999999986E-002     8.7977433577179909E-003
  -8.3699999999999997E-002     1.1704144068062305E-002
  -8.2599999999999993E-002     1.0370078496634960E-002
  -8.1499999999999989E-002     7.0931557565927505E-003
  -8.0399999999999999E-002     3.2170843333005905E-003
  -7.9299999999999995E-002    -1.9564295653253794E-003
  -7.8199999999999992E-002    -9.2151155695319176E-003
  -7.7100000000000002E-002    -1.6691800206899643E-002
  -7.5999999999999984E-002    -1.9737603142857552E-002
  -7.4899999999999994E-002    -1.4261524192988873E-002
  -7.3799999999999991E-002    -5.7897664373740554E-004
  -7.2699999999999987E-002     1.6160314902663231E-002
  -7.1599999999999997E-002     2.9636438935995102E-002
  -7.0499999999999993E-002     3.6399666219949722E-002
  -6.9399999999999989E-002     3.5772990435361862E-002
  -6.8300000000000000E-002     2.5276347994804382E-002
  -6.7199999999999996E-002    -3.4863566979765892E-003
  -6.6099999999999992E-002    -6.2748953700065613E-002
  -6.5000000000000002E-002   -0.15988029539585114
  -6.3899999999999985E-002   -0.28843748569488525
  -6.2799999999999995E-002   -0.42703279852867126
  -6.1699999999999991E-002   -0.54844170808792114
  -6.0599999999999994E-002   -0.63324904441833496
  -5.9499999999999990E-002   -0.67907911539077759
  -5.8399999999999994E-002   -0.70083725452423096
  -5.7299999999999990E-002   -0.72482472658157349
  -5.6199999999999986E-002   -0.78281122446060181
  -5.5099999999999996E-002   -0.90863829851150513
  -5.3999999999999992E-002    -1.1345208883285522
  -5.2899999999999989E-002    -1.4837372303009033
  -5.1799999999999985E-002    -1.9620732069015503
  -5.0699999999999995E-002    -2.5558578968048096
  -4.9599999999999991E-002    -3.2422671318054199
  -4.8499999999999988E-002    -4.0078368186950684
  -4.7399999999999998E-002    -4.8626089096069336
  -4.6299999999999994E-002    -5.8393869400024414
  -4.5199999999999990E-002    -6.9799652099609375
  -4.4099999999999986E-002    -8.3219299316406250
  -4.2999999999999997E-002    -9.8988924026489258
  -4.1899999999999993E-002    -11.753340721130371
  -4.0799999999999989E-002    -13.947483062744141
  -3.9699999999999985E-002    -16.557727813720703
  -3.8599999999999995E-002    -19.654455184936523
  -3.7499999999999992E-002    -23.285356521606445
  -3.6399999999999988E-002    -27.481279373168945
  -3.5299999999999984E-002    -32.284271240234375
  -3.4199999999999994E-002    -37.775852203369141
  -3.3099999999999991E-002    -44.079620361328125
  -3.1999999999999987E-002    -51.332538604736328
  -3.0899999999999997E-002    -59.647052764892578
  -2.9799999999999993E-002    -69.095123291015625
  -2.8699999999999989E-002    -79.726982116699219
  -2.7599999999999986E-002    -91.606986999511719
  -2.6499999999999996E-002    -104.83491516113281
  -2.5399999999999992E-002    -119.53550720214844
  -2.4299999999999988E-002    -135.83007812500000
  -2.3199999999999985E-002    -153.81925964355469
  -2.2099999999999995E-002    -173.59182739257812
  -2.0999999999999991E-002    -195.24484252929688
  -1.9899999999999987E-002    -218.88381958007812
  -1.8799999999999983E-002    -244.59069824218750
  -1.7699999999999994E-002    -272.38027954101562
  -1.6599999999999990E-002    -302.18432617187500
  -1.5499999999999986E-002    -333.88186645507812
  -1.4399999999999996E-002    -367.35025024414062
  -1.3299999999999992E-002    -402.48983764648438
  -1.2199999999999989E-002    -439.19436645507812
  -1.1099999999999985E-002    -477.28668212890625
  -9.9999999999999950E-003    -516.47357177734375
  -8.8999999999999913E-003    -556.35974121093750
  -7.7999999999999875E-003    -596.49822998046875
  -6.6999999999999837E-003    -636.42883300781250
  -5.5999999999999939E-003    -675.65863037109375
  -4.4999999999999901E-003    -713.60162353515625
  -3.3999999999999864E-003    -749.53863525390625
  -2.2999999999999826E-003    -782.63867187500000
  -1.1999999999999927E-003    -812.03558349609375
  -9.9999999999988987E-005    -836.89270019531250
   1.0000000000000148E-003    -856.39666748046875
   2.1000000000000185E-003    -869.69415283203125
   3.2000000000000084E-003    -875.83581542968750
   4.3000000000000121E-003    -873.79772949218750
   5.4000000000000159E-003    -862.56457519531250
   6.5000000000000058E-003    -841.22149658203125
   7.6000000000000234E-003    -808.96618652343750
   8.7000000000000133E-003    -765.05584716796875
   9.8000000000000032E-003    -708.75402832031250
   1.0900000000000021E-002    -639.35766601562500
   1.2000000000000011E-002    -556.30706787109375
   1.3100000000000001E-002    -459.29983520507812
   1.4200000000000018E-002    -348.32141113281250
   1.5300000000000008E-002    -223.58538818359375
   1.6400000000000026E-002    -85.454750061035156
   1.7500000000000016E-002     65.557723999023438
   1.8600000000000005E-002     228.70698547363281
   1.9700000000000023E-002     402.91796875000000
   2.0800000000000013E-002     586.77093505859375
   2.1900000000000003E-002     778.58441162109375
   2.3000000000000020E-002     976.51550292968750
   2.4100000000000010E-002     1178.5858154296875
   2.5200000000000000E-002     1382.6082763671875
   2.6300000000000018E-002     1586.1002197265625
   2.7400000000000008E-002     1786.2998046875000
   2.8500000000000025E-002     1980.2794189453125
   2.9600000000000015E-002     2165.1091308593750
   3.0700000000000005E-002     2337.9291992187500
   3.1800000000000023E-002     2495.9233398437500
   3.2900000000000013E-002     2636.2675781250000
   3.4000000000000002E-002     2756.1613769531250
   3.5100000000000020E-002     2852.9672851562500
   3.6200000000000010E-002     2924.3696289062500
   3.7300000000000028E-002     2968.4470214843750
   3.8400000000000017E-002     2983.6254882812500
   3.9500000000000007E-002     2968.6030273437500
   4.0600000000000025E-002     2922.3649902343750
   4.1700000000000015E-002     2844.3115234375000
   4.2800000000000005E-002     2734.4069824218750
   4.3900000000000022E-002     2593.2292480468750
   4.5000000000000012E-002     2421.8881835937500
   4.6100000000000002E-002     2221.8986816406250
   4.7200000000000020E-002     1995.1357421875000
   4.8300000000000010E-002     1743.9093017578125
   4.9400000000000027E-002     1471.0532226562500
   5.0500000000000017E-002     1179.9178466796875
   5.1600000000000007E-002     874.21789550781250
   5.2700000000000025E-002     557.83679199218750
   5.3800000000000014E-002     234.71942138671875
   5.4900000000000004E-002    -91.114746093750000
   5.6000000000000022E-002    -415.49786376953125
   5.7100000000000012E-002    -734.14599609375000
   5.8200000000000002E-002    -1042.8132324218750
   5.9300000000000019E-002    -1337.4895019531250
   6.0400000000000009E-002    -1614.5358886718750
   6.1500000000000027E-002    -1870.6650390625000
   6.2600000000000017E-002    -2102.8706054687500
   6.3700000000000007E-002    -2308.4174804687500
   6.4800000000000024E-002    -2484.9614257812500
   6.5900000000000014E-002    -2630.7048339843750
   6.7000000000000004E-002    -2744.4946289062500
   6.8100000000000022E-002    -2825.7822265625000
   6.9200000000000012E-002    -2874.4958496093750
   7.0300000000000029E-002    -2890.9653320312500
   7.1400000000000019E-002    -2875.9313964843750
   7.2500000000000009E-002    -2830.6311035156250
   7.3600000000000027E-002    -2756.8137207031250
   7.4700000000000016E-002    -2656.6779785156250
   7.5800000000000006E-002    -2532.7338867187500
   7.6900000000000024E-002    -2387.6748046875000
   7.8000000000000014E-002    -2224.3286132812500
   7.9100000000000004E-002    -2045.6785888671875
   8.0200000000000021E-002    -1854.8526611328125
   8.1300000000000011E-002    -1655.0729980468750
   8.2400000000000029E-002    -1449.5455322265625
   8.3500000000000019E-002    -1241.3459472656250
   8.4600000000000009E-002    -1033.3688964843750
   8.5700000000000026E-002    -828.30572509765625
   8.6800000000000016E-002    -628.64324951171875
   8.7900000000000006E-002    -436.64297485351562
   8.9000000000000024E-002    -254.30734252929688
   9.0100000000000013E-002    -83.340751647949219
   9.1200000000000003E-002     74.874061584472656
   9.2300000000000021E-002     219.28448486328125
   9.3400000000000011E-002     349.15731811523438
   9.4500000000000028E-002     464.05126953125000
   9.5600000000000018E-002     563.77984619140625
   9.6700000000000008E-002     648.37670898437500
   9.7800000000000026E-002     718.08221435546875
   9.8900000000000016E-002     773.34863281250000
  0.10000000000000001          814.84362792968750
  0.10110000000000002          843.42095947265625
  0.10220000000000001          860.05883789062500
  0.10330000000000003          865.79510498046875
  0.10440000000000002          861.69226074218750
  0.10550000000000001          848.84106445312500
  0.10660000000000003          828.37768554687500
  0.10770000000000002          801.46368408203125
  0.10880000000000001          769.23895263671875
  0.10990000000000003          732.75476074218750
  0.11100000000000002          692.95001220703125
  0.11210000000000001          650.68017578125000
  0.11320000000000002          606.73944091796875
  0.11430000000000001          561.88861083984375
  0.11540000000000003          516.81726074218750
  0.11650000000000002          472.12322998046875
  0.11760000000000001          428.29122924804688
  0.11870000000000003          385.72219848632812
  0.11980000000000002          344.75177001953125
  0.12090000000000001          305.65585327148438
  0.12200000000000003          268.63885498046875
  0.12310000000000001          233.82582092285156
  0.12420000000000003          201.28570556640625
  0.12530000000000002          171.05683898925781
  0.12640000000000001          143.15995788574219
  0.12750000000000003          117.58108520507812
  0.12860000000000002          94.248382568359375
  0.12970000000000001          73.048820495605469
  0.13080000000000003          53.868835449218750
  0.13190000000000002          36.638198852539062
  0.13300000000000001          21.325962066650391
  0.13410000000000000          7.8786597251892090
  0.13520000000000004         -3.8315274715423584
  0.13630000000000003         -13.994909286499023
  0.13740000000000002         -22.794832229614258
  0.13850000000000001         -30.336040496826172
  0.13960000000000000         -36.644630432128906
  0.14070000000000005         -41.744628906250000
  0.14180000000000004         -45.736877441406250
  0.14290000000000003         -48.804836273193359
  0.14400000000000002         -51.135242462158203
  0.14510000000000001         -52.824218750000000
  0.14620000000000000         -53.859764099121094
  0.14730000000000004         -54.198059082031250
  0.14840000000000003         -53.866226196289062
  0.14950000000000002         -52.996917724609375
  0.15060000000000001         -51.765186309814453
  0.15170000000000000         -50.286846160888672
  0.15280000000000005         -48.571647644042969
  0.15390000000000004         -46.569046020507812
  0.15500000000000003         -44.262561798095703
  0.15610000000000002         -41.725383758544922
  0.15720000000000001         -39.092483520507812
  0.15830000000000000         -36.477752685546875
  0.15940000000000004         -33.914268493652344
  0.16050000000000003         -31.360116958618164
  0.16160000000000002         -28.761302947998047
  0.16270000000000001         -26.113084793090820
  0.16380000000000000         -23.474367141723633
  0.16490000000000005         -20.933506011962891
  0.16600000000000004         -18.557050704956055
  0.16710000000000003         -16.360469818115234
  0.16820000000000002         -14.315217018127441
  0.16930000000000001         -12.384673118591309
  0.17040000000000000         -10.561794281005859
  0.17150000000000004         -8.8857154846191406
  0.17260000000000003         -7.4225788116455078
  0.17370000000000002         -6.2203230857849121
  0.17480000000000001         -5.2663779258728027
  0.17590000000000000         -4.4859156608581543
  0.17700000000000005         -3.7895820140838623
  0.17810000000000004         -3.1405425071716309
  0.17920000000000003         -2.5828983783721924
  0.18030000000000002         -2.2023363113403320
  0.18140000000000001         -2.0445156097412109
  0.18250000000000000         -2.0629866123199463
  0.18360000000000004         -2.1464016437530518
  0.18470000000000003         -2.2052907943725586
  0.18580000000000002         -2.2416648864746094
  0.18690000000000001         -2.3342728614807129
  0.18800000000000000         -2.5509366989135742
  0.18910000000000005         -2.8683581352233887
  0.19020000000000004         -3.1762065887451172
  0.19130000000000003         -3.3639361858367920
  0.19240000000000002         -3.4099600315093994
  0.19350000000000001         -3.3902151584625244
  0.19460000000000005         -3.4001681804656982
  0.19570000000000004         -3.4650237560272217
  0.19680000000000003         -3.5219216346740723
  0.19790000000000002         -3.4858698844909668
  0.19900000000000001         -3.3311226367950439
  0.20010000000000000         -3.1104223728179932
  0.20120000000000005         -2.8988885879516602
  0.20230000000000004         -2.7233242988586426
  0.20340000000000003         -2.5463840961456299
  0.20450000000000002         -2.3141214847564697
  0.20560000000000000         -2.0134902000427246
  0.20670000000000005         -1.6817647218704224
  0.20780000000000004         -1.3658740520477295
  0.20890000000000003         -1.0805139541625977
