 -0.12000000000000000          0.0000000000000000
 -0.11889999999999999          0.0000000000000000
 -0.11780000000000000          0.0000000000000000
 -0.11670000000000000          0.0000000000000000
 -0.11559999999999999          0.0000000000000000
 -0.11449999999999999          0.0000000000000000
 -0.11340000000000000          0.0000000000000000
 -0.11230000000000000          0.0000000000000000
 -0.11119999999999999          0.0000000000000000
 -0.11009999999999999         -3.4716348714423991E-044
 -0.10900000000000000         -2.9836529268005619E-031
 -0.10790000000000000         -1.9122240564186381E-030
 -0.10679999999999999         -9.5754859515269204E-030
 -0.10569999999999999         -3.5292148637245274E-029
 -0.10460000000000000          3.9558041334314869E-029
 -0.10349999999999999          9.4400419189137329E-028
 -0.10239999999999999          3.2399010415505431E-027
 -0.10130000000000000          9.0810004290506674E-028
 -0.10020000000000000         -2.3057914303035991E-026
  -9.9099999999999994E-002    -5.5390170445932260E-026
  -9.7999999999999990E-002     4.4391492682276166E-026
  -9.6899999999999986E-002     4.4282164572717460E-025
  -9.5799999999999996E-002     6.1199878330885384E-025
  -9.4699999999999993E-002    -1.2823596657525721E-024
  -9.3599999999999989E-002    -5.7369013975082273E-024
  -9.2499999999999999E-002    -4.8051596385529280E-024
  -9.1399999999999995E-002     1.7198715478913158E-023
  -9.0299999999999991E-002     5.1816587305830569E-023
  -8.9200000000000002E-002     1.8993094781555200E-023
  -8.8099999999999984E-002    -1.7913760144879076E-022
  -8.6999999999999994E-002    -3.8495377189287492E-022
  -8.5899999999999990E-002     5.0974793833703965E-023
  -8.4799999999999986E-002     1.6321537682604491E-021
  -8.3699999999999997E-002     2.7858869497360960E-021
  -8.2599999999999993E-002    -1.1211812211841457E-021
  -8.1499999999999989E-002    -1.2740224485432571E-020
  -8.0399999999999999E-002    -2.0667484036444652E-020
  -7.9299999999999995E-002     4.9709891470539873E-021
  -7.8199999999999992E-002     8.1457825742687001E-020
  -7.7100000000000002E-002     1.4481761176698392E-019
  -7.5999999999999984E-002     2.2757090897810676E-020
  -7.4899999999999994E-002    -4.0981828513508561E-019
  -7.3799999999999991E-002    -8.7660031145498055E-019
  -7.2699999999999987E-002    -5.0885535325600274E-019
  -7.1599999999999997E-002     1.5214260628382859E-018
  -7.0499999999999993E-002     4.3701477909410711E-018
  -6.9399999999999989E-002     4.2970825138446800E-018
  -6.8300000000000000E-002    -3.3216721694956879E-018
  -6.7199999999999996E-002    -1.7406978706691084E-017
  -6.6099999999999992E-002    -2.4578469181406614E-017
  -6.5000000000000002E-002    -3.4145269155743011E-018
  -6.3899999999999985E-002     5.2700305483017836E-017
  -6.2799999999999995E-002     1.0587360607519632E-016
  -6.1699999999999991E-002     7.4022500428150989E-017
  -6.0599999999999994E-002    -1.0299113972077298E-016
  -5.9499999999999990E-002    -3.5121440299403074E-016
  -5.8399999999999994E-002    -4.1286169912326286E-016
  -5.7299999999999990E-002     3.3591200833134213E-018
  -5.6199999999999986E-002     8.6704807110011407E-016
  -5.5099999999999996E-002     1.5345820842767283E-015
  -5.3999999999999992E-002     9.6826813772036040E-016
  -5.2899999999999989E-002    -1.3306124212919474E-015
  -5.1799999999999985E-002    -4.2020580300117618E-015
  -5.0699999999999995E-002    -4.7517701308025290E-015
  -4.9599999999999991E-002    -3.1221327386426852E-016
  -4.8499999999999988E-002     8.2283889107197360E-015
  -4.7399999999999998E-002     1.4578356900028262E-014
  -4.6299999999999994E-002     9.9880939294121261E-015
  -4.5199999999999990E-002    -8.7944517120059215E-015
  -4.4099999999999986E-002    -3.1937190928975693E-014
  -4.2999999999999997E-002    -3.8045897676886694E-014
  -4.1899999999999993E-002    -9.2933227777262982E-015
  -4.0799999999999989E-002     4.7398171406632111E-014
  -3.9699999999999985E-002     9.2053968614451599E-014
  -3.8599999999999995E-002     7.2893012697919789E-014
  -3.7499999999999992E-002    -2.7782109769725135E-014
  -3.6399999999999988E-002    -1.5668468313165969E-013
  -3.5299999999999984E-002    -2.0445526782016111E-013
  -3.4199999999999994E-002    -8.4584601692618224E-014
  -3.3099999999999991E-002     1.7058453445367160E-013
  -3.1999999999999987E-002     3.8433245843663321E-013
  -3.0899999999999997E-002     3.3927865399945423E-013
  -2.9799999999999993E-002    -3.2563592122227326E-014
  -2.8699999999999989E-002    -5.2113516410198184E-013
  -2.7599999999999986E-002    -7.2261538116086863E-013
  -2.6499999999999996E-002    -3.4353268385355000E-013
  -2.5399999999999992E-002     4.7976949019489829E-013
  -2.4299999999999988E-002     1.1470058843693583E-012
  -2.3199999999999985E-002     9.8684092581659689E-013
  -2.2099999999999995E-002    -1.3843211245274438E-013
  -2.0999999999999991E-002    -1.5135166340704602E-012
  -1.9899999999999987E-002    -1.9401346848525297E-012
  -1.8799999999999983E-002    -6.8909678310759019E-013
  -1.7699999999999994E-002     1.6586666935769094E-012
  -1.6599999999999990E-002     3.3039504292177197E-012
  -1.5499999999999986E-002     2.4764643460908319E-012
  -1.4399999999999996E-002    -9.3780246155484044E-013
  -1.3299999999999992E-002    -4.7549585796558605E-012
  -1.2199999999999989E-002    -5.7193225849741905E-012
  -1.1099999999999985E-002    -2.0519042194526233E-012
  -9.9999999999999950E-003     4.5618916630350415E-012
  -8.8999999999999913E-003     9.4453889154524505E-012
  -7.7999999999999875E-003     8.1005853067034636E-012
  -6.6999999999999837E-003     2.1633153710821359E-014
  -5.5999999999999939E-003    -9.9488342911178713E-012
  -4.4999999999999901E-003    -1.4422713891238264E-011
  -3.3999999999999864E-003    -8.9592396002044068E-012
  -2.2999999999999826E-003     3.8043079970955367E-012
  -1.1999999999999927E-003     1.5088520710637619E-011
  -9.9999999999988987E-005     1.6119433912665177E-011
   1.0000000000000148E-003     5.2778510728497323E-012
   2.1000000000000185E-003    -9.5603533770135532E-012
   3.2000000000000084E-003    -1.6289277218750810E-011
   4.3000000000000121E-003    -8.3178967186240677E-012
   5.4000000000000159E-003     8.6975773805343063E-012
   6.5000000000000058E-003     1.9487127189688733E-011
   7.6000000000000234E-003     1.0817714779510716E-011
   8.7000000000000133E-003    -1.5898437080718908E-011
   9.8000000000000032E-003    -4.1615176582522729E-011
   1.0900000000000021E-002    -4.1117352578282353E-011
   1.2000000000000011E-002    -2.8721775392095652E-012
   1.3100000000000001E-002     5.7020478616553234E-011
   1.4200000000000018E-002     9.9480056137138463E-011
   1.5300000000000008E-002     8.6384885356066938E-011
   1.6400000000000026E-002     9.5451077597512173E-012
   1.7500000000000016E-002    -9.6261637549940930E-011
   1.8600000000000005E-002    -1.6896600785188086E-010
   1.9700000000000023E-002    -1.5701825950565468E-010
   2.0800000000000013E-002    -5.5295903272919460E-011
   2.1900000000000003E-002     8.6822764255861940E-011
   2.3000000000000020E-002     1.9374551962769614E-010
   2.4100000000000010E-002     2.1089656410122868E-010
   2.5200000000000000E-002     1.3799020259775269E-010
   2.6300000000000018E-002     2.3802706333735297E-011
   2.7400000000000008E-002    -7.3749673035189713E-011
   2.8500000000000025E-002    -1.3058737424741880E-010
   2.9600000000000015E-002    -1.6643462996678527E-010
   3.0700000000000005E-002    -2.1134845262781823E-010
   3.1800000000000023E-002    -2.5643262513419829E-010
   3.2900000000000013E-002    -2.3591209541430808E-010
   3.4000000000000002E-002    -6.8652125651017504E-011
   3.5100000000000020E-002     2.6101515393503750E-010
   3.6200000000000010E-002     6.4458660631315762E-010
   3.7300000000000028E-002     8.7203999576957958E-010
   3.8400000000000017E-002     7.4289602247648760E-010
   3.9500000000000007E-002     2.0427452784858269E-010
   4.0600000000000025E-002    -5.7812099552021125E-010
   4.1700000000000015E-002    -1.2762796375298471E-009
   4.2800000000000005E-002    -1.5611864023768019E-009
   4.3900000000000022E-002    -1.2735184018453263E-009
   4.5000000000000012E-002    -4.9903808863051258E-010
   4.6100000000000002E-002     4.9129839085892379E-010
   4.7200000000000020E-002     1.3847469837457950E-009
   4.8300000000000010E-002     1.9520733918198973E-009
   4.9400000000000027E-002     2.0826023128250679E-009
   5.0500000000000017E-002     1.7403695151685172E-009
   5.1600000000000007E-002     9.2013435759595939E-010
   5.2700000000000025E-002    -3.2575703245995653E-010
   5.3800000000000014E-002    -1.7992232148600260E-009
   5.4900000000000004E-002    -3.1027038716047235E-009
   5.6000000000000022E-002    -3.7257170681926122E-009
   5.7100000000000012E-002    -3.2843594510723456E-009
   5.8200000000000002E-002    -1.7881937042218967E-009
   5.9300000000000019E-002     2.6415838960690414E-010
   6.0400000000000009E-002     2.0880654982848886E-009
   6.1500000000000027E-002     3.0481237534022236E-009
   6.2600000000000017E-002     3.0680802343144417E-009
   6.3700000000000007E-002     2.7186304318861383E-009
   6.4800000000000024E-002     2.8599003165650413E-009
   6.5900000000000014E-002     4.0121608257942301E-009
   6.7000000000000004E-002     5.8495777111024898E-009
   6.8100000000000022E-002     7.1826509184791744E-009
   6.9200000000000012E-002     6.5001013460620292E-009
   7.0300000000000029E-002     2.7604556418474275E-009
   7.1400000000000019E-002    -4.0747147878051783E-009
   7.2500000000000009E-002    -1.3125013964553681E-008
   7.3600000000000027E-002    -2.3232070489596397E-008
   7.4700000000000016E-002    -3.3694160350702499E-008
   7.5800000000000006E-002    -4.4553001288245430E-008
   7.6900000000000024E-002    -5.6224049416181116E-008
   7.8000000000000014E-002    -6.8785588780422083E-008
   7.9100000000000004E-002    -8.1565005416443174E-008
   8.0200000000000021E-002    -9.3506841380977828E-008
   8.1300000000000011E-002    -1.0424204788249941E-007
   8.2400000000000029E-002    -1.1519400544556426E-007
   8.3500000000000019E-002    -1.2989953290797359E-007
   8.4600000000000009E-002    -1.5316038570743826E-007
   8.5700000000000026E-002    -1.8940851020941550E-007
   8.6800000000000016E-002    -2.4123812636387475E-007
   8.7900000000000006E-002    -3.0901401260050055E-007
   8.9000000000000024E-002    -3.9180721955741479E-007
   9.0100000000000013E-002    -4.8907162408791227E-007
   9.1200000000000003E-002    -6.0202881968502090E-007
   9.2300000000000021E-002    -7.3397825417480683E-007
   9.3400000000000011E-002    -8.8951122734207593E-007
   9.4500000000000028E-002    -1.0733526778493760E-006
   9.5600000000000018E-002    -1.2897714896097343E-006
   9.6700000000000008E-002    -1.5430468920384108E-006
   9.7800000000000026E-002    -1.8386884903519075E-006
   9.8900000000000016E-002    -2.1845407900398529E-006
  0.10000000000000001         -2.5909432679325142E-006
  0.10110000000000002         -3.0697476631755313E-006
  0.10220000000000001         -3.6327862744652936E-006
  0.10330000000000003         -4.2907527131315709E-006
  0.10440000000000002         -5.0532062232373458E-006
  0.10550000000000001         -5.9296562540106803E-006
  0.10660000000000003         -6.9309853643056375E-006
  0.10770000000000002         -8.0703093772164831E-006
  0.10880000000000001         -9.3628023023475957E-006
  0.10990000000000003         -1.0824753189807727E-005
  0.11100000000000002         -1.2472583875932087E-005
  0.11210000000000001         -1.4322407878351987E-005
  0.11320000000000002         -1.6390198652514659E-005
  0.11430000000000001         -1.8692038793231556E-005
  0.11540000000000003         -2.1243844457783705E-005
  0.11650000000000002         -2.4060460418693436E-005
  0.11760000000000001         -2.7154565032103467E-005
  0.11870000000000003         -3.0535979021803539E-005
  0.11980000000000002         -3.4211534511993377E-005
  0.12090000000000001         -3.8185095036166099E-005
  0.12200000000000003         -4.2457068047948105E-005
  0.12310000000000001         -4.7023033403088780E-005
  0.12420000000000003         -5.1871906180162915E-005
  0.12530000000000002         -5.6984448747238616E-005
  0.12640000000000001         -6.2332866946229702E-005
  0.12750000000000003         -6.7881504946847867E-005
  0.12860000000000002         -7.3587725637473989E-005
  0.12970000000000001         -7.9401681432493326E-005
  0.13080000000000003         -8.5264960944179212E-005
  0.13190000000000002         -9.1108347987747907E-005
  0.13300000000000001         -9.6849966212167032E-005
  0.13410000000000000         -1.0239506809738469E-004
  0.13520000000000004         -1.0763708269222595E-004
  0.13630000000000003         -1.1245975474593140E-004
  0.13740000000000002         -1.1673899280139115E-004
  0.13850000000000001         -1.2034314568153419E-004
  0.13960000000000000         -1.2313264596740524E-004
  0.14070000000000005         -1.2495981354730925E-004
  0.14180000000000004         -1.2567026715258850E-004
  0.14290000000000003         -1.2510702072175936E-004
  0.14400000000000002         -1.2311531463636815E-004
  0.14510000000000001         -1.1954754154429599E-004
  0.14620000000000000         -1.1426706623750612E-004
  0.14730000000000004         -1.0714983363867671E-004
  0.14840000000000003         -9.8085547506334385E-005
  0.14950000000000002         -8.6979656771282835E-005
  0.15060000000000001         -7.3756564233910696E-005
  0.15170000000000000         -5.8364981668995603E-005
  0.15280000000000005         -4.0783921576799430E-005
  0.15390000000000004         -2.1027597540521506E-005
  0.15500000000000003          8.5097855162569635E-007
  0.15610000000000002          2.4759050575083229E-005
  0.15720000000000001          5.0563903641882930E-005
  0.15830000000000000          7.8092140029177947E-005
  0.15940000000000004          1.0712882794904534E-004
  0.16050000000000003          1.3741651491726485E-004
  0.16160000000000002          1.6865503857842098E-004
  0.16270000000000001          2.0050344755871314E-004
  0.16380000000000000          2.3258342116603425E-004
  0.16490000000000005          2.6448277640154090E-004
  0.16600000000000004          2.9575996450145877E-004
  0.16710000000000003          3.2594986259934359E-004
  0.16820000000000002          3.5457144258540656E-004
  0.16930000000000001          3.8113782647993704E-004
  0.17040000000000000          4.0516685112375827E-004
  0.17150000000000004          4.2619067244227836E-004
  0.17260000000000003          4.4376362347971340E-004
  0.17370000000000002          4.5746861724178795E-004
  0.17480000000000001          4.6692389878440107E-004
  0.17590000000000000          4.7179116518232376E-004
  0.17700000000000005          4.7178508248175825E-004
  0.17810000000000004          4.6668318100269316E-004
  0.17920000000000003          4.5633531408380236E-004
  0.18030000000000002          4.4067102135154999E-004
  0.18140000000000001          4.1970316669899803E-004
  0.18250000000000000          3.9352863677773685E-004
  0.18360000000000004          3.6232819547873328E-004
  0.18470000000000003          3.2636412652206333E-004
  0.18580000000000002          2.8597752680067993E-004
  0.18690000000000001          2.4158661835824627E-004
  0.18800000000000000          1.9368214998392375E-004
  0.18910000000000005          1.4282204210756794E-004
  0.19020000000000004          8.9622531959312053E-005
  0.19130000000000003          3.4747521567619780E-005
  0.19240000000000002         -2.1101912352604896E-005
  0.19350000000000001         -7.7201002568466200E-005
  0.19460000000000005         -1.3281420979182059E-004
  0.19570000000000004         -1.8720769730860617E-004
  0.19680000000000003         -2.3966272419782120E-004
  0.19790000000000002         -2.8948852559549038E-004
  0.19900000000000001         -3.3603547490198898E-004
  0.20010000000000000         -3.7870756932530884E-004
  0.20120000000000005         -4.1697261622171818E-004
  0.20230000000000004         -4.5037054223935705E-004
  0.20340000000000003         -4.7851967974561581E-004
  0.20450000000000002         -5.0112215103576994E-004
  0.20560000000000000         -5.1796750631178659E-004
  0.20670000000000005         -5.2893540123472743E-004
  0.20780000000000004         -5.3399754688138840E-004
  0.20890000000000003         -5.3321779705579149E-004
