 -0.12000000000000000          0.0000000000000000
 -0.11889999999999999          0.0000000000000000
 -0.11780000000000000          0.0000000000000000
 -0.11670000000000000          0.0000000000000000
 -0.11559999999999999          0.0000000000000000
 -0.11449999999999999          0.0000000000000000
 -0.11340000000000000          0.0000000000000000
 -0.11230000000000000          6.0866386988742331E-022
 -0.11119999999999999         -1.1715197860768444E-021
 -0.11009999999999999         -3.4002545086349301E-020
 -0.10900000000000000         -1.5038237886502569E-019
 -0.10790000000000000         -2.3610684098136315E-019
 -0.10679999999999999          3.8263252901439299E-019
 -0.10569999999999999          2.6985667334327409E-018
 -0.10460000000000000          5.6487531238079413E-018
 -0.10349999999999999          2.4176078073446309E-018
 -0.10239999999999999         -1.7622269004718609E-017
 -0.10130000000000000         -5.2116358983949187E-017
 -0.10020000000000000         -6.0390160269121625E-017
  -9.9099999999999994E-002     3.2276716541985127E-017
  -9.7999999999999990E-002     2.5398335862979138E-016
  -9.6899999999999986E-002     4.5213872276652240E-016
  -9.5799999999999996E-002     2.6249468979099978E-016
  -9.4699999999999993E-002    -6.1638873445309671E-016
  -9.3599999999999989E-002    -1.8744720538125532E-015
  -9.2499999999999999E-002    -2.2659323537928126E-015
  -9.1399999999999995E-002    -2.3999566829741087E-016
  -9.0299999999999991E-002     4.3384455811124794E-015
  -8.9200000000000002E-002     8.6101585185092349E-015
  -8.8099999999999984E-002     7.4435442754213080E-015
  -8.6999999999999994E-002    -2.5154940945574741E-015
  -8.5899999999999990E-002    -1.7754147693563578E-014
  -8.4799999999999986E-002    -2.6915041105148816E-014
  -8.3699999999999997E-002    -1.7636720127957614E-014
  -8.2599999999999993E-002     1.1754318560693395E-014
  -8.1499999999999989E-002     4.5618982089062282E-014
  -8.0399999999999999E-002     5.8587764631075047E-014
  -7.9299999999999995E-002     3.5097738517600847E-014
  -7.8199999999999992E-002    -1.5024458660160979E-014
  -7.7100000000000002E-002    -6.1912965260248180E-014
  -7.5999999999999984E-002    -8.1049316563739291E-014
  -7.4899999999999994E-002    -7.4632913239267854E-014
  -7.3799999999999991E-002    -6.2326527402647668E-014
  -7.2699999999999987E-002    -4.4517290380244258E-014
  -7.1599999999999997E-002     1.9933859928400901E-014
  -7.0499999999999993E-002     1.7681894089094381E-013
  -6.9399999999999989E-002     3.9100699674576565E-013
  -6.8300000000000000E-002     4.9578982412585543E-013
  -6.7199999999999996E-002     2.7102560647143434E-013
  -6.6099999999999992E-002    -3.5372003720143642E-013
  -6.5000000000000002E-002    -1.1205781311542203E-012
  -6.3899999999999985E-002    -1.4913682268302521E-012
  -6.2799999999999995E-002    -9.8543048721050784E-013
  -6.1699999999999991E-002     3.9033693269788280E-013
  -6.0599999999999994E-002     1.9772696934620347E-012
  -5.9499999999999990E-002     2.7911895884858875E-012
  -5.8399999999999994E-002     2.1812389134488823E-012
  -5.7299999999999990E-002     3.3590196054383002E-013
  -5.6199999999999986E-002    -1.7978105983083130E-012
  -5.5099999999999996E-002    -3.1611872407941404E-012
  -5.3999999999999992E-002    -3.2803005103894099E-012
  -5.2899999999999989E-002    -2.4255261427830356E-012
  -5.1799999999999985E-002    -1.1263954179108708E-012
  -5.0699999999999995E-002     4.3874501471206011E-013
  -4.9599999999999991E-002     2.4942003757500669E-012
  -4.8499999999999988E-002     5.0111911148455841E-012
  -4.7399999999999998E-002     6.9928021706462620E-012
  -4.6299999999999994E-002     6.6180841189194232E-012
  -4.5199999999999990E-002     2.5139582256193665E-012
  -4.4099999999999986E-002    -4.6840942582996404E-012
  -4.2999999999999997E-002    -1.1881224303010673E-011
  -4.1899999999999993E-002    -1.4940861048361749E-011
  -4.0799999999999989E-002    -1.1270356176096864E-011
  -3.9699999999999985E-002    -1.7853008568039396E-012
  -3.8599999999999995E-002     9.2673256221730300E-012
  -3.7499999999999992E-002     1.6640844952008286E-011
  -3.6399999999999988E-002     1.7030023224951811E-011
  -3.5299999999999984E-002     1.0704750454118257E-011
  -3.4199999999999994E-002     9.6744379001184655E-013
  -3.3099999999999991E-002    -7.8987432913778294E-012
  -3.1999999999999987E-002    -1.2720399386601584E-011
  -3.0899999999999997E-002    -1.2470784821473908E-011
  -2.9799999999999993E-002    -8.1352572248185100E-012
  -2.8699999999999989E-002    -1.9390814908620198E-012
  -2.7599999999999986E-002     3.5570147088198935E-012
  -2.6499999999999996E-002     6.3054908516777898E-012
  -2.5399999999999992E-002     5.4542065308631770E-012
  -2.4299999999999988E-002     1.5819250206622056E-012
  -2.3199999999999985E-002    -3.7508633352090404E-012
  -2.2099999999999995E-002    -8.8738565107183874E-012
  -2.0999999999999991E-002    -1.2512268131314990E-011
  -1.9899999999999987E-002    -1.3300244586231694E-011
  -1.8799999999999983E-002    -8.6499470780511088E-012
  -1.7699999999999994E-002     5.7416879410713022E-012
  -1.6599999999999990E-002     3.4654744351937927E-011
  -1.5499999999999986E-002     8.0725766349323892E-011
  -1.4399999999999996E-002     1.4230140676919291E-010
  -1.3299999999999992E-002     2.1369454816790221E-010
  -1.2199999999999989E-002     2.8811023011779108E-010
  -1.1099999999999985E-002     3.6147485005247783E-010
  -9.9999999999999950E-003     4.3480907763186287E-010
  -8.8999999999999913E-003     5.1413662216508103E-010
  -7.7999999999999875E-003     6.0887295205707452E-010
  -6.6999999999999837E-003     7.3032790925970271E-010
  -5.5999999999999939E-003     8.9090912425157164E-010
  -4.4999999999999901E-003     1.1032297297931432E-009
  -3.3999999999999864E-003     1.3783716390493155E-009
  -2.2999999999999826E-003     1.7241611471875790E-009
  -1.1999999999999927E-003     2.1456318943792849E-009
  -9.9999999999988987E-005     2.6489439530765719E-009
   1.0000000000000148E-003     3.2471265676295369E-009
   2.1000000000000185E-003     3.9636884885400131E-009
   3.2000000000000084E-003     4.8309698463815140E-009
   4.3000000000000121E-003     5.8839959571349129E-009
   5.4000000000000159E-003     7.1544463686740754E-009
   6.5000000000000058E-003     8.6697173884438684E-009
   7.6000000000000234E-003     1.0458378163492374E-008
   8.7000000000000133E-003     1.2558565742893893E-008
   9.8000000000000032E-003     1.5023907451451504E-008
   1.0900000000000021E-002     1.7923845518909462E-008
   1.2000000000000011E-002     2.1339431555135926E-008
   1.3100000000000001E-002     2.5358286137591152E-008
   1.4200000000000018E-002     3.0071749534957113E-008
   1.5300000000000008E-002     3.5574711176880911E-008
   1.6400000000000026E-002     4.1967002317736844E-008
   1.7500000000000016E-002     4.9355563191970493E-008
   1.8600000000000005E-002     5.7857729274251624E-008
   1.9700000000000023E-002     6.7605718356850480E-008
   2.0800000000000013E-002     7.8750936438616511E-008
   2.1900000000000003E-002     9.1465246043761704E-008
   2.3000000000000020E-002     1.0593738153375870E-007
   2.4100000000000010E-002     1.2236557722645720E-007
   2.5200000000000000E-002     1.4094995037795672E-007
   2.6300000000000018E-002     1.6188840845644850E-007
   2.7400000000000008E-002     1.8537711810042125E-007
   2.8500000000000025E-002     2.1161397967263885E-007
   2.9600000000000015E-002     2.4080208049783632E-007
   3.0700000000000005E-002     2.7315101647220812E-007
   3.1800000000000023E-002     3.0887485991118414E-007
   3.2900000000000013E-002     3.4818719996113390E-007
   3.4000000000000002E-002     3.9129236029115258E-007
   3.5100000000000020E-002     4.3837422936125486E-007
   3.6200000000000010E-002     4.8958429488270482E-007
   3.7300000000000028E-002     5.4503220781048497E-007
   3.8400000000000017E-002     6.0478214436448922E-007
   3.9500000000000007E-002     6.6885377236764341E-007
   4.0600000000000025E-002     7.3722418392214662E-007
   4.1700000000000015E-002     8.0982488270827160E-007
   4.2800000000000005E-002     8.8653138163871305E-007
   4.3900000000000022E-002     9.6714779829207663E-007
   4.5000000000000012E-002     1.0513914503463678E-006
   4.6100000000000002E-002     1.1388837037885543E-006
   4.7200000000000020E-002     1.2291476423343940E-006
   4.8300000000000010E-002     1.3216111938164720E-006
   4.9400000000000027E-002     1.4156095176077918E-006
   5.0500000000000017E-002     1.5103840951270750E-006
   5.1600000000000007E-002     1.6050776139310627E-006
   5.2700000000000025E-002     1.6987311255435731E-006
   5.3800000000000014E-002     1.7902851823238782E-006
   5.4900000000000004E-002     1.8785888187268841E-006
   5.6000000000000022E-002     1.9624114884210925E-006
   5.7100000000000012E-002     2.0404531824171561E-006
   5.8200000000000002E-002     2.1113539787622487E-006
   5.9300000000000019E-002     2.1737009774371665E-006
   6.0400000000000009E-002     2.2260430796452299E-006
   6.1500000000000027E-002     2.2669141799271819E-006
   6.2600000000000017E-002     2.2948634068600178E-006
   6.3700000000000007E-002     2.3084862732505253E-006
   6.4800000000000024E-002     2.3064501419869320E-006
   6.5900000000000014E-002     2.2875174181537991E-006
   6.7000000000000004E-002     2.2505673769048679E-006
   6.8100000000000022E-002     2.1946193555779506E-006
   6.9200000000000012E-002     2.1188589016676102E-006
   7.0300000000000029E-002     2.0226593733243251E-006
   7.1400000000000019E-002     1.9055989923801477E-006
   7.2500000000000009E-002     1.7674786931822276E-006
   7.3600000000000027E-002     1.6083504306154034E-006
   7.4700000000000016E-002     1.4285510587798447E-006
   7.5800000000000006E-002     1.2287316621951827E-006
   7.6900000000000024E-002     1.0098668781212053E-006
   7.8000000000000014E-002     7.7323960567818186E-007
   7.9100000000000004E-002     5.2041355047555474E-007
   8.0200000000000021E-002     2.5321097041345441E-007
   8.1300000000000011E-002    -2.6296319788335058E-008
   8.2400000000000029E-002    -3.1579048709319979E-007
   8.3500000000000019E-002    -6.1272362472668684E-007
   8.4600000000000009E-002    -9.1435344984354867E-007
   8.5700000000000026E-002    -1.2177888493171055E-006
   8.6800000000000016E-002    -1.5200279221973177E-006
   8.7900000000000006E-002    -1.8179849803347450E-006
   8.9000000000000024E-002    -2.1085211301398934E-006
   9.0100000000000013E-002    -2.3884997517600229E-006
   9.1200000000000003E-002    -2.6548680125417947E-006
   9.2300000000000021E-002    -2.9047439511489658E-006
   9.3400000000000011E-002    -3.1354754810311659E-006
   9.4500000000000028E-002    -3.3446615361757142E-006
   9.5600000000000018E-002    -3.5301588923178831E-006
   9.6700000000000008E-002    -3.6901083149135720E-006
   9.7800000000000026E-002    -3.8229882193267161E-006
   9.8900000000000016E-002    -3.9276783354584045E-006
  0.10000000000000001         -4.0034965422823095E-006
  0.10110000000000002         -4.0501981857236527E-006
  0.10220000000000001         -4.0679597077545796E-006
  0.10330000000000003         -4.0573791011415043E-006
  0.10440000000000002         -4.0195059227702726E-006
  0.10550000000000001         -3.9558590287928471E-006
  0.10660000000000003         -3.8684015635230038E-006
  0.10770000000000002         -3.7594650166287385E-006
  0.10880000000000001         -3.6316687328511563E-006
  0.10990000000000003         -3.4878689803011763E-006
  0.11100000000000002         -3.3311521292492647E-006
  0.11210000000000001         -3.1648257845520949E-006
  0.11320000000000002         -2.9923639885967645E-006
  0.11430000000000001         -2.8173008104206873E-006
  0.11540000000000003         -2.6431182504896016E-006
  0.11650000000000002         -2.4731843950578487E-006
  0.11760000000000001         -2.3107386368794681E-006
  0.11870000000000003         -2.1588814433928042E-006
  0.11980000000000002         -2.0205043256284687E-006
  0.12090000000000001         -1.8981751281900806E-006
  0.12200000000000003         -1.7940313910004815E-006
  0.12310000000000001         -1.7097414684032364E-006
  0.12420000000000003         -1.6465304497616334E-006
  0.12530000000000002         -1.6052071032392243E-006
  0.12640000000000001         -1.5861320434852622E-006
  0.12750000000000003         -1.5891369002930814E-006
  0.12860000000000002         -1.6134625866472146E-006
  0.12970000000000001         -1.6577810129093976E-006
  0.13080000000000003         -1.7202881963386639E-006
  0.13190000000000002         -1.7987889577854468E-006
  0.13300000000000001         -1.8907079493148378E-006
  0.13410000000000000         -1.9930453163398765E-006
  0.13520000000000004         -2.1023572571722999E-006
  0.13630000000000003         -2.2148278731039811E-006
  0.13740000000000002         -2.3264187802853724E-006
  0.13850000000000001         -2.4330029191335038E-006
  0.13960000000000000         -2.5304168502773337E-006
  0.14070000000000005         -2.6144518869844072E-006
  0.14180000000000004         -2.6808713755601904E-006
  0.14290000000000003         -2.7255202894596333E-006
  0.14400000000000002         -2.7445000796435859E-006
  0.14510000000000001         -2.7343101010049241E-006
  0.14620000000000000         -2.6918817184198649E-006
  0.14730000000000004         -2.6145387437284417E-006
  0.14840000000000003         -2.4999908418979145E-006
  0.14950000000000002         -2.3464265268560271E-006
  0.15060000000000001         -2.1526693672060358E-006
  0.15170000000000000         -1.9182905361960546E-006
  0.15280000000000005         -1.6436024452561424E-006
  0.15390000000000004         -1.3295767757883061E-006
  0.15500000000000003         -9.7778820418182787E-007
  0.15610000000000002         -5.9045231637364554E-007
  0.15720000000000001         -1.7050625444886129E-007
  0.15830000000000000          2.7837123184325480E-007
  0.15940000000000004          7.5186000003671688E-007
  0.16050000000000003          1.2451649809009569E-006
  0.16160000000000002          1.7531352796141929E-006
  0.16270000000000001          2.2702827209288323E-006
  0.16380000000000000          2.7907522053285355E-006
  0.16490000000000005          3.3083622383858650E-006
  0.16600000000000004          3.8167613638509888E-006
  0.16710000000000003          4.3096338231411197E-006
  0.16820000000000002          4.7808466661085266E-006
  0.16930000000000001          5.2244936341598962E-006
  0.17040000000000000          5.6348976613667601E-006
  0.17150000000000004          6.0066736295999216E-006
  0.17260000000000003          6.3348893490916645E-006
  0.17370000000000002          6.6152474573761117E-006
  0.17480000000000001          6.8441827352223133E-006
  0.17590000000000000          7.0188448262349130E-006
  0.17700000000000005          7.1370500336349521E-006
  0.17810000000000004          7.1972967816698046E-006
  0.17920000000000003          7.1988661147777180E-006
  0.18030000000000002          7.1419149207947491E-006
  0.18140000000000001          7.0274791141862171E-006
  0.18250000000000000          6.8573604039563335E-006
  0.18360000000000004          6.6340053308528681E-006
  0.18470000000000003          6.3604575188953051E-006
  0.18580000000000002          6.0403881434473500E-006
  0.18690000000000001          5.6781123021215652E-006
  0.18800000000000000          5.2785003390459448E-006
  0.18910000000000005          4.8468068598599827E-006
  0.19020000000000004          4.3885029299421949E-006
  0.19130000000000003          3.9091914914028535E-006
  0.19240000000000002          3.4145948575318395E-006
  0.19350000000000001          2.9105240173524548E-006
  0.19460000000000005          2.4027606286838715E-006
  0.19570000000000004          1.8968858057635196E-006
  0.19680000000000003          1.3981509709994360E-006
  0.19790000000000002          9.1144875113980924E-007
  0.19900000000000001          4.4134185372975886E-007
  0.20010000000000000         -7.9431252686056939E-009
  0.20120000000000005         -4.3260243387522573E-007
  0.20230000000000004         -8.2937617662542089E-007
  0.20340000000000003         -1.1956115031353802E-006
  0.20450000000000002         -1.5292334865081364E-006
  0.20560000000000000         -1.8286746126251840E-006
  0.20670000000000005         -2.0928491721862814E-006
  0.20780000000000004         -2.3211894131238467E-006
  0.20890000000000003         -2.5136787371595721E-006
