 -0.12000000000000000          0.0000000000000000
 -0.11889999999999999          0.0000000000000000
 -0.11780000000000000          0.0000000000000000
 -0.11670000000000000          0.0000000000000000
 -0.11559999999999999          0.0000000000000000
 -0.11449999999999999          0.0000000000000000
 -0.11340000000000000          1.2667719249872395E-013
 -0.11230000000000000          1.5362210201846915E-012
 -0.11119999999999999          8.4387852608558411E-012
 -0.11009999999999999          2.6854624426975171E-011
 -0.10900000000000000          5.0273833707148441E-011
 -0.10790000000000000          3.9127256989957004E-011
 -0.10679999999999999         -5.2281151630140243E-011
 -0.10569999999999999         -1.5547127474313527E-010
 -0.10460000000000000         -1.2503073229530592E-011
 -0.10349999999999999          5.1224430253071773E-010
 -0.10239999999999999          7.4806044692010687E-010
 -0.10130000000000000         -7.1958350389422776E-010
 -0.10020000000000000         -3.7820409026778634E-009
  -9.9099999999999994E-002    -3.6958434090905712E-009
  -9.7999999999999990E-002     6.7331704656226066E-009
  -9.6899999999999986E-002     2.4744979398860778E-008
  -9.5799999999999996E-002     2.4599115633350266E-008
  -9.4699999999999993E-002    -2.8970728038757443E-008
  -9.3599999999999989E-002    -1.2509256919202016E-007
  -9.2499999999999999E-002    -1.5245251461237785E-007
  -9.1399999999999995E-002     5.0097963111284116E-008
  -9.0299999999999991E-002     4.8252752549160505E-007
  -8.9200000000000002E-002     7.6218219646762009E-007
  -8.8099999999999984E-002     2.4284608457492141E-007
  -8.6999999999999994E-002    -1.3107311360727181E-006
  -8.5899999999999990E-002    -2.8956851565453690E-006
  -8.4799999999999986E-002    -2.3426996449416038E-006
  -8.3699999999999997E-002     1.9071566157435882E-006
  -8.2599999999999993E-002     8.1222151493420824E-006
  -8.1499999999999989E-002     1.0433332136017270E-005
  -8.0399999999999999E-002     2.4907053557399195E-006
  -7.9299999999999995E-002    -1.5261319276760332E-005
  -7.8199999999999992E-002    -3.0712806619703770E-005
  -7.7100000000000002E-002    -2.5122444640146568E-005
  -7.5999999999999984E-002     1.0856081644305959E-005
  -7.4899999999999994E-002     6.0856571508338675E-005
  -7.3799999999999991E-002     8.3744707808364183E-005
  -7.2699999999999987E-002     4.0809649362927303E-005
  -7.1599999999999997E-002    -6.4633233705535531E-005
  -7.0499999999999993E-002    -1.6880247858352959E-004
  -6.9399999999999989E-002    -1.7823922098614275E-004
  -6.8300000000000000E-002    -4.1776529542403296E-005
  -6.7199999999999996E-002     1.8708959396462888E-004
  -6.6099999999999992E-002     3.5780746839009225E-004
  -6.5000000000000002E-002     3.1657540239393711E-004
  -6.3899999999999985E-002     3.0024291845620610E-005
  -6.2799999999999995E-002    -3.5842723445966840E-004
  -6.1699999999999991E-002    -6.0050428146496415E-004
  -6.0599999999999994E-002    -5.0738494610413909E-004
  -5.9499999999999990E-002    -8.9099179604090750E-005
  -5.8399999999999994E-002     4.3947799713350832E-004
  -5.7299999999999990E-002     7.9335580812767148E-004
  -5.6199999999999986E-002     7.8918749932199717E-004
  -5.5099999999999996E-002     4.2824461706914008E-004
  -5.3999999999999992E-002    -1.4735046715941280E-004
  -5.2899999999999989E-002    -7.4965617386624217E-004
  -5.1799999999999985E-002    -1.1907364241778851E-003
  -5.0699999999999995E-002    -1.2695413315668702E-003
  -4.9599999999999991E-002    -7.9662783537060022E-004
  -4.8499999999999988E-002     2.5996120530180633E-004
  -4.7399999999999998E-002     1.5803913120180368E-003
  -4.6299999999999994E-002     2.4748784489929676E-003
  -4.5199999999999990E-002     2.2168634459376335E-003
  -4.4099999999999986E-002     6.1283842660486698E-004
  -4.2999999999999997E-002    -1.6204904532060027E-003
  -4.1899999999999993E-002    -3.1145527027547359E-003
  -4.0799999999999989E-002    -2.7632971759885550E-003
  -3.9699999999999985E-002    -7.0850423071533442E-004
  -3.8599999999999995E-002     1.4647254720330238E-003
  -3.7499999999999992E-002     1.7621334409341216E-003
  -3.6399999999999988E-002    -4.7561229439452291E-004
  -3.5299999999999984E-002    -3.4515664447098970E-003
  -3.4199999999999994E-002    -3.6559316795319319E-003
  -3.3099999999999991E-002     1.4813607558608055E-003
  -3.1999999999999987E-002     1.0625006631016731E-002
  -3.0899999999999997E-002     1.7713787034153938E-002
  -2.9799999999999993E-002     1.4874360524117947E-002
  -2.8699999999999989E-002    -1.8049969803541899E-003
  -2.7599999999999986E-002    -2.7148419991135597E-002
  -2.6499999999999996E-002    -4.6728629618883133E-002
  -2.5399999999999992E-002    -4.3736133724451065E-002
  -2.4299999999999988E-002    -1.0361019521951675E-002
  -2.3199999999999985E-002     4.3084703385829926E-002
  -2.2099999999999995E-002     8.8715545833110809E-002
  -2.0999999999999991E-002     9.4131983816623688E-002
  -1.9899999999999987E-002     4.2808216065168381E-002
  -1.8799999999999983E-002    -5.0059042870998383E-002
  -1.7699999999999994E-002   -0.13830652832984924
  -1.6599999999999990E-002   -0.16608928143978119
  -1.5499999999999986E-002   -0.10075510293245316
  -1.4399999999999996E-002     4.1420441120862961E-002
  -1.3299999999999992E-002    0.19470864534378052
  -1.2199999999999989E-002    0.27388688921928406
  -1.1099999999999985E-002    0.22129644453525543
  -9.9999999999999950E-003     4.4437017291784286E-002
  -8.8999999999999913E-003   -0.18058605492115021
  -7.7999999999999875E-003   -0.34644526243209839
  -6.6999999999999837E-003   -0.37473890185356140
  -5.5999999999999939E-003   -0.26440241932868958
  -4.4999999999999901E-003    -9.7372554242610931E-002
  -3.3999999999999864E-003     5.9311776421964169E-003
  -2.2999999999999826E-003    -4.2111009359359741E-002
  -1.1999999999999927E-003   -0.24083459377288818
  -9.9999999999988987E-005   -0.49800717830657959
   1.0000000000000148E-003   -0.68501305580139160
   2.1000000000000185E-003   -0.71972608566284180
   3.2000000000000084E-003   -0.62579673528671265
   4.3000000000000121E-003   -0.52818387746810913
   5.4000000000000159E-003   -0.58315485715866089
   6.5000000000000058E-003   -0.88376295566558838
   7.6000000000000234E-003    -1.4009766578674316
   8.7000000000000133E-003    -2.0013790130615234
   9.8000000000000032E-003    -2.5345160961151123
   1.0900000000000021E-002    -2.9363265037536621
   1.2000000000000011E-002    -3.2810397148132324
   1.3100000000000001E-002    -3.7441380023956299
   1.4200000000000018E-002    -4.4962129592895508
   1.5300000000000008E-002    -5.5952663421630859
   1.6400000000000026E-002    -6.9509572982788086
   1.7500000000000016E-002    -8.3914279937744141
   1.8600000000000005E-002    -9.7970848083496094
   1.9700000000000023E-002    -11.217562675476074
   2.0800000000000013E-002    -12.890973091125488
   2.1900000000000003E-002    -15.140412330627441
   2.3000000000000020E-002    -18.200241088867188
   2.4100000000000010E-002    -22.075714111328125
   2.5200000000000000E-002    -26.530101776123047
   2.6300000000000018E-002    -31.222648620605469
   2.7400000000000008E-002    -35.928947448730469
   2.8500000000000025E-002    -40.716907501220703
   2.9600000000000015E-002    -45.966926574707031
   3.0700000000000005E-002    -52.211849212646484
   3.1800000000000023E-002    -59.880340576171875
   3.2900000000000013E-002    -69.089645385742188
   3.4000000000000002E-002    -79.612640380859375
   3.5100000000000020E-002    -91.039550781250000
   3.6200000000000010E-002    -103.03933715820312
   3.7300000000000028E-002    -115.56490325927734
   3.8400000000000017E-002    -128.88238525390625
   3.9500000000000007E-002    -143.41172790527344
   4.0600000000000025E-002    -159.48156738281250
   4.1700000000000015E-002    -177.14550781250000
   4.2800000000000005E-002    -196.16474914550781
   4.3900000000000022E-002    -216.15249633789062
   4.5000000000000012E-002    -236.78198242187500
   4.6100000000000002E-002    -257.92709350585938
   4.7200000000000020E-002    -279.65127563476562
   4.8300000000000010E-002    -302.05993652343750
   4.9400000000000027E-002    -325.10614013671875
   5.0500000000000017E-002    -348.47210693359375
   5.1600000000000007E-002    -371.59808349609375
   5.2700000000000025E-002    -393.83889770507812
   5.3800000000000014E-002    -414.65029907226562
   5.4900000000000004E-002    -433.69668579101562
   5.6000000000000022E-002    -450.80050659179688
   5.7100000000000012E-002    -465.76834106445312
   5.8200000000000002E-002    -478.19958496093750
   5.9300000000000019E-002    -487.39773559570312
   6.0400000000000009E-002    -492.45507812500000
   6.1500000000000027E-002    -492.44213867187500
   6.2600000000000017E-002    -486.61856079101562
   6.3700000000000007E-002    -474.51296997070312
   6.4800000000000024E-002    -455.86447143554688
   6.5900000000000014E-002    -430.45010375976562
   6.7000000000000004E-002    -397.93054199218750
   6.8100000000000022E-002    -357.81079101562500
   6.9200000000000012E-002    -309.52438354492188
   7.0300000000000029E-002    -252.60021972656250
   7.1400000000000019E-002    -186.78443908691406
   7.2500000000000009E-002    -112.10404205322266
   7.3600000000000027E-002    -28.826238632202148
   7.4700000000000016E-002     62.609577178955078
   7.5800000000000006E-002     161.67413330078125
   7.6900000000000024E-002     267.76467895507812
   7.8000000000000014E-002     380.18170166015625
   7.9100000000000004E-002     498.07012939453125
   8.0200000000000021E-002     620.37164306640625
   8.1300000000000011E-002     745.81964111328125
   8.2400000000000029E-002     872.95751953125000
   8.3500000000000019E-002     1000.1982421875000
   8.4600000000000009E-002     1125.8493652343750
   8.5700000000000026E-002     1248.1347656250000
   8.6800000000000016E-002     1365.2045898437500
   8.7900000000000006E-002     1475.1490478515625
   8.9000000000000024E-002     1576.0438232421875
   9.0100000000000013E-002     1665.9985351562500
   9.1200000000000003E-002     1743.2026367187500
   9.2300000000000021E-002     1805.9459228515625
   9.3400000000000011E-002     1852.6322021484375
   9.4500000000000028E-002     1881.8083496093750
   9.5600000000000018E-002     1892.2187500000000
   9.6700000000000008E-002     1882.8662109375000
   9.7800000000000026E-002     1853.0517578125000
   9.8900000000000016E-002     1802.3746337890625
  0.10000000000000001          1730.7056884765625
  0.10110000000000002          1638.1943359375000
  0.10220000000000001          1525.2891845703125
  0.10330000000000003          1392.7869873046875
  0.10440000000000002          1241.8486328125000
  0.10550000000000001          1073.9638671875000
  0.10660000000000003          890.92431640625000
  0.10770000000000002          694.80645751953125
  0.10880000000000001          487.97546386718750
  0.10990000000000003          273.05410766601562
  0.11100000000000002          52.837532043457031
  0.11210000000000001         -169.83079528808594
  0.11320000000000002         -392.15005493164062
  0.11430000000000001         -611.37249755859375
  0.11540000000000003         -824.74835205078125
  0.11650000000000002         -1029.4896240234375
  0.11760000000000001         -1222.8457031250000
  0.11870000000000003         -1402.2540283203125
  0.11980000000000002         -1565.4392089843750
  0.12090000000000001         -1710.4425048828125
  0.12200000000000003         -1835.5406494140625
  0.12310000000000001         -1939.2191162109375
  0.12420000000000003         -2020.2749023437500
  0.12530000000000002         -2078.0231933593750
  0.12640000000000001         -2112.3847656250000
  0.12750000000000003         -2123.7573242187500
  0.12860000000000002         -2112.7255859375000
  0.12970000000000001         -2079.8713378906250
  0.13080000000000003         -2025.8536376953125
  0.13190000000000002         -1951.7019042968750
  0.13300000000000001         -1859.0611572265625
  0.13410000000000000         -1750.1099853515625
  0.13520000000000004         -1627.2076416015625
  0.13630000000000003         -1492.5452880859375
  0.13740000000000002         -1348.0939941406250
  0.13850000000000001         -1195.8565673828125
  0.13960000000000000         -1038.1218261718750
  0.14070000000000005         -877.44238281250000
  0.14180000000000004         -716.32440185546875
  0.14290000000000003         -556.91052246093750
  0.14400000000000002         -400.95175170898438
  0.14510000000000001         -250.06626892089844
  0.14620000000000000         -105.96288299560547
  0.14730000000000004          29.635372161865234
  0.14840000000000003          155.34552001953125
  0.14950000000000002          270.39532470703125
  0.15060000000000001          374.49295043945312
  0.15170000000000000          467.37820434570312
  0.15280000000000005          548.48889160156250
  0.15390000000000004          617.09460449218750
  0.15500000000000003          672.82562255859375
  0.15610000000000002          716.08001708984375
  0.15720000000000001          747.92407226562500
  0.15830000000000000          769.50073242187500
  0.15940000000000004          781.50311279296875
  0.16050000000000003          784.18695068359375
  0.16160000000000002          777.89404296875000
  0.16270000000000001          763.55395507812500
  0.16380000000000000          742.64013671875000
  0.16490000000000005          716.60107421875000
  0.16600000000000004          686.31512451171875
  0.16710000000000003          652.11083984375000
  0.16820000000000002          614.34490966796875
  0.16930000000000001          573.95385742187500
  0.17040000000000000          532.41674804687500
  0.17150000000000004          491.10421752929688
  0.17260000000000003          450.63885498046875
  0.17370000000000002          410.88665771484375
  0.17480000000000001          371.60128784179688
  0.17590000000000000          333.10379028320312
  0.17700000000000005          296.34454345703125
  0.17810000000000004          262.27899169921875
  0.17920000000000003          231.15930175781250
  0.18030000000000002          202.45599365234375
  0.18140000000000001          175.47216796875000
  0.18250000000000000          150.05262756347656
  0.18360000000000004          126.71144104003906
  0.18470000000000003          106.04033660888672
  0.18580000000000002          88.015365600585938
  0.18690000000000001          71.883193969726562
  0.18800000000000000          56.754760742187500
  0.18910000000000005          42.324157714843750
  0.19020000000000004          29.004302978515625
  0.19130000000000003          17.344947814941406
  0.19240000000000002          7.3171172142028809
  0.19350000000000001         -1.8249665498733521
  0.19460000000000005         -10.970242500305176
  0.19570000000000004         -20.407922744750977
  0.19680000000000003         -29.650487899780273
  0.19790000000000002         -37.975784301757812
  0.19900000000000001         -45.156150817871094
  0.20010000000000000         -51.671043395996094
  0.20120000000000005         -58.214389801025391
  0.20230000000000004         -64.998435974121094
  0.20340000000000003         -71.540267944335938
  0.20450000000000002         -77.119445800781250
  0.20560000000000000         -81.447547912597656
  0.20670000000000005         -84.885116577148438
  0.20780000000000004         -88.012260437011719
  0.20890000000000003         -90.975509643554688
