 -0.12000000000000000          0.0000000000000000
 -0.11889999999999999          0.0000000000000000
 -0.11780000000000000          0.0000000000000000
 -0.11670000000000000          0.0000000000000000
 -0.11559999999999999          0.0000000000000000
 -0.11449999999999999          0.0000000000000000
 -0.11340000000000000         -2.0309261217208800E-011
 -0.11230000000000000         -1.7575628452614397E-010
 -0.11119999999999999         -4.7187337370857966E-010
 -0.11009999999999999          4.7688980542294505E-010
 -0.10900000000000000          6.4171903346730289E-009
 -0.10790000000000000          1.7060616031017297E-008
 -0.10679999999999999          1.0274482598051154E-008
 -0.10569999999999999         -6.2012361468074363E-008
 -0.10460000000000000         -2.0707173575829098E-007
 -0.10349999999999999         -2.5184542096214317E-007
 -0.10239999999999999          1.8151062874945591E-007
 -0.10130000000000000          1.2723845657091952E-006
 -0.10020000000000000          2.2096735392552433E-006
  -9.9099999999999994E-002     9.3251912858274003E-007
  -9.7999999999999990E-002    -4.2142619349758241E-006
  -9.6899999999999986E-002    -1.0983282663801350E-005
  -9.5799999999999996E-002    -1.1272404663032902E-005
  -9.4699999999999993E-002     4.1143230191648719E-006
  -9.3599999999999989E-002     3.3290147257502383E-005
  -9.2499999999999999E-002     5.3433333960131238E-005
  -9.1399999999999995E-002     2.9610067940672246E-005
  -9.0299999999999991E-002    -5.1914081268472208E-005
  -8.9200000000000002E-002    -1.4798891788814339E-004
  -8.8099999999999984E-002    -1.6393382975367346E-004
  -8.6999999999999994E-002    -2.4366332581870606E-005
  -8.5899999999999990E-002     2.2977415937929118E-004
  -8.4799999999999986E-002     4.1475691250527150E-004
  -8.3699999999999997E-002     3.2007449772213857E-004
  -8.2599999999999993E-002    -8.6962456407439496E-005
  -8.1499999999999989E-002    -5.5251095909624826E-004
  -8.0399999999999999E-002    -6.8787921918563163E-004
  -7.9299999999999995E-002    -3.2284972257923538E-004
  -7.8199999999999992E-002     2.5681132683523652E-004
  -7.7100000000000002E-002     5.0594564527278979E-004
  -7.5999999999999984E-002     1.9054896256437783E-004
  -7.4899999999999994E-002    -2.0531390327945074E-004
  -7.3799999999999991E-002     1.8027916667049290E-004
  -7.2699999999999987E-002     1.5582775231448539E-003
  -7.1599999999999997E-002     2.7096036355940020E-003
  -7.0499999999999993E-002     1.5735072083771331E-003
  -6.9399999999999989E-002    -2.7379607781764050E-003
  -6.8300000000000000E-002    -8.0758687108750116E-003
  -6.7199999999999996E-002    -9.7237173467873399E-003
  -6.6099999999999992E-002    -3.8447047118103737E-003
  -6.5000000000000002E-002     8.3267251029599514E-003
  -6.3899999999999985E-002     1.9442960619925682E-002
  -6.2799999999999995E-002     2.0317731425166560E-002
  -6.1699999999999991E-002     7.2198696434515198E-003
  -6.0599999999999994E-002    -1.3647510670123429E-002
  -5.9499999999999990E-002    -2.9164504259823910E-002
  -5.8399999999999994E-002    -2.8611036017538408E-002
  -5.7299999999999990E-002    -1.2124015018346767E-002
  -5.6199999999999986E-002     9.1723166406129219E-003
  -5.5099999999999996E-002     2.2172685712575465E-002
  -5.3999999999999992E-002     2.2406265139581702E-002
  -5.2899999999999989E-002     1.6546173021200088E-002
  -5.1799999999999985E-002     1.4062930829824469E-002
  -5.0699999999999995E-002     1.5779962763189478E-002
  -4.9599999999999991E-002     1.1172108352182453E-002
  -4.8499999999999988E-002    -1.1099494062364665E-002
  -4.7399999999999998E-002    -4.7996737062929049E-002
  -4.6299999999999994E-002    -7.7385418117043012E-002
  -4.5199999999999990E-002    -7.1430310606955011E-002
  -4.4099999999999986E-002    -1.9535681232813028E-002
  -4.2999999999999997E-002     5.8191634714596444E-002
  -4.1899999999999993E-002    0.12009882181882155
  -4.0799999999999989E-002    0.12959909439086698
  -3.9699999999999985E-002     7.9180970788007121E-002
  -3.8599999999999995E-002    -6.2302378937499512E-003
  -3.7499999999999992E-002    -8.7356537580480245E-002
  -3.6399999999999988E-002   -0.13403439521789140
  -3.5299999999999984E-002   -0.13643503189087261
  -3.4199999999999994E-002   -0.10019338876009827
  -3.3099999999999991E-002    -3.6291394382723545E-002
  -3.1999999999999987E-002     4.2139943689103371E-002
  -3.0899999999999997E-002    0.11578045040368974
  -2.9799999999999993E-002    0.15849728882312816
  -2.8699999999999989E-002    0.14813835918903190
  -2.7599999999999986E-002     8.2883901894088910E-002
  -2.6499999999999996E-002    -1.2352300807835495E-002
  -2.5399999999999992E-002    -9.8509564995760537E-002
  -2.4299999999999988E-002   -0.14552658796309018
  -2.3199999999999985E-002   -0.14693793654439982
  -2.2099999999999995E-002   -0.11476142704485545
  -2.0999999999999991E-002    -6.2662646174433165E-002
  -1.9899999999999987E-002     4.0986542589760023E-003
  -1.8799999999999983E-002     8.2846932113140759E-002
  -1.7699999999999994E-002    0.16191098093984163
  -1.6599999999999990E-002    0.22088752686977156
  -1.5499999999999986E-002    0.24662218987944096
  -1.4399999999999996E-002    0.24827022850517594
  -1.3299999999999992E-002    0.25155401229862862
  -1.2199999999999989E-002    0.27332606911662971
  -1.1099999999999985E-002    0.30206829309466493
  -9.9999999999999950E-003    0.30956721305850249
  -8.8999999999999913E-003    0.28882312774662106
  -7.7999999999999875E-003    0.28159704804425073
  -6.6999999999999837E-003    0.36106663942341438
  -5.5999999999999939E-003    0.57536375522617067
  -4.4999999999999901E-003    0.90015929937366024
  -3.3999999999999864E-003     1.2489087581635057
  -2.2999999999999826E-003     1.5410954952240998
  -1.1999999999999927E-003     1.7736079692842219
  -9.9999999999988987E-005     2.0319442749025685
   1.0000000000000148E-003     2.4281976222994608
   2.1000000000000185E-003     3.0178792476656957
   3.2000000000000084E-003     3.7668759822848603
   4.3000000000000121E-003     4.5950059890750659
   5.4000000000000159E-003     5.4549756050114224
   6.5000000000000058E-003     6.3783526420598697
   7.6000000000000234E-003     7.4552230834967608
   8.7000000000000133E-003     8.7757406234749151
   9.8000000000000032E-003     10.388713836670849
   1.0900000000000021E-002     12.306168556214455
   1.2000000000000011E-002     14.534118652345009
   1.3100000000000001E-002     17.091054916383325
   1.4200000000000018E-002     20.000579833986137
   1.5300000000000008E-002     23.279911041261833
   1.6400000000000026E-002     26.948492050173293
   1.7500000000000016E-002     31.050672531130676
   1.8600000000000005E-002     35.660533905032430
   1.9700000000000023E-002     40.853694915775066
   2.0800000000000013E-002     46.670310974125208
   2.1900000000000003E-002     53.113025665287928
   2.3000000000000020E-002     60.191162109380400
   2.4100000000000010E-002     67.966659545904562
   2.5200000000000000E-002     76.541488647467830
   2.6300000000000018E-002     85.983612060554577
   2.7400000000000008E-002     96.253479003914848
   2.8500000000000025E-002     107.21452331543927
   2.9600000000000015E-002     118.73561096192472
   3.0700000000000005E-002     130.79972839356651
   3.1800000000000023E-002     143.51353454591145
   3.2900000000000013E-002     156.99136352540486
   3.4000000000000002E-002     171.20715332032805
   3.5100000000000020E-002     185.94734191896219
   3.6200000000000010E-002     200.90480041505734
   3.7300000000000028E-002     215.84077453615254
   3.8400000000000017E-002     230.65911865236492
   3.9500000000000007E-002     245.33299255373350
   4.0600000000000025E-002     259.75033569338331
   4.1700000000000015E-002     273.61596679690024
   4.2800000000000005E-002     286.48507690432331
   4.3900000000000022E-002     297.88757324221507
   4.5000000000000012E-002     307.42224121096609
   4.6100000000000002E-002     314.77758789065444
   4.7200000000000020E-002     319.68368530276445
   4.8300000000000010E-002     321.86199951174910
   4.9400000000000027E-002     321.02230834963979
   5.0500000000000017E-002     316.85070800784263
   5.1600000000000007E-002     308.97421264651393
   5.2700000000000025E-002     296.91885375979416
   5.3800000000000014E-002     280.14828491213655
   5.4900000000000004E-002     258.20019531252535
   5.6000000000000022E-002     230.83355712892927
   5.7100000000000012E-002     198.06216430666083
   5.8200000000000002E-002     160.01029968263404
   5.9300000000000019E-002     116.71437072755205
   6.0400000000000009E-002     68.051414489754677
   6.1500000000000027E-002     13.862806320194107
   6.2600000000000017E-002    -45.811183929445100
   6.3700000000000007E-002    -110.58644104004671
   6.4800000000000024E-002    -179.82682800294370
   6.5900000000000014E-002    -252.86279296877075
   6.7000000000000004E-002    -329.11218261721535
   6.8100000000000022E-002    -408.02313232425394
   6.9200000000000012E-002    -488.87707519535525
   7.0300000000000029E-002    -570.68579101567536
   7.1400000000000019E-002    -652.28521728521434
   7.2500000000000009E-002    -732.52801513678457
   7.3600000000000027E-002    -810.39031982429208
   7.4700000000000016E-002    -884.87823486336174
   7.5800000000000006E-002    -954.84393310555606
   7.6900000000000024E-002    -1018.9227294922811
   7.8000000000000014E-002    -1075.6905517579119
   7.9100000000000004E-002    -1123.9113769532291
   8.0200000000000021E-002    -1162.6489257813585
   8.1300000000000011E-002    -1191.1491699219864
   8.2400000000000029E-002    -1208.6335449219887
   8.3500000000000019E-002    -1214.2263183594896
   8.4600000000000009E-002    -1207.1271972657396
   8.5700000000000026E-002    -1186.8411865235507
   8.6800000000000016E-002    -1153.2725830079230
   8.7900000000000006E-002    -1106.5770263672941
   8.9000000000000024E-002    -1046.9432373047891
   9.0100000000000013E-002    -974.54144287118902
   9.1200000000000003E-002    -889.71655273446277
   9.2300000000000021E-002    -793.20849609382913
   9.3400000000000011E-002    -686.20324707038196
   9.4500000000000028E-002    -570.10162353521503
   9.5600000000000018E-002    -446.26132202153178
   9.6700000000000008E-002    -315.92395019534780
   9.7800000000000026E-002    -180.40795898439768
   9.8900000000000016E-002    -41.352527618417895
  0.10000000000000001          99.256889343265243
  0.10110000000000002          239.35382080079805
  0.10220000000000001          377.08578491213933
  0.10330000000000003          510.91467285160530
  0.10440000000000002          639.42993164068025
  0.10550000000000001          761.10107421881708
  0.10660000000000003          874.25640869148435
  0.10770000000000002          977.29547119149447
  0.10880000000000001          1068.9835205079098
  0.10990000000000003          1148.5107421876053
  0.11100000000000002          1215.2940673829246
  0.11210000000000001          1268.7213134766803
  0.11320000000000002          1308.1539306641846
  0.11430000000000001          1333.1560058595001
  0.11540000000000003          1343.7603759766891
  0.11650000000000002          1340.4788818360644
  0.11760000000000001          1324.0317382813757
  0.11870000000000003          1295.0460205079360
  0.11980000000000002          1254.0078125001201
  0.12090000000000001          1201.5058593751155
  0.12200000000000003          1138.5281982422975
  0.12310000000000001          1066.4822998047912
  0.12420000000000003          986.88897705087766
  0.12530000000000002          901.05798339852606
  0.12640000000000001          809.99206542976776
  0.12750000000000003          714.63891601569640
  0.12860000000000002          616.20263671881230
  0.12970000000000001          516.21649169927173
  0.13080000000000003          416.23400878910610
  0.13190000000000002          317.46746826175303
  0.13300000000000001          220.65219116213447
  0.13410000000000000          126.32621765138330
  0.13520000000000004          35.206577301032837
  0.13630000000000003         -51.667484283448090
  0.13740000000000002         -133.15165710450080
  0.13850000000000001         -208.44903564454714
  0.13960000000000000         -277.29840087892882
  0.14070000000000005         -339.75442504885689
  0.14180000000000004         -395.77728271487803
  0.14290000000000003         -444.97015380863292
  0.14400000000000002         -486.76797485355894
  0.14510000000000001         -520.87615966801559
  0.14620000000000000         -547.51037597661229
  0.14730000000000004         -567.23352050786457
  0.14840000000000003         -580.50024414067866
  0.14950000000000002         -587.34002685552343
  0.15060000000000001         -587.51092529302377
  0.15170000000000000         -580.95709228521093
  0.15280000000000005         -568.16662597661650
  0.15390000000000004         -550.04840087895900
  0.15500000000000003         -527.46936035161355
  0.15610000000000002         -500.86654663090826
  0.15720000000000001         -470.34197998051508
  0.15830000000000000         -436.11367797855905
  0.15940000000000004         -398.86621093754025
  0.16050000000000003         -359.65600585941189
  0.16160000000000002         -319.42550659183024
  0.16270000000000001         -278.61135864260774
  0.16380000000000000         -237.25720214846331
  0.16490000000000005         -195.54080200197507
  0.16600000000000004         -154.19122314454935
  0.16710000000000003         -114.32946014405739
  0.16820000000000002         -76.931488037120246
  0.16930000000000001         -42.360134124763292
  0.17040000000000000         -10.433379173282949
  0.17150000000000004          18.943536758421789
  0.17260000000000003          45.416709899904049
  0.17370000000000002          68.244964599613496
  0.17480000000000001          86.861465454107758
  0.17590000000000000          101.38774108887516
  0.17700000000000005          112.42821502686496
  0.17810000000000004          120.51689147950289
  0.17920000000000003          125.57914733887873
  0.18030000000000002          127.18299102784404
  0.18140000000000001          125.10103607178951
  0.18250000000000000          119.83142852784414
  0.18360000000000004          112.36267852784390
  0.18470000000000003          103.54467773438641
  0.18580000000000002          93.551780700694295
  0.18690000000000001          82.098678588876936
  0.18800000000000000          69.150650024422703
  0.18910000000000005          55.330368041999705
  0.19020000000000004          41.727931976324761
  0.19130000000000003          29.098539352422272
  0.19240000000000002          17.446243286136916
  0.19350000000000001          6.2742090225248575
  0.19460000000000005         -4.6298542022688016
  0.19570000000000004         -14.771703720092113
  0.19680000000000003         -23.290962219238502
  0.19790000000000002         -29.724479675293956
  0.19900000000000001         -34.414710998536862
  0.20010000000000000         -38.089149475100044
  0.20120000000000005         -41.087196350100612
  0.20230000000000004         -42.981903076175207
  0.20340000000000003         -43.073802948001564
  0.20450000000000002         -41.219352722171536
  0.20560000000000000         -38.133602142337566
  0.20670000000000005         -34.857524871829746
  0.20780000000000004         -31.820764541629480
  0.20890000000000003         -28.561859130862675
