 -0.12000000000000000          0.0000000000000000
 -0.11889999999999999          0.0000000000000000
 -0.11780000000000000          0.0000000000000000
 -0.11670000000000000          0.0000000000000000
 -0.11559999999999999          0.0000000000000000
 -0.11449999999999999          0.0000000000000000
 -0.11340000000000000         -1.9406342179440314E-019
 -0.11230000000000000         -1.1790207487292492E-018
 -0.11119999999999999         -2.3309800769239287E-018
 -0.11009999999999999          3.2043217103540720E-018
 -0.10900000000000000          3.0803540958261956E-017
 -0.10790000000000000          8.7742501879742055E-017
 -0.10679999999999999          1.3049986478931142E-016
 -0.10569999999999999          3.1804264063349070E-017
 -0.10460000000000000         -3.6212532555516509E-016
 -0.10349999999999999         -1.0357219241120892E-015
 -0.10239999999999999         -1.5728319745923226E-015
 -0.10130000000000000         -1.1689279135841479E-015
 -0.10020000000000000          8.5876451239242141E-016
  -9.9099999999999994E-002     4.1888019643871744E-015
  -9.7999999999999990E-002     6.9314391669386208E-015
  -9.6899999999999986E-002     6.2867416384760830E-015
  -9.5799999999999996E-002     6.5839770404917444E-016
  -9.4699999999999993E-002    -7.9943003443175396E-015
  -9.3599999999999989E-002    -1.3938381156728194E-014
  -9.2499999999999999E-002    -1.1291132993048045E-014
  -9.1399999999999995E-002    -1.5458418785353110E-016
  -9.0299999999999991E-002     9.7680102057537549E-015
  -8.9200000000000002E-002     3.8124571791007153E-015
  -8.8099999999999984E-002    -2.4089820307827080E-014
  -8.6999999999999994E-002    -5.7440807481581665E-014
  -8.5899999999999990E-002    -5.7325048570862036E-014
  -8.4799999999999986E-002     1.4111314791401875E-014
  -8.3699999999999997E-002     1.5535794493321038E-013
  -8.2599999999999993E-002     2.9989717848822140E-013
  -8.1499999999999989E-002     3.3303186055227179E-013
  -8.0399999999999999E-002     1.5699727217044729E-013
  -7.9299999999999995E-002    -2.2853038363604196E-013
  -7.8199999999999992E-002    -6.8717774526214272E-013
  -7.7100000000000002E-002    -9.8810217820368813E-013
  -7.5999999999999984E-002    -9.1766264725946769E-013
  -7.4899999999999994E-002    -3.9754359743359036E-013
  -7.3799999999999991E-002     4.6110082982729276E-013
  -7.2699999999999987E-002     1.3932574711993594E-012
  -7.1599999999999997E-002     2.0719816921226928E-012
  -7.0499999999999993E-002     2.2016470677816124E-012
  -6.9399999999999989E-002     1.5892009930241332E-012
  -6.8300000000000000E-002     2.1362206166324866E-013
  -6.7199999999999996E-002    -1.6906566207773466E-012
  -6.6099999999999992E-002    -3.5836028155352615E-012
  -6.5000000000000002E-002    -4.7056260797652358E-012
  -6.3899999999999985E-002    -4.3626179058174803E-012
  -6.2799999999999995E-002    -2.3232431603510901E-012
  -6.1699999999999991E-002     9.1143433945998039E-013
  -6.0599999999999994E-002     4.2082080008168137E-012
  -5.9499999999999990E-002     6.3058135102432309E-012
  -5.8399999999999994E-002     6.4597381263515213E-012
  -5.7299999999999990E-002     4.8126038744428290E-012
  -5.6199999999999986E-002     2.2231760703203755E-012
  -5.5099999999999996E-002    -3.4018295992630352E-013
  -5.3999999999999992E-002    -2.4118294167371356E-012
  -5.2899999999999989E-002    -4.2021512138000296E-012
  -5.1799999999999985E-002    -6.2091208910543852E-012
  -5.0699999999999995E-002    -8.5654382891990594E-012
  -4.9599999999999991E-002    -1.0617362024290217E-011
  -4.8499999999999988E-002    -1.1062637784997323E-011
  -4.7399999999999998E-002    -8.5750165648704149E-012
  -4.6299999999999994E-002    -2.5109382888872320E-012
  -4.5199999999999990E-002     6.7439821088706846E-012
  -4.4099999999999986E-002     1.7978984620525980E-011
  -4.2999999999999997E-002     2.9761398206984127E-011
  -4.1899999999999993E-002     4.1087043489706765E-011
  -4.0799999999999989E-002     5.1770764758485519E-011
  -3.9699999999999985E-002     6.2497437780529634E-011
  -3.8599999999999995E-002     7.4695194474118397E-011
  -3.7499999999999992E-002     9.0481164227719792E-011
  -3.6399999999999988E-002     1.1279422534871319E-010
  -3.5299999999999984E-002     1.4554885074957970E-010
  -3.4199999999999994E-002     1.9343536494798390E-010
  -3.3099999999999991E-002     2.6108487594101410E-010
  -3.1999999999999987E-002     3.5176411783411461E-010
  -3.0899999999999997E-002     4.6631531969155349E-010
  -2.9799999999999993E-002     6.0325916484416915E-010
  -2.8699999999999989E-002     7.6052519837333845E-010
  -2.7599999999999986E-002     9.3831509229148527E-010
  -2.6499999999999996E-002     1.1417651268885850E-009
  -2.5399999999999992E-002     1.3820079525217637E-009
  -2.4299999999999988E-002     1.6750989484393346E-009
  -2.3199999999999985E-002     2.0395096722581039E-009
  -2.2099999999999995E-002     2.4936464004810287E-009
  -2.0999999999999991E-002     3.0546298823708553E-009
  -1.9899999999999987E-002     3.7386507223402979E-009
  -1.8799999999999983E-002     4.5623758104796343E-009
  -1.7699999999999994E-002     5.5446789382074911E-009
  -1.6599999999999990E-002     6.7083494315057446E-009
  -1.5499999999999986E-002     8.0817885717011467E-009
  -1.4399999999999996E-002     9.7006420674007297E-009
  -1.3299999999999992E-002     1.1608936922869036E-008
  -1.2199999999999989E-002     1.3859174252672953E-008
  -1.1099999999999985E-002     1.6511284783860167E-008
  -9.9999999999999950E-003     1.9631077208259948E-008
  -8.8999999999999913E-003     2.3289201678267336E-008
  -7.7999999999999875E-003     2.7561323889813426E-008
  -6.6999999999999837E-003     3.2529410276538659E-008
  -5.5999999999999939E-003     3.8283513248416441E-008
  -4.4999999999999901E-003     4.4923464059821060E-008
  -3.3999999999999864E-003     5.2560206853514108E-008
  -2.2999999999999826E-003     6.1316768551478745E-008
  -1.1999999999999927E-003     7.1328649653424456E-008
  -9.9999999999988987E-005     8.2743376594863406E-008
   1.0000000000000148E-003     9.5719144610485237E-008
   2.1000000000000185E-003     1.1042337177968974E-007
   3.2000000000000084E-003     1.2703193874585964E-007
   4.3000000000000121E-003     1.4572975715054906E-007
   5.4000000000000159E-003     1.6671184255301484E-007
   6.5000000000000058E-003     1.9018344232790857E-007
   7.6000000000000234E-003     2.1635825930843744E-007
   8.7000000000000133E-003     2.4545479959670248E-007
   9.8000000000000032E-003     2.7769223720497611E-007
   1.0900000000000021E-002     3.1328681870945973E-007
   1.2000000000000011E-002     3.5244929108557969E-007
   1.3100000000000001E-002     3.9538218743473704E-007
   1.4200000000000018E-002     4.4227641637917582E-007
   1.5300000000000008E-002     4.9330645879308937E-007
   1.6400000000000026E-002     5.4862528031663197E-007
   1.7500000000000016E-002     6.0835805015813517E-007
   1.8600000000000005E-002     6.7259583147461389E-007
   1.9700000000000023E-002     7.4138768013654531E-007
   2.0800000000000013E-002     8.1473200452820102E-007
   2.1900000000000003E-002     8.9256923274661510E-007
   2.3000000000000020E-002     9.7477561666892736E-007
   2.4100000000000010E-002     1.0611598781906714E-006
   2.5200000000000000E-002     1.1514579227878196E-006
   2.6300000000000018E-002     1.2453261888367776E-006
   2.7400000000000008E-002     1.3423319842331768E-006
   2.8500000000000025E-002     1.4419429135159666E-006
   2.9600000000000015E-002     1.5435192608492879E-006
   3.0700000000000005E-002     1.6463085330542609E-006
   3.1800000000000023E-002     1.7494429584985567E-006
   3.2900000000000013E-002     1.8519369859859669E-006
   3.4000000000000002E-002     1.9526839878381086E-006
   3.5100000000000020E-002     2.0504542135313475E-006
   3.6200000000000010E-002     2.1438952444441473E-006
   3.7300000000000028E-002     2.2315346086543375E-006
   3.8400000000000017E-002     2.3117831915442451E-006
   3.9500000000000007E-002     2.3829368274164238E-006
   4.0600000000000025E-002     2.4431783458567309E-006
   4.1700000000000015E-002     2.4905805275921088E-006
   4.2800000000000005E-002     2.5231161089323067E-006
   4.3900000000000022E-002     2.5386734705534831E-006
   4.5000000000000012E-002     2.5350746000185668E-006
   4.6100000000000002E-002     2.5100948732870212E-006
   4.7200000000000020E-002     2.4614810172352047E-006
   4.8300000000000010E-002     2.3869686174293777E-006
   4.9400000000000027E-002     2.2843039459985465E-006
   5.0500000000000017E-002     2.1512689727387628E-006
   5.1600000000000007E-002     1.9857068309647721E-006
   5.2700000000000025E-002     1.7855509213404707E-006
   5.3800000000000014E-002     1.5488539020225247E-006
   5.4900000000000004E-002     1.2738208852169862E-006
   5.6000000000000022E-002     9.5884877282514173E-007
   5.7100000000000012E-002     6.0256820688663484E-007
   5.8200000000000002E-002     2.0388685584292688E-007
   5.9300000000000019E-002    -2.3797039716556822E-007
   6.0400000000000009E-002    -7.2342231760559795E-007
   6.1500000000000027E-002    -1.2524917565315445E-006
   6.2600000000000017E-002    -1.8247635580337577E-006
   6.3700000000000007E-002    -2.4393409603362895E-006
   6.4800000000000024E-002    -3.0948033327149710E-006
   6.5900000000000014E-002    -3.7891668398515592E-006
   6.7000000000000004E-002    -4.5198466978036164E-006
   6.8100000000000022E-002    -5.2836226132058378E-006
   6.9200000000000012E-002    -6.0766024034819896E-006
   7.0300000000000029E-002    -6.8941958488722213E-006
   7.1400000000000019E-002    -7.7310915003181808E-006
   7.2500000000000009E-002    -8.5812498582527431E-006
   7.3600000000000027E-002    -9.4379020083579624E-006
   7.4700000000000016E-002    -1.0293557352270040E-005
   7.5800000000000006E-002    -1.1140024071210105E-005
   7.6900000000000024E-002    -1.1968439139309382E-005
   7.8000000000000014E-002    -1.2769316526828376E-005
   7.9100000000000004E-002    -1.3532614502764815E-005
   8.0200000000000021E-002    -1.4247812032408587E-005
   8.1300000000000011E-002    -1.4904001545801335E-005
   8.2400000000000029E-002    -1.5489995348616544E-005
   8.3500000000000019E-002    -1.5994446584954895E-005
   8.4600000000000009E-002    -1.6405998394475356E-005
   8.5700000000000026E-002    -1.6713438526494462E-005
   8.6800000000000016E-002    -1.6905882148421400E-005
   8.7900000000000006E-002    -1.6972950106719536E-005
   8.9000000000000024E-002    -1.6904954463825585E-005
   9.0100000000000013E-002    -1.6693100405973399E-005
   9.1200000000000003E-002    -1.6329691788996587E-005
   9.2300000000000021E-002    -1.5808327589184059E-005
   9.3400000000000011E-002    -1.5124104720598557E-005
   9.4500000000000028E-002    -1.4273800843511708E-005
   9.5600000000000018E-002    -1.3256038073450322E-005
   9.6700000000000008E-002    -1.2071433957316901E-005
   9.7800000000000026E-002    -1.0722733350121398E-005
   9.8900000000000016E-002    -9.2149148258613185E-006
  0.10000000000000001         -7.5552666203293187E-006
  0.10110000000000002         -5.7534166444383663E-006
  0.10220000000000001         -3.8213233892747243E-006
  0.10330000000000003         -1.7732270407577269E-006
  0.10440000000000002          3.7443609812731471E-007
  0.10550000000000001          2.6031636934931729E-006
  0.10660000000000003          4.8925635383057552E-006
  0.10770000000000002          7.2205762080557839E-006
  0.10880000000000001          9.5637442427688025E-006
  0.10990000000000003          1.1897514013981052E-005
  0.11100000000000002          1.4196562915458417E-005
  0.11210000000000001          1.6435158613603637E-005
  0.11320000000000002          1.8587534214020781E-005
  0.11430000000000001          2.0628291167668141E-005
  0.11540000000000003          2.2532802177011110E-005
  0.11650000000000002          2.4277613192680363E-005
  0.11760000000000001          2.5840830858214829E-005
  0.11870000000000003          2.7202500859857601E-005
  0.11980000000000002          2.8344955353532051E-005
  0.12090000000000001          2.9253131287987402E-005
  0.12200000000000003          2.9914855986135128E-005
  0.12310000000000001          3.0321065423777374E-005
  0.12420000000000003          3.0465986128547266E-005
  0.12530000000000002          3.0347240681294382E-005
  0.12640000000000001          2.9965909561724429E-005
  0.12750000000000003          2.9326531148399243E-005
  0.12860000000000002          2.8437027140171277E-005
  0.12970000000000001          2.7308582502882931E-005
  0.13080000000000003          2.5955449018510986E-005
  0.13190000000000002          2.4394708816544146E-005
  0.13300000000000001          2.2645983335678452E-005
  0.13410000000000000          2.0731115000671683E-005
  0.13520000000000004          1.8673790691536824E-005
  0.13630000000000003          1.6499143384862657E-005
  0.13740000000000002          1.4233331967261583E-005
  0.13850000000000001          1.1903109225386247E-005
  0.13960000000000000          9.5354007498826391E-006
  0.14070000000000005          7.1568879320693194E-006
  0.14180000000000004          4.7936036935424872E-006
  0.14290000000000003          2.4705443593119931E-006
  0.14400000000000002          2.1131388905354776E-007
  0.14510000000000001         -1.9621891169663803E-006
  0.14620000000000000         -4.0300383261638279E-006
  0.14730000000000004         -5.9744997997768723E-006
  0.14840000000000003         -7.7802105806768432E-006
  0.14950000000000002         -9.4343131422647749E-006
  0.15060000000000001         -1.0926542017841756E-005
  0.15170000000000000         -1.2249246537976473E-005
  0.15280000000000005         -1.3397369912127072E-005
  0.15390000000000004         -1.4368375559570305E-005
  0.15500000000000003         -1.5162144336500237E-005
  0.15610000000000002         -1.5780837202328288E-005
  0.15720000000000001         -1.6228734239120995E-005
  0.15830000000000000         -1.6512027286808027E-005
  0.15940000000000004         -1.6638594388496148E-005
  0.16050000000000003         -1.6617757864878526E-005
  0.16160000000000002         -1.6460047845612290E-005
  0.16270000000000001         -1.6176960343727849E-005
  0.16380000000000000         -1.5780717149027630E-005
  0.16490000000000005         -1.5284027540474202E-005
  0.16600000000000004         -1.4699859093525447E-005
  0.16710000000000003         -1.4041219401406123E-005
  0.16820000000000002         -1.3320959624252275E-005
  0.16930000000000001         -1.2551606232591432E-005
  0.17040000000000000         -1.1745210940716780E-005
  0.17150000000000004         -1.0913216101471326E-005
  0.17260000000000003         -1.0066338290926059E-005
  0.17370000000000002         -9.2144791778991795E-006
  0.17480000000000001         -8.3666682257898948E-006
  0.17590000000000000         -7.5310244938009291E-006
  0.17700000000000005         -6.7147348090656906E-006
  0.17810000000000004         -5.9240455811959564E-006
  0.17920000000000003         -5.1642659855133270E-006
  0.18030000000000002         -4.4397916099114691E-006
  0.18140000000000001         -3.7541433357546212E-006
  0.18250000000000000         -3.1100184969545685E-006
  0.18360000000000004         -2.5093456770264196E-006
  0.18470000000000003         -1.9533406430127688E-006
  0.18580000000000002         -1.4425689869312817E-006
  0.18690000000000001         -9.7701285994843558E-007
  0.18800000000000000         -5.5614401617275720E-007
  0.18910000000000005         -1.7899233739625837E-007
  0.19020000000000004          1.5579308865199731E-007
  0.19130000000000003          4.4988851755079618E-007
  0.19240000000000002          7.0523947215406828E-007
  0.19350000000000001          9.2400102857937423E-007
  0.19460000000000005          1.1084777042924592E-006
  0.19570000000000004          1.2610720432348941E-006
  0.19680000000000003          1.3842446833223257E-006
  0.19790000000000002          1.4804824104430766E-006
  0.19900000000000001          1.5522667808909344E-006
  0.20010000000000000          1.6020395605664838E-006
  0.20120000000000005          1.6321719158440845E-006
  0.20230000000000004          1.6449420172648401E-006
  0.20340000000000003          1.6425256035290669E-006
  0.20450000000000002          1.6269899560938947E-006
  0.20560000000000000          1.6002850315999246E-006
  0.20670000000000005          1.5642275457139480E-006
  0.20780000000000004          1.5204861938400429E-006
  0.20890000000000003          1.4705764215250381E-006
