 -0.12000000000000000          0.0000000000000000
 -0.11889999999999999          0.0000000000000000
 -0.11780000000000000          0.0000000000000000
 -0.11670000000000000          0.0000000000000000
 -0.11559999999999999          0.0000000000000000
 -0.11449999999999999          0.0000000000000000
 -0.11340000000000000          0.0000000000000000
 -0.11230000000000000          0.0000000000000000
 -0.11119999999999999         -4.6678572147039543E-023
 -0.11009999999999999          1.7237427407893638E-022
 -0.10900000000000000          3.4604515275820832E-021
 -0.10790000000000000          1.1479225607891689E-020
 -0.10679999999999999         -1.1920627438889626E-020
 -0.10569999999999999         -1.8602784035723693E-019
 -0.10460000000000000         -5.0963021469455670E-019
 -0.10349999999999999         -9.1406249421593207E-020
 -0.10239999999999999          3.2813775135225704E-018
 -0.10130000000000000          9.8927054133169371E-018
 -0.10020000000000000          9.1583725157996938E-018
  -9.9099999999999994E-002    -2.4343776534928010E-017
  -9.7999999999999990E-002    -1.0220416008601047E-016
  -9.6899999999999986E-002    -1.4982842872670129E-016
  -9.5799999999999996E-002     3.3226548187071174E-017
  -9.4699999999999993E-002     6.0696941044236538E-016
  -9.3599999999999989E-002     1.2490356310541685E-015
  -9.2499999999999999E-002     8.2787052088851690E-016
  -9.1399999999999995E-002    -1.9332076477159216E-015
  -9.0299999999999991E-002    -6.3546482698576520E-015
  -8.9200000000000002E-002    -7.7793691220839522E-015
  -8.8099999999999984E-002     7.0421350440850452E-016
  -8.6999999999999994E-002     2.0369146771843615E-014
  -8.5899999999999990E-002     3.7340305679294326E-014
  -8.4799999999999986E-002     2.4322856012267722E-014
  -8.3699999999999997E-002    -3.5773721631482026E-014
  -8.2599999999999993E-002    -1.1471493243168228E-013
  -8.1499999999999989E-002    -1.3060975640865929E-013
  -8.0399999999999999E-002    -4.6875726566914102E-015
  -7.9299999999999995E-002     2.3338728410810402E-013
  -7.8199999999999992E-002     3.9025878882661560E-013
  -7.7100000000000002E-002     2.1988544340359142E-013
  -7.5999999999999984E-002    -3.0924712118333330E-013
  -7.4899999999999994E-002    -8.1616544035314943E-013
  -7.3799999999999991E-002    -6.8774228933344296E-013
  -7.2699999999999987E-002     3.1552419097605522E-013
  -7.1599999999999997E-002     1.4996522903696221E-012
  -7.0499999999999993E-002     1.4750085918295199E-012
  -6.9399999999999989E-002    -5.4957660601181412E-013
  -6.8300000000000000E-002    -3.3274342482735534E-012
  -6.7199999999999996E-002    -3.7127688076732003E-012
  -6.6099999999999992E-002     7.1069137987792109E-013
  -6.5000000000000002E-002     8.0807617541810004E-012
  -6.3899999999999985E-002     1.1509542451048799E-011
  -6.2799999999999995E-002     3.8563431961618302E-012
  -6.1699999999999991E-002    -1.4118705336796979E-011
  -6.0599999999999994E-002    -2.9575480953170041E-011
  -5.9499999999999990E-002    -2.4435743359306530E-011
  -5.8399999999999994E-002     8.1962379591708620E-012
  -5.7299999999999990E-002     5.0816177654680518E-011
  -5.6199999999999986E-002     6.7238069278997017E-011
  -5.5099999999999996E-002     3.0235113024353826E-011
  -5.3999999999999992E-002    -4.7717295392775521E-011
  -5.2899999999999989E-002    -1.1077853218078490E-010
  -5.1799999999999985E-002    -9.7686130018373377E-011
  -5.0699999999999995E-002     1.2390537814573063E-012
  -4.9599999999999991E-002     1.1841962133109168E-010
  -4.8499999999999988E-002     1.5112350260083997E-010
  -4.7399999999999998E-002     5.1433586556468030E-011
  -4.6299999999999994E-002    -1.1101546071313016E-010
  -4.5199999999999990E-002    -1.8531468026773845E-010
  -4.4099999999999986E-002    -6.8674295417036132E-011
  -4.2999999999999997E-002     1.7324759682411395E-010
  -4.1899999999999993E-002     3.1969213387660307E-010
  -4.0799999999999989E-002     1.6969775584740861E-010
  -3.9699999999999985E-002    -2.4714588708894795E-010
  -3.8599999999999995E-002    -6.2241956033656419E-010
  -3.7499999999999992E-002    -5.7805782383008847E-010
  -3.6399999999999988E-002    -3.3798671326464065E-012
  -3.5299999999999984E-002     7.6662587389367147E-010
  -3.4199999999999994E-002     1.1383820552879069E-009
  -3.3099999999999991E-002     7.2340766710245574E-010
  -3.1999999999999987E-002    -2.8615532166056519E-010
  -3.0899999999999997E-002    -1.1855840753584070E-009
  -2.9799999999999993E-002    -1.2832191975675995E-009
  -2.8699999999999989E-002    -4.8416171072308094E-010
  -2.7599999999999986E-002     5.7952259657788275E-010
  -2.6499999999999996E-002     1.0424855423354402E-009
  -2.5399999999999992E-002     5.4989240938510633E-010
  -2.4299999999999988E-002    -3.9346315094947598E-010
  -2.3199999999999985E-002    -8.2572437776225030E-010
  -2.2099999999999995E-002    -1.9103839343809027E-010
  -2.0999999999999991E-002     1.0799005023540178E-009
  -1.9899999999999987E-002     1.8338539575777787E-009
  -1.8799999999999983E-002     1.1545758793473965E-009
  -1.7699999999999994E-002    -7.7246009588789727E-010
  -1.6599999999999990E-002    -2.6649431550393206E-009
  -1.5499999999999986E-002    -3.0865527911313027E-009
  -1.4399999999999996E-002    -1.5867799296739300E-009
  -1.3299999999999992E-002     9.0439244981881547E-010
  -1.2199999999999989E-002     2.7656665846363896E-009
  -1.1099999999999985E-002     2.8985995825788217E-009
  -9.9999999999999950E-003     1.4887187038675983E-009
  -8.8999999999999913E-003    -2.5745924836553363E-010
  -7.7999999999999875E-003    -1.1151320977733459E-009
  -6.6999999999999837E-003    -7.4058165155917915E-010
  -5.5999999999999939E-003     1.9981429011426307E-010
  -4.4999999999999901E-003     6.5647909330884743E-010
  -3.3999999999999864E-003     6.3211315525754222E-012
  -2.2999999999999826E-003    -1.5389451935020826E-009
  -1.1999999999999927E-003    -3.0939273365506068E-009
  -9.9999999999988987E-005    -3.6055975982665397E-009
   1.0000000000000148E-003    -2.3980732954955148E-009
   2.1000000000000185E-003     4.2935435762285668E-010
   3.2000000000000084E-003     3.8772745014628081E-009
   4.3000000000000121E-003     6.3560054996971982E-009
   5.4000000000000159E-003     6.4820637746266088E-009
   6.5000000000000058E-003     4.0210745844145754E-009
   7.6000000000000234E-003     2.6020868792922838E-010
   8.7000000000000133E-003    -2.7363811216939013E-009
   9.8000000000000032E-003    -3.6822342952555238E-009
   1.0900000000000021E-002    -3.2248848036433791E-009
   1.2000000000000011E-002    -3.5084712912685573E-009
   1.3100000000000001E-002    -6.1776179727230755E-009
   1.4200000000000018E-002    -1.0398904848327692E-008
   1.5300000000000008E-002    -1.2844770580497771E-008
   1.6400000000000026E-002    -1.0129948435631419E-008
   1.7500000000000016E-002    -1.9534254214187982E-009
   1.8600000000000005E-002     7.7973787426788339E-009
   1.9700000000000023E-002     1.3312246416316875E-008
   2.0800000000000013E-002     1.0980912179544918E-008
   2.1900000000000003E-002     2.0551591539663545E-009
   2.3000000000000020E-002    -8.4540356937171800E-009
   2.4100000000000010E-002    -1.5801521868750284E-008
   2.5200000000000000E-002    -1.9054626321231194E-008
   2.6300000000000018E-002    -2.1145297068864361E-008
   2.7400000000000008E-002    -2.5495372923950905E-008
   2.8500000000000025E-002    -3.2334966704180087E-008
   2.9600000000000015E-002    -3.8092085929972672E-008
   3.0700000000000005E-002    -3.8459539553058420E-008
   3.1800000000000023E-002    -3.2469884558849073E-008
   3.2900000000000013E-002    -2.4072647875071389E-008
   3.4000000000000002E-002    -1.9949327523246931E-008
   3.5100000000000020E-002    -2.5457072894137125E-008
   3.6200000000000010E-002    -4.1840262809949263E-008
   3.7300000000000028E-002    -6.6344142624066652E-008
   3.8400000000000017E-002    -9.4349033474816714E-008
   3.9500000000000007E-002    -1.2150677264342936E-007
   4.0600000000000025E-002    -1.4477296872426710E-007
   4.1700000000000015E-002    -1.6272451830444039E-007
   4.2800000000000005E-002    -1.7586074818607734E-007
   4.3900000000000022E-002    -1.8664640322183694E-007
   4.5000000000000012E-002    -1.9845759879897342E-007
   4.6100000000000002E-002    -2.1351443990622355E-007
   4.7200000000000020E-002    -2.3146925798297978E-007
   4.8300000000000010E-002    -2.5045954998855859E-007
   4.9400000000000027E-002    -2.7024756832357510E-007
   5.0500000000000017E-002    -2.9441073934317988E-007
   5.1600000000000007E-002    -3.2847492548166984E-007
   5.2700000000000025E-002    -3.7432761246231769E-007
   5.3800000000000014E-002    -4.2541958578107490E-007
   5.4900000000000004E-002    -4.6780854745514709E-007
   5.6000000000000022E-002    -4.8765133442423388E-007
   5.7100000000000012E-002    -4.7980347517288604E-007
   5.8200000000000002E-002    -4.5031509898755490E-007
   5.9300000000000019E-002    -4.1026743247122389E-007
   6.0400000000000009E-002    -3.6585763041322656E-007
   6.1500000000000027E-002    -3.1304736580743361E-007
   6.2600000000000017E-002    -2.4102777729233295E-007
   6.3700000000000007E-002    -1.4075625642811083E-007
   6.4800000000000024E-002    -1.0156641749797485E-008
   6.5900000000000014E-002     1.4911927337385473E-007
   6.7000000000000004E-002     3.4020212069667777E-007
   6.8100000000000022E-002     5.7634775885165797E-007
   6.9200000000000012E-002     8.7736157183827695E-007
   7.0300000000000029E-002     1.2596302667588904E-006
   7.1400000000000019E-002     1.7283736042372292E-006
   7.2500000000000009E-002     2.2787089619668255E-006
   7.3600000000000027E-002     2.9041248126303353E-006
   7.4700000000000016E-002     3.6047672438142312E-006
   7.5800000000000006E-002     4.3889572225450325E-006
   7.6900000000000024E-002     5.2680829867309889E-006
   7.8000000000000014E-002     6.2508561313730316E-006
   7.9100000000000004E-002     7.3420919761696964E-006
   8.0200000000000021E-002     8.5454112195287422E-006
   8.1300000000000011E-002     9.8651489679461664E-006
   8.2400000000000029E-002     1.1304337022010330E-005
   8.3500000000000019E-002     1.2860845345129680E-005
   8.4600000000000009E-002     1.4526592167384263E-005
   8.5700000000000026E-002     1.6291462088700959E-005
   8.6800000000000016E-002     1.8147506125386279E-005
   8.7900000000000006E-002     2.0087903976671624E-005
   8.9000000000000024E-002     2.2100461137595623E-005
   9.0100000000000013E-002     2.4161810870280333E-005
   9.1200000000000003E-002     2.6239440558126771E-005
   9.2300000000000021E-002     2.8301416023166290E-005
   9.3400000000000011E-002     3.0325280022222717E-005
   9.4500000000000028E-002     3.2296906283588117E-005
   9.5600000000000018E-002     3.4198958019257295E-005
   9.6700000000000008E-002     3.5998909879705451E-005
   9.7800000000000026E-002     3.7648133002218196E-005
   9.8900000000000016E-002     3.9093647501427855E-005
  0.10000000000000001          4.0292085031975093E-005
  0.10110000000000002          4.1212922951668404E-005
  0.10220000000000001          4.1828268876993837E-005
  0.10330000000000003          4.2100040445798749E-005
  0.10440000000000002          4.1978419176298832E-005
  0.10550000000000001          4.1414841689398226E-005
  0.10660000000000003          4.0378377889279044E-005
  0.10770000000000002          3.8860111089885091E-005
  0.10880000000000001          3.6861049011345951E-005
  0.10990000000000003          3.4375050745435240E-005
  0.11100000000000002          3.1382955057776013E-005
  0.11210000000000001          2.7864010917252629E-005
  0.11320000000000002          2.3814172891431588E-005
  0.11430000000000001          1.9254533981436412E-005
  0.11540000000000003          1.4223109246811808E-005
  0.11650000000000002          8.7585949586341033E-006
  0.11760000000000001          2.8927922812718132E-006
  0.11870000000000003         -3.3413200526414292E-006
  0.11980000000000002         -9.8947703008886646E-006
  0.12090000000000001         -1.6696267266524078E-005
  0.12200000000000003         -2.3661528757655403E-005
  0.12310000000000001         -3.0709456041220256E-005
  0.12420000000000003         -3.7770052585980796E-005
  0.12530000000000002         -4.4777400034941941E-005
  0.12640000000000001         -5.1656505092974303E-005
  0.12750000000000003         -5.8318513765693481E-005
  0.12860000000000002         -6.4670457504684245E-005
  0.12970000000000001         -7.0631540438619931E-005
  0.13080000000000003         -7.6140735473011540E-005
  0.13190000000000002         -8.1149599282063879E-005
  0.13300000000000001         -8.5608218796543652E-005
  0.13410000000000000         -8.9459703303865543E-005
  0.13520000000000004         -9.2649883299591985E-005
  0.13630000000000003         -9.5143557700785557E-005
  0.13740000000000002         -9.6932722954070645E-005
  0.13850000000000001         -9.8030330264000509E-005
  0.13960000000000000         -9.8457152489563656E-005
  0.14070000000000005         -9.8235788755109699E-005
  0.14180000000000004         -9.7398005891582203E-005
  0.14290000000000003         -9.5997347671063918E-005
  0.14400000000000002         -9.4113587692836736E-005
  0.14510000000000001         -9.1843889094880477E-005
  0.14620000000000000         -8.9288500021203333E-005
  0.14730000000000004         -8.6544736404895007E-005
  0.14840000000000003         -8.3714534412130209E-005
  0.14950000000000002         -8.0916863225858425E-005
  0.15060000000000001         -7.8290999226730354E-005
  0.15170000000000000         -7.5984768045593334E-005
  0.15280000000000005         -7.4136609327972433E-005
  0.15390000000000004         -7.2866110713214356E-005
  0.15500000000000003         -7.2280003223561547E-005
  0.15610000000000002         -7.2486211138305173E-005
  0.15720000000000001         -7.3600800533306691E-005
  0.15830000000000000         -7.5739451858673973E-005
  0.15940000000000004         -7.8999888501123133E-005
  0.16050000000000003         -8.3448714576654377E-005
  0.16160000000000002         -8.9121640485238104E-005
  0.16270000000000001         -9.6033480076576820E-005
  0.16380000000000000         -1.0418447345727176E-004
  0.16490000000000005         -1.1355422611813040E-004
  0.16600000000000004         -1.2408624752423619E-004
  0.16710000000000003         -1.3567588757722434E-004
  0.16820000000000002         -1.4817346527705590E-004
  0.16930000000000001         -1.6139986109918494E-004
  0.17040000000000000         -1.7515999206805993E-004
  0.17150000000000004         -1.8924151663666857E-004
  0.17260000000000003         -2.0339811453594034E-004
  0.17370000000000002         -2.1733087487516939E-004
  0.17480000000000001         -2.3068544396662977E-004
  0.17590000000000000         -2.4306790146508961E-004
  0.17700000000000005         -2.5406872737219224E-004
  0.17810000000000004         -2.6327706291338004E-004
  0.17920000000000003         -2.7027475880456582E-004
  0.18030000000000002         -2.7462083380666932E-004
  0.18140000000000001         -2.7584563940761023E-004
  0.18250000000000000         -2.7346640126777220E-004
  0.18360000000000004         -2.6701879687604871E-004
  0.18470000000000003         -2.5608434225430222E-004
  0.18580000000000002         -2.4029529595279690E-004
  0.18690000000000001         -2.1932057279625689E-004
  0.18800000000000000         -1.9285501912234335E-004
  0.18910000000000005         -1.6063365910666302E-004
  0.19020000000000004         -1.2246984988449687E-004
  0.19130000000000003         -7.8290489909695193E-005
  0.19240000000000002         -2.8143271265429581E-005
  0.19350000000000001          2.7826910809381720E-005
  0.19460000000000005          8.9401495642955667E-005
  0.19570000000000004          1.5628043911418801E-004
  0.19680000000000003          2.2803984757045523E-004
  0.19790000000000002          3.0408968450499279E-004
  0.19900000000000001          3.8367306115102777E-004
  0.20010000000000000          4.6590869897041498E-004
  0.20120000000000005          5.4984376765783167E-004
  0.20230000000000004          6.3447083812201790E-004
  0.20340000000000003          7.1869976818555602E-004
  0.20450000000000002          8.0132251605384802E-004
  0.20560000000000000          8.8101933943100287E-004
  0.20670000000000005          9.5641845837227308E-004
  0.20780000000000004          1.0261710267513110E-003
  0.20890000000000003          1.0889881523325098E-003
