 -0.12000000000000000          0.0000000000000000
 -0.11889999999999999          0.0000000000000000
 -0.11780000000000000          0.0000000000000000
 -0.11670000000000000          0.0000000000000000
 -0.11559999999999999          0.0000000000000000
 -0.11449999999999999         -1.0184168537983316E-020
 -0.11340000000000000         -1.2603255977572658E-019
 -0.11230000000000000         -6.6192714186143151E-019
 -0.11119999999999999         -1.9268523032641926E-018
 -0.11009999999999999         -3.0803850323811353E-018
 -0.10900000000000000         -1.1434679056161272E-018
 -0.10790000000000000          6.2903297097452262E-018
 -0.10679999999999999          1.3700843948622013E-017
 -0.10569999999999999          5.5012755059859927E-018
 -0.10460000000000000         -2.5553556304924975E-017
 -0.10349999999999999         -4.7474135359517052E-017
 -0.10239999999999999          2.1929542383709702E-018
 -0.10130000000000000          1.2111169570906585E-016
 -0.10020000000000000          1.3499706710873619E-016
  -9.9099999999999994E-002    -1.9719028920731578E-016
  -9.7999999999999990E-002    -7.4255625071036990E-016
  -9.6899999999999986E-002    -6.1405552926038017E-016
  -9.5799999999999996E-002     1.2516894911570047E-015
  -9.4699999999999993E-002     4.1914493658637073E-015
  -9.3599999999999989E-002     4.2299542130964669E-015
  -9.2499999999999999E-002    -3.7442612859761148E-015
  -9.1399999999999995E-002    -1.8519633390853482E-014
  -9.0299999999999991E-002    -2.5402651919362133E-014
  -8.9200000000000002E-002    -1.6916374510488226E-015
  -8.8099999999999984E-002     5.7977772160034552E-014
  -8.6999999999999994E-002     1.1166433988400726E-013
  -8.5899999999999990E-002     7.5167296161287450E-014
  -8.4799999999999986E-002    -1.0659999765500958E-013
  -8.3699999999999997E-002    -3.5268375676508756E-013
  -8.2599999999999993E-002    -4.1416541962484288E-013
  -8.1499999999999989E-002    -3.1172476031666660E-014
  -8.0399999999999999E-002     7.5252916962101346E-013
  -7.9299999999999995E-002     1.3768643343514686E-012
  -7.8199999999999992E-002     9.9847896877641729E-013
  -7.7100000000000002E-002    -7.6255988286019760E-013
  -7.5999999999999984E-002    -3.0539164946885577E-012
  -7.4899999999999994E-002    -3.8584205275249417E-012
  -7.3799999999999991E-002    -1.3721054457557780E-012
  -7.2699999999999987E-002     3.9921126300523913E-012
  -7.1599999999999997E-002     8.7390598230152605E-012
  -7.0499999999999993E-002     8.0841791594288281E-012
  -6.9399999999999989E-002    -6.8405235631712608E-014
  -6.8300000000000000E-002    -1.1900448508572747E-011
  -6.7199999999999996E-002    -1.8696915543570114E-011
  -6.6099999999999992E-002    -1.2837636335916169E-011
  -6.5000000000000002E-002     5.0746741878104906E-012
  -6.3899999999999985E-002     2.4213053437249776E-011
  -6.2799999999999995E-002     3.0023133285039805E-011
  -6.1699999999999991E-002     1.5561522556661878E-011
  -6.0599999999999994E-002    -1.1420349041446620E-011
  -5.9499999999999990E-002    -3.2819396506011955E-011
  -5.8399999999999994E-002    -3.3909822866329264E-011
  -5.7299999999999990E-002    -1.5318949234122137E-011
  -5.6199999999999986E-002     7.8546570289605988E-012
  -5.5099999999999996E-002     1.9952678398382773E-011
  -5.3999999999999992E-002     1.9019594926783512E-011
  -5.2899999999999989E-002     1.6804771116318840E-011
  -5.1799999999999985E-002     2.3015154018701800E-011
  -5.0699999999999995E-002     2.9620413760644837E-011
  -4.9599999999999991E-002     1.4644558135601393E-011
  -4.8499999999999988E-002    -3.2540851957474359E-011
  -4.7399999999999998E-002    -8.7330614961800279E-011
  -4.6299999999999994E-002    -9.7366573137414036E-011
  -4.5199999999999990E-002    -2.7207045644184191E-011
  -4.4099999999999986E-002     9.3259018563163210E-011
  -4.2999999999999997E-002     1.6774871769431599E-010
  -4.1899999999999993E-002     1.0159108276841522E-010
  -4.0799999999999989E-002    -1.0139011852317026E-010
  -3.9699999999999985E-002    -2.9710700566454307E-010
  -3.8599999999999995E-002    -2.7677915515056384E-010
  -3.7499999999999992E-002     6.4516732234398688E-011
  -3.6399999999999988E-002     5.8278509795783862E-010
  -3.5299999999999984E-002     8.9906698752528769E-010
  -3.4199999999999994E-002     6.1880756074828014E-010
  -3.3099999999999991E-002    -3.4922581493290750E-010
  -3.1999999999999987E-002    -1.5918034668160885E-009
  -3.0899999999999997E-002    -2.3018655870288285E-009
  -2.9799999999999993E-002    -1.7223341641781076E-009
  -2.8699999999999989E-002     2.8971819387990649E-010
  -2.7599999999999986E-002     2.9395914591390238E-009
  -2.6499999999999996E-002     4.7132080460698944E-009
  -2.5399999999999992E-002     4.1563312791481621E-009
  -2.4299999999999988E-002     8.5904394708791187E-010
  -2.3199999999999985E-002    -3.9533047946349598E-009
  -2.2099999999999995E-002    -7.7313311308557786E-009
  -2.0999999999999991E-002    -7.8650561619042492E-009
  -1.9899999999999987E-002    -3.3292248957650372E-009
  -1.8799999999999983E-002     4.2632506414008731E-009
  -1.7699999999999994E-002     1.1026212831666271E-008
  -1.6599999999999990E-002     1.2674789218181104E-008
  -1.5499999999999986E-002     7.0413661568125008E-009
  -1.4399999999999996E-002    -4.2172079162128284E-009
  -1.3299999999999992E-002    -1.5912617001845319E-008
  -1.2199999999999989E-002    -2.1738086886102792E-008
  -1.1099999999999985E-002    -1.7620083170299949E-008
  -9.9999999999999950E-003    -4.1144114781843655E-009
  -8.8999999999999913E-003     1.3647915686476608E-008
  -7.7999999999999875E-003     2.8598815760005891E-008
  -6.6999999999999837E-003     3.5551082078200125E-008
  -5.5999999999999939E-003     3.4024729700377065E-008
  -4.4999999999999901E-003     2.8425953146893335E-008
  -3.3999999999999864E-003     2.5454820473669315E-008
  -2.2999999999999826E-003     3.0263745287584243E-008
  -1.1999999999999927E-003     4.3651425585267134E-008
  -9.9999999999988987E-005     6.1972194487225352E-008
   1.0000000000000148E-003     7.9804642894032440E-008
   2.1000000000000185E-003     9.3731635786298284E-008
   3.2000000000000084E-003     1.0487952550874979E-007
   4.3000000000000121E-003     1.1861953908010037E-007
   5.4000000000000159E-003     1.4162540651341260E-007
   6.5000000000000058E-003     1.7820092068632221E-007
   7.6000000000000234E-003     2.2831552826119150E-007
   8.7000000000000133E-003     2.8870573487438378E-007
   9.8000000000000032E-003     3.5635193285088462E-007
   1.0900000000000021E-002     4.3196132537559606E-007
   1.2000000000000011E-002     5.2095549563091481E-007
   1.3100000000000001E-002     6.3108143422141438E-007
   1.4200000000000018E-002     7.6813904570371960E-007
   1.5300000000000008E-002     9.3284842250795919E-007
   1.6400000000000026E-002     1.1214262940484332E-006
   1.7500000000000016E-002     1.3301240642249468E-006
   1.8600000000000005E-002     1.5612134802722721E-006
   1.9700000000000023E-002     1.8265112657900318E-006
   2.0800000000000013E-002     2.1455846308526816E-006
   2.1900000000000003E-002     2.5388465019204887E-006
   2.3000000000000020E-002     3.0190903999027796E-006
   2.4100000000000010E-002     3.5865214158548042E-006
   2.5200000000000000E-002     4.2308679439884145E-006
   2.6300000000000018E-002     4.9402933655073866E-006
   2.7400000000000008E-002     5.7126944739138708E-006
   2.8500000000000025E-002     6.5630342760414351E-006
   2.9600000000000015E-002     7.5220714279566891E-006
   3.0700000000000005E-002     8.6264226411003619E-006
   3.1800000000000023E-002     9.9048284027958289E-006
   3.2900000000000013E-002     1.1367965271347202E-005
   3.4000000000000002E-002     1.3007418601773679E-005
   3.5100000000000020E-002     1.4804523743805476E-005
   3.6200000000000010E-002     1.6744354070397094E-005
   3.7300000000000028E-002     1.8827355233952403E-005
   3.8400000000000017E-002     2.1072466552141123E-005
   3.9500000000000007E-002     2.3510199753218330E-005
   4.0600000000000025E-002     2.6169269403908402E-005
   4.1700000000000015E-002     2.9063574402243830E-005
   4.2800000000000005E-002     3.2185609597945586E-005
   4.3900000000000022E-002     3.5508845030562952E-005
   4.5000000000000012E-002     3.8997088267933577E-005
   4.6100000000000002E-002     4.2615349229890853E-005
   4.7200000000000020E-002     4.6336514060385525E-005
   4.8300000000000010E-002     5.0140559324063361E-005
   4.9400000000000027E-002     5.4007581638870761E-005
   5.0500000000000017E-002     5.7909168390324339E-005
   5.1600000000000007E-002     6.1803009884897619E-005
   5.2700000000000025E-002     6.5633321355562657E-005
   5.3800000000000014E-002     6.9335197622422129E-005
   5.4900000000000004E-002     7.2838898631744087E-005
   5.6000000000000022E-002     7.6070638897363096E-005
   5.7100000000000012E-002     7.8949691669549793E-005
   5.8200000000000002E-002     8.1385034718550742E-005
   5.9300000000000019E-002     8.3275335782673210E-005
   6.0400000000000009E-002     8.4514191257767379E-005
   6.1500000000000027E-002     8.4998224338050932E-005
   6.2600000000000017E-002     8.4633502410724759E-005
   6.3700000000000007E-002     8.3337006799411029E-005
   6.4800000000000024E-002     8.1032536400016397E-005
   6.5900000000000014E-002     7.7644603152293712E-005
   6.7000000000000004E-002     7.3095041443593800E-005
   6.8100000000000022E-002     6.7304492404218763E-005
   6.9200000000000012E-002     6.0198486607987434E-005
   7.0300000000000029E-002     5.1715567678911611E-005
   7.1400000000000019E-002     4.1815579606918618E-005
   7.2500000000000009E-002     3.0485654860967770E-005
   7.3600000000000027E-002     1.7742480849847198E-005
   7.4700000000000016E-002     3.6319956961960997E-006
   7.5800000000000006E-002    -1.1773169717343990E-005
   7.6900000000000024E-002    -2.8376674890751019E-005
   7.8000000000000014E-002    -4.6059791202424094E-005
   7.9100000000000004E-002    -6.4681349613238126E-005
   8.0200000000000021E-002    -8.4077306382823735E-005
   8.1300000000000011E-002    -1.0406117507955059E-004
   8.2400000000000029E-002    -1.2442468141671270E-004
   8.3500000000000019E-002    -1.4493719208985567E-004
   8.4600000000000009E-002    -1.6534491442143917E-004
   8.5700000000000026E-002    -1.8537142022978514E-004
   8.6800000000000016E-002    -2.0472012693062425E-004
   8.7900000000000006E-002    -2.2308017651084810E-004
   8.9000000000000024E-002    -2.4013531219679862E-004
   9.0100000000000013E-002    -2.5557333719916642E-004
   9.1200000000000003E-002    -2.6909523876383901E-004
   9.2300000000000021E-002    -2.8042233316227794E-004
   9.3400000000000011E-002    -2.8930124244652689E-004
   9.4500000000000028E-002    -2.9550664476118982E-004
   9.5600000000000018E-002    -2.9884258401580155E-004
   9.6700000000000008E-002    -2.9914340120740235E-004
   9.7800000000000026E-002    -2.9627594631165266E-004
   9.8900000000000016E-002    -2.9014475876465440E-004
  0.10000000000000001         -2.8069995460100472E-004
  0.10110000000000002         -2.6794447330757976E-004
  0.10220000000000001         -2.5193780311383307E-004
  0.10330000000000003         -2.3279532615561038E-004
  0.10440000000000002         -2.1068502974230796E-004
  0.10550000000000001         -1.8582594930194318E-004
  0.10660000000000003         -1.5848831390030682E-004
  0.10770000000000002         -1.2899276043754071E-004
  0.10880000000000001         -9.7704003565013409E-005
  0.10990000000000003         -6.5018386521842331E-005
  0.11100000000000002         -3.1351577490568161E-005
  0.11210000000000001          2.8689448754448676E-006
  0.11320000000000002          3.7204743421170861E-005
  0.11430000000000001          7.1205569838639349E-005
  0.11540000000000003          1.0441484482726082E-004
  0.11650000000000002          1.3638389646075666E-004
  0.11760000000000001          1.6668753232806921E-004
  0.11870000000000003          1.9493119907565415E-004
  0.11980000000000002          2.2074911976233125E-004
  0.12090000000000001          2.4380064860451967E-004
  0.12200000000000003          2.6377677568234503E-004
  0.12310000000000001          2.8042035410180688E-004
  0.12420000000000003          2.9354766593314707E-004
  0.12530000000000002          3.0305463587865233E-004
  0.12640000000000001          3.0890156631357968E-004
  0.12750000000000003          3.1108924304135144E-004
  0.12860000000000002          3.0964831239543855E-004
  0.12970000000000001          3.0465048621408641E-004
  0.13080000000000003          2.9622789588756859E-004
  0.13190000000000002          2.8457900043576956E-004
  0.13300000000000001          2.6995144435204566E-004
  0.13410000000000000          2.5261571863666177E-004
  0.13520000000000004          2.3285373754333705E-004
  0.13630000000000003          2.1097098942846060E-004
  0.13740000000000002          1.8731495947577059E-004
  0.13850000000000001          1.6227344167418778E-004
  0.13960000000000000          1.3624400889966637E-004
  0.14070000000000005          1.0959570499835536E-004
  0.14180000000000004          8.2654732977971435E-005
  0.14290000000000003          5.5725457059452310E-005
  0.14400000000000002          2.9122958949301392E-005
  0.14510000000000001          3.1798726922716014E-006
  0.14620000000000000         -2.1785021090181544E-005
  0.14730000000000004         -4.5510809286497533E-005
  0.14840000000000003         -6.7809436586685479E-005
  0.14950000000000002         -8.8535634858999401E-005
  0.15060000000000001         -1.0754087270470336E-004
  0.15170000000000000         -1.2465761392377317E-004
  0.15280000000000005         -1.3973150635138154E-004
  0.15390000000000004         -1.5267162234522402E-004
  0.15500000000000003         -1.6346808115486056E-004
  0.15610000000000002         -1.7215650586877018E-004
  0.15720000000000001         -1.7876224592328072E-004
  0.15830000000000000         -1.8327824363950640E-004
  0.15940000000000004         -1.8569843086879700E-004
  0.16050000000000003         -1.8607245874591172E-004
  0.16160000000000002         -1.8452318909112364E-004
  0.16270000000000001         -1.8120327149517834E-004
  0.16380000000000000         -1.7622859741095454E-004
  0.16490000000000005         -1.6965254326350987E-004
  0.16600000000000004         -1.6150787996593863E-004
  0.16710000000000003         -1.5187688404694200E-004
  0.16820000000000002         -1.4092022320255637E-004
  0.16930000000000001         -1.2883434828836471E-004
  0.17040000000000000         -1.1577690020203590E-004
  0.17150000000000004         -1.0183240374317393E-004
  0.17260000000000003         -8.7052350863814354E-005
  0.17370000000000002         -7.1529961132910103E-005
  0.17480000000000001         -5.5434706155210733E-005
  0.17590000000000000         -3.8970476452959701E-005
  0.17700000000000005         -2.2297430405160412E-005
  0.17810000000000004         -5.4963807087915484E-006
  0.17920000000000003          1.1386426194803789E-005
  0.18030000000000002          2.8257569283596240E-005
  0.18140000000000001          4.4938253267901018E-005
  0.18250000000000000          6.1208724218886346E-005
  0.18360000000000004          7.6894386438652873E-005
  0.18470000000000003          9.1908994363620877E-005
  0.18580000000000002          1.0621206456562504E-004
  0.18690000000000001          1.1972301581408828E-004
  0.18800000000000000          1.3227740419097245E-004
  0.18910000000000005          1.4367069525178522E-004
  0.19020000000000004          1.5374844952020794E-004
  0.19130000000000003          1.6245563165284693E-004
  0.19240000000000002          1.6979822248686105E-004
  0.19350000000000001          1.7575657693669200E-004
  0.19460000000000005          1.8023746088147163E-004
  0.19570000000000004          1.8311235180590302E-004
  0.19680000000000003          1.8430405179969966E-004
  0.19790000000000002          1.8383638234809041E-004
  0.19900000000000001          1.8179875041823834E-004
  0.20010000000000000          1.7826247494667768E-004
  0.20120000000000005          1.7323336214758456E-004
  0.20230000000000004          1.6668759053573012E-004
  0.20340000000000003          1.5865497698541731E-004
  0.20450000000000002          1.4926666335668415E-004
  0.20560000000000000          1.3872033741790801E-004
  0.20670000000000005          1.2719642836600542E-004
  0.20780000000000004          1.1480531247798353E-004
  0.20890000000000003          1.0161401587538421E-004
