 -0.12000000000000000          0.0000000000000000
 -0.11889999999999999          0.0000000000000000
 -0.11780000000000000          0.0000000000000000
 -0.11670000000000000          0.0000000000000000
 -0.11559999999999999          0.0000000000000000
 -0.11449999999999999          0.0000000000000000
 -0.11340000000000000          0.0000000000000000
 -0.11230000000000000          0.0000000000000000
 -0.11119999999999999          0.0000000000000000
 -0.11009999999999999          0.0000000000000000
 -0.10900000000000000          0.0000000000000000
 -0.10790000000000000         -4.4692829362896385E-029
 -0.10679999999999999         -7.6697283177367239E-029
 -0.10569999999999999          2.7933834284068242E-027
 -0.10460000000000000          2.0670400580733687E-026
 -0.10349999999999999          5.1874044828015557E-026
 -0.10239999999999999         -6.2910221218009156E-026
 -0.10130000000000000         -8.0922382107128836E-025
 -0.10020000000000000         -2.2584038531473624E-024
  -9.9099999999999994E-002    -1.0605260627478556E-024
  -9.7999999999999990E-002     1.2008055687631441E-023
  -9.6899999999999986E-002     4.0787971062918272E-023
  -9.5799999999999996E-002     4.6772042697984164E-023
  -9.4699999999999993E-002    -7.6440318793328439E-023
  -9.3599999999999989E-002    -3.9655845854488114E-022
  -9.2499999999999999E-002    -6.3055775136783604E-022
  -9.1399999999999995E-002     5.2198885077707280E-023
  -9.0299999999999991E-002     2.2941759373414106E-021
  -8.9200000000000002E-002     4.5749429053682959E-021
  -8.8099999999999984E-002     2.1339890593772140E-021
  -8.6999999999999994E-002    -8.7820998230866349E-021
  -8.5899999999999990E-002    -2.0760378681051286E-020
  -8.4799999999999986E-002    -1.1328047849631915E-020
  -8.3699999999999997E-002     3.4001304315431952E-020
  -8.2599999999999993E-002     7.4588627130359645E-020
  -8.1499999999999989E-002     6.4739912642509260E-021
  -8.0399999999999999E-002    -2.1642685711552144E-019
  -7.9299999999999995E-002    -3.6430013868873331E-019
  -7.8199999999999992E-002     8.3584022421417754E-020
  -7.7100000000000002E-002     1.3572640052663032E-018
  -7.5999999999999984E-002     2.3765072706577121E-018
  -7.4899999999999994E-002     5.7720275403038137E-019
  -7.3799999999999991E-002    -5.7187354987618958E-018
  -7.2699999999999987E-002    -1.2807679965786243E-017
  -7.1599999999999997E-002    -9.8073784244094295E-018
  -7.0499999999999993E-002     1.3531665661020218E-017
  -6.9399999999999989E-002     4.9352414376441212E-017
  -6.8300000000000000E-002     6.0191722948887082E-017
  -6.7199999999999996E-002    -1.1206130086888636E-018
  -6.6099999999999992E-002    -1.3332392557500273E-016
  -6.5000000000000002E-002    -2.3365742663188777E-016
  -6.3899999999999985E-002    -1.3291279695822918E-016
  -6.2799999999999995E-002     2.3934845571603220E-016
  -6.1699999999999991E-002     6.6100513615858754E-016
  -6.0599999999999994E-002     6.3615933047501396E-016
  -5.9499999999999990E-002    -1.9960180524303858E-016
  -5.8399999999999994E-002    -1.4842919382530872E-015
  -5.7299999999999990E-002    -1.9740570821464827E-015
  -5.6199999999999986E-002    -4.1081643219293361E-016
  -5.5099999999999996E-002     2.8714243270166594E-015
  -5.3999999999999992E-002     5.0937834001783464E-015
  -5.2899999999999989E-002     2.6418900450137688E-015
  -5.1799999999999985E-002    -4.9992244535951389E-015
  -5.0699999999999995E-002    -1.2217377073399111E-014
  -4.9599999999999991E-002    -9.6758996079087875E-015
  -4.8499999999999988E-002     6.8389440161312209E-015
  -4.7399999999999998E-002     2.7452334432380085E-014
  -4.6299999999999994E-002     3.0106119149313909E-014
  -4.5199999999999990E-002    -1.3709776705144198E-015
  -4.4099999999999986E-002    -5.3815164266024854E-014
  -4.2999999999999997E-002    -8.0406994539157506E-014
  -4.1899999999999993E-002    -3.3167716349032789E-014
  -4.0799999999999989E-002     8.2301800465901798E-014
  -3.9699999999999985E-002     1.7959121874095568E-013
  -3.8599999999999995E-002     1.3988892780692624E-013
  -3.7499999999999992E-002    -7.4253578004161713E-014
  -3.6399999999999988E-002    -3.3055744014416633E-013
  -3.5299999999999984E-002    -3.7735857190759892E-013
  -3.4199999999999994E-002    -5.2829062061358553E-014
  -3.3099999999999991E-002     4.9267838073130399E-013
  -3.1999999999999987E-002     7.9768646115557784E-013
  -3.0899999999999997E-002     4.2628785701034899E-013
  -2.9799999999999993E-002    -5.5708215818128792E-013
  -2.8699999999999989E-002    -1.4179083254739488E-012
  -2.7599999999999986E-002    -1.2120391496006633E-012
  -2.6499999999999996E-002     3.2222816537426369E-013
  -2.5399999999999992E-002     2.1885188973558289E-012
  -2.4299999999999988E-002     2.6179978324103459E-012
  -2.3199999999999985E-002     5.6622144039425448E-013
  -2.2099999999999995E-002    -2.9098071608474330E-012
  -2.0999999999999991E-002    -4.8703779724490470E-012
  -1.9899999999999987E-002    -2.7283999712301998E-012
  -1.8799999999999983E-002     2.9911481277955509E-012
  -1.7699999999999994E-002     7.9781329112571520E-012
  -1.6599999999999990E-002     7.0231797807962515E-012
  -1.5499999999999986E-002    -1.1313375366736600E-012
  -1.4399999999999996E-002    -1.1130214805366023E-011
  -1.3299999999999992E-002    -1.3957313603485400E-011
  -1.2199999999999989E-002    -4.4952947614307348E-012
  -1.1099999999999985E-002     1.2226970304285434E-011
  -9.9999999999999950E-003     2.2653517950388391E-011
  -8.8999999999999913E-003     1.5083366847190582E-011
  -7.7999999999999875E-003    -8.5907565783305273E-012
  -6.6999999999999837E-003    -3.0739535916701755E-011
  -5.5999999999999939E-003    -3.0287994334798896E-011
  -4.4999999999999901E-003    -1.7017489847837020E-012
  -3.3999999999999864E-003     3.5652265861774168E-011
  -2.2999999999999826E-003     4.9244948396864885E-011
  -1.1999999999999927E-003     2.0540397507873287E-011
  -9.9999999999988987E-005    -3.4228182788087480E-011
   1.0000000000000148E-003    -7.0788090666962233E-011
   2.1000000000000185E-003    -5.1282124380325200E-011
   3.2000000000000084E-003     1.9349076160746215E-011
   4.3000000000000121E-003     8.8468843362221605E-011
   5.4000000000000159E-003     9.3662633204871781E-011
   6.5000000000000058E-003     1.7428971460509146E-011
   7.6000000000000234E-003    -8.8204998860419437E-011
   8.7000000000000133E-003    -1.3546538890629733E-010
   9.8000000000000032E-003    -7.3095501873510216E-011
   1.0900000000000021E-002     6.1595999134578250E-011
   1.2000000000000011E-002     1.6142628900261968E-010
   1.3100000000000001E-002     1.3358561479215325E-010
   1.4200000000000018E-002    -1.5812118975278011E-011
   1.5300000000000008E-002    -1.7244670968974418E-010
   1.6400000000000026E-002    -1.9902191006337944E-010
   1.7500000000000016E-002    -5.2642688819215522E-011
   1.8600000000000005E-002     1.6488690968152753E-010
   1.9700000000000023E-002     2.7638075161817710E-010
   2.0800000000000013E-002     1.7201004509637130E-010
   2.1900000000000003E-002    -8.9804740033283537E-011
   2.3000000000000020E-002    -3.1402969113969448E-010
   2.4100000000000010E-002    -3.1823516044582334E-010
   2.5200000000000000E-002    -8.2899201392372390E-011
   2.6300000000000018E-002     2.2285483181061494E-010
   2.7400000000000008E-002     3.6847036533060873E-010
   2.8500000000000025E-002     2.4408294829747490E-010
   2.9600000000000015E-002    -4.9848326855173042E-011
   3.0700000000000005E-002    -2.8069066515534757E-010
   3.1800000000000023E-002    -2.6878585468459448E-010
   3.2900000000000013E-002    -3.1219311857899612E-011
   3.4000000000000002E-002     2.3091922818352373E-010
   3.5100000000000020E-002     2.9121549616206721E-010
   3.6200000000000010E-002     7.7352103888816970E-011
   3.7300000000000028E-002    -2.6688351528747489E-010
   3.8400000000000017E-002    -4.8178544487242903E-010
   3.9500000000000007E-002    -3.7780567563316936E-010
   4.0600000000000025E-002     2.5646536977452783E-011
   4.1700000000000015E-002     5.0139403739990485E-010
   4.2800000000000005E-002     7.5135608845755542E-010
   4.3900000000000022E-002     5.9169269484016240E-010
   4.5000000000000012E-002     7.5251534170650558E-011
   4.6100000000000002E-002    -5.2243498416260081E-010
   4.7200000000000020E-002    -8.5465967636366713E-010
   4.8300000000000010E-002    -7.1606326423889755E-010
   4.9400000000000027E-002    -1.9019286146004788E-010
   5.0500000000000017E-002     3.7914046902010057E-010
   5.1600000000000007E-002     6.0735488860430564E-010
   5.2700000000000025E-002     3.5380512408700326E-010
   5.3800000000000014E-002    -1.3911671814526017E-010
   5.4900000000000004E-002    -3.9770389759219427E-010
   5.6000000000000022E-002    -9.4059100785859329E-011
   5.7100000000000012E-002     6.2794125454956884E-010
   5.8200000000000002E-002     1.1740208805122165E-009
   5.9300000000000019E-002     9.2424035091909218E-010
   6.0400000000000009E-002    -2.2665903876006865E-010
   6.1500000000000027E-002    -1.6595518292916722E-009
   6.2600000000000017E-002    -2.3914750180153987E-009
   6.3700000000000007E-002    -1.7934613794068355E-009
   6.4800000000000024E-002    -1.1689325896124814E-010
   6.5900000000000014E-002     1.6261421098562323E-009
   6.7000000000000004E-002     2.3871755683302354E-009
   6.8100000000000022E-002     1.8600808671109803E-009
   6.9200000000000012E-002     6.8219008220182786E-010
   7.0300000000000029E-002    -1.2439491103855005E-010
   7.1400000000000019E-002    -2.4396229827972071E-011
   7.2500000000000009E-002     5.7140181475290319E-010
   7.3600000000000027E-002     6.5922028946729938E-010
   7.4700000000000016E-002    -4.6467335534927656E-010
   7.5800000000000006E-002    -2.5030051364893779E-009
   7.6900000000000024E-002    -4.2411203438064149E-009
   7.8000000000000014E-002    -4.3846037911521307E-009
   7.9100000000000004E-002    -2.5272315351543284E-009
   8.0200000000000021E-002     4.6656956076418510E-010
   8.1300000000000011E-002     2.9281530533609157E-009
   8.2400000000000029E-002     3.3528200216181858E-009
   8.3500000000000019E-002     1.2188756670639123E-009
   8.4600000000000009E-002    -2.8195259460517264E-009
   8.5700000000000026E-002    -7.3949775192261313E-009
   8.6800000000000016E-002    -1.1198069138629307E-008
   8.7900000000000006E-002    -1.3609211535481336E-008
   8.9000000000000024E-002    -1.4888177801708480E-008
   9.0100000000000013E-002    -1.5871609804207765E-008
   9.1200000000000003E-002    -1.7379406358486449E-008
   9.2300000000000021E-002    -1.9706359211113522E-008
   9.3400000000000011E-002    -2.2578372949055847E-008
   9.4500000000000028E-002    -2.5692319383097129E-008
   9.5600000000000018E-002    -2.9503492982030366E-008
   9.6700000000000008E-002    -3.5586953828214973E-008
   9.7800000000000026E-002    -4.6051358282284127E-008
   9.8900000000000016E-002    -6.2179921656024817E-008
  0.10000000000000001         -8.3245538462506374E-008
  0.10110000000000002         -1.0658817473085946E-007
  0.10220000000000001         -1.2923823078381247E-007
  0.10330000000000003         -1.5012027176908305E-007
  0.10440000000000002         -1.7121170969858213E-007
  0.10550000000000001         -1.9665745298880211E-007
  0.10660000000000003         -2.3039935115320986E-007
  0.10770000000000002         -2.7412337999521696E-007
  0.10880000000000001         -3.2714268627387355E-007
  0.10990000000000003         -3.8826618720122497E-007
  0.11100000000000002         -4.5802639192515926E-007
  0.11210000000000001         -5.3931205457047326E-007
  0.11320000000000002         -6.3580506548532867E-007
  0.11430000000000001         -7.4952930617655511E-007
  0.11540000000000003         -8.7964139083851478E-007
  0.11650000000000002         -1.0236026355414651E-006
  0.11760000000000001         -1.1799193089245819E-006
  0.11870000000000003         -1.3503738500730833E-006
  0.11980000000000002         -1.5401169548567850E-006
  0.12090000000000001         -1.7556711782162893E-006
  0.12200000000000003         -2.0023844626848586E-006
  0.12310000000000001         -2.2830154193798080E-006
  0.12420000000000003         -2.5980389182223007E-006
  0.12530000000000002         -2.9470065783243626E-006
  0.12640000000000001         -3.3298249491053866E-006
  0.12750000000000003         -3.7472668736882042E-006
  0.12860000000000002         -4.2007095544249751E-006
  0.12970000000000001         -4.6914656195440330E-006
  0.13080000000000003         -5.2201035032339860E-006
  0.13190000000000002         -5.7861011555360164E-006
  0.13300000000000001         -6.3881593632686418E-006
  0.13410000000000000         -7.0252185651042964E-006
  0.13520000000000004         -7.6975738920737058E-006
  0.13630000000000003         -8.4069779404671863E-006
  0.13740000000000002         -9.1549563876469620E-006
  0.13850000000000001         -9.9399258033372462E-006
  0.13960000000000000         -1.0755104085546918E-005
  0.14070000000000005         -1.1589148925850168E-005
  0.14180000000000004         -1.2429552953108214E-005
  0.14290000000000003         -1.3266475434647873E-005
  0.14400000000000002         -1.4093954632699024E-005
  0.14510000000000001         -1.4907337572367396E-005
  0.14620000000000000         -1.5698984498158097E-005
  0.14730000000000004         -1.6455896911793388E-005
  0.14840000000000003         -1.7161406503873877E-005
  0.14950000000000002         -1.7799471606849693E-005
  0.15060000000000001         -1.8357719454797916E-005
  0.15170000000000000         -1.8826540326699615E-005
  0.15280000000000005         -1.9194932974642143E-005
  0.15390000000000004         -1.9446804799372330E-005
  0.15500000000000003         -1.9561199223971926E-005
  0.15610000000000002         -1.9516544853104278E-005
  0.15720000000000001         -1.9295517631690018E-005
  0.15830000000000000         -1.8886819816543721E-005
  0.15940000000000004         -1.8283122699358501E-005
  0.16050000000000003         -1.7477625078754500E-005
  0.16160000000000002         -1.6462412531836890E-005
  0.16270000000000001         -1.5229461496346630E-005
  0.16380000000000000         -1.3772838428849354E-005
  0.16490000000000005         -1.2089882147847675E-005
  0.16600000000000004         -1.0180880963162053E-005
  0.16710000000000003         -8.0487006925977767E-006
  0.16820000000000002         -5.6994567785295658E-006
  0.16930000000000001         -3.1440144994121511E-006
  0.17040000000000000         -3.9834205267652578E-007
  0.17150000000000004          2.5181166165566538E-006
  0.17260000000000003          5.5843129302957095E-006
  0.17370000000000002          8.7775715655880049E-006
  0.17480000000000001          1.2071304809069261E-005
  0.17590000000000000          1.5433048247359693E-005
  0.17700000000000005          1.8825645383913070E-005
  0.17810000000000004          2.2211575924302451E-005
  0.17920000000000003          2.5556939363013953E-005
  0.18030000000000002          2.8831025701947510E-005
  0.18140000000000001          3.2001342333387583E-005
  0.18250000000000000          3.5028784623136744E-005
  0.18360000000000004          3.7868205254198983E-005
  0.18470000000000003          4.0475028072251007E-005
  0.18580000000000002          4.2812749597942457E-005
  0.18690000000000001          4.4854772568214685E-005
  0.18800000000000000          4.6579032641602680E-005
  0.18910000000000005          4.7960922529455274E-005
  0.19020000000000004          4.8971822252497077E-005
  0.19130000000000003          4.9585320084588602E-005
  0.19240000000000002          4.9785816372605041E-005
  0.19350000000000001          4.9571604904485866E-005
  0.19460000000000005          4.8949616029858589E-005
  0.19570000000000004          4.7926998377079144E-005
  0.19680000000000003          4.6507735532941297E-005
  0.19790000000000002          4.4697218982037157E-005
  0.19900000000000001          4.2509891500230879E-005
  0.20010000000000000          3.9972226659301668E-005
  0.20120000000000005          3.7117955798748881E-005
  0.20230000000000004          3.3980486477958038E-005
  0.20340000000000003          3.0590526876039803E-005
  0.20450000000000002          2.6980917027685791E-005
  0.20560000000000000          2.3192887965706177E-005
  0.20670000000000005          1.9276052626082674E-005
  0.20780000000000004          1.5280797015293501E-005
  0.20890000000000003          1.1249999261053745E-005
