 -0.12000000000000000          0.0000000000000000
 -0.11889999999999999          0.0000000000000000
 -0.11780000000000000          0.0000000000000000
 -0.11670000000000000          0.0000000000000000
 -0.11559999999999999          0.0000000000000000
 -0.11449999999999999          0.0000000000000000
 -0.11340000000000000          0.0000000000000000
 -0.11230000000000000          0.0000000000000000
 -0.11119999999999999          0.0000000000000000
 -0.11009999999999999          0.0000000000000000
 -0.10900000000000000         -7.3358429429873544E-033
 -0.10790000000000000         -2.7653711490100058E-031
 -0.10679999999999999         -3.6601606462005653E-030
 -0.10569999999999999         -2.5500913392953275E-029
 -0.10460000000000000         -1.0932791700206915E-028
 -0.10349999999999999         -2.9648182046247582E-028
 -0.10239999999999999         -4.2286035637406974E-028
 -0.10130000000000000          2.4836563858636898E-028
 -0.10020000000000000          2.8071416941505433E-027
  -9.9099999999999994E-002     6.2034330620089196E-027
  -9.7999999999999990E-002     2.5540051659800626E-027
  -9.6899999999999986E-002    -2.1213896470295810E-026
  -9.5799999999999996E-002    -5.7308957501318116E-026
  -9.4699999999999993E-002    -2.8760965728400162E-026
  -9.3599999999999989E-002     1.9129286538525785E-025
  -9.2499999999999999E-002     5.1331785539552127E-025
  -9.1399999999999995E-002     1.6069369042883345E-025
  -9.0299999999999991E-002    -2.0823439041678739E-024
  -8.9200000000000002E-002    -5.1730397941036436E-024
  -8.8099999999999984E-002    -1.2715924046498185E-024
  -8.6999999999999994E-002     2.1626479721671099E-023
  -8.5899999999999990E-002     5.4131035781977862E-023
  -8.4799999999999986E-002     2.3672349458594721E-023
  -8.3699999999999997E-002    -1.8429470704146594E-022
  -8.2599999999999993E-002    -5.1189535025122098E-022
  -8.1499999999999989E-002    -3.7727145312272606E-022
  -8.0399999999999999E-002     1.2071550944120499E-021
  -7.9299999999999995E-002     4.0829150359477278E-021
  -7.8199999999999992E-002     4.3039653221618864E-021
  -7.7100000000000002E-002    -5.5730603107260500E-021
  -7.5999999999999984E-002    -2.6873346805394730E-020
  -7.4899999999999994E-002    -3.7227845079317212E-020
  -7.3799999999999991E-002     1.1874471730057081E-020
  -7.2699999999999987E-002     1.4425352628798275E-019
  -7.1599999999999997E-002     2.5577331853874010E-019
  -7.0499999999999993E-002     7.3825553015279477E-020
  -6.9399999999999989E-002    -6.1542583955826766E-019
  -6.8300000000000000E-002    -1.4321507340722602E-018
  -6.7199999999999996E-002    -1.0587472400978335E-018
  -6.6099999999999992E-002     1.9227412156198040E-018
  -6.5000000000000002E-002     6.5940737393971482E-018
  -6.3899999999999985E-002     7.5165157800142327E-018
  -6.2799999999999995E-002    -2.9080270625046860E-018
  -6.1699999999999991E-002    -2.4729282405044458E-017
  -6.0599999999999994E-002    -3.9124329410945475E-017
  -5.9499999999999990E-002    -1.2062760810790389E-017
  -5.8399999999999994E-002     7.2251533206432495E-017
  -5.7299999999999990E-002     1.6173621642254975E-016
  -5.6199999999999986E-002     1.2749054201616038E-016
  -5.5099999999999996E-002    -1.3905787540677132E-016
  -5.3999999999999992E-002    -5.3942790320077685E-016
  -5.2899999999999989E-002    -6.6226695055220043E-016
  -5.1799999999999985E-002    -6.9621252714107802E-018
  -5.0699999999999995E-002     1.4123218780654942E-015
  -4.9599999999999991E-002     2.5169742846339145E-015
  -4.8499999999999988E-002     1.4893378193989995E-015
  -4.7399999999999998E-002    -2.5633559030014286E-015
  -4.6299999999999994E-002    -7.4920436879139657E-015
  -4.5199999999999990E-002    -7.8916052227598170E-015
  -4.4099999999999986E-002     1.1166839801885755E-015
  -4.2999999999999997E-002     1.7251409922445192E-014
  -4.1899999999999993E-002     2.7401144843245719E-014
  -4.0799999999999989E-002     1.4092297207640714E-014
  -3.9699999999999985E-002    -2.7200426833866656E-014
  -3.8599999999999995E-002    -7.1878680579177262E-014
  -3.7499999999999992E-002    -7.1428242010354581E-014
  -3.6399999999999988E-002     9.3565605634973910E-015
  -3.5299999999999984E-002     1.4204254634476998E-013
  -3.4199999999999994E-002     2.1922879635781489E-013
  -3.3099999999999991E-002     1.1681519467010570E-013
  -3.1999999999999987E-002    -1.8160914937691286E-013
  -3.0899999999999997E-002    -4.9370013285865433E-013
  -2.9799999999999993E-002    -5.0216813129652649E-013
  -2.8699999999999989E-002    -3.6727687406125364E-015
  -2.7599999999999986E-002     8.0806715485604030E-013
  -2.6499999999999996E-002     1.3033189978639559E-012
  -2.5399999999999992E-002     8.0485151963266555E-013
  -2.4299999999999988E-002    -7.5548161476701736E-013
  -2.3199999999999985E-002    -2.4362916198339413E-012
  -2.2099999999999995E-002    -2.6834949193310642E-012
  -2.0999999999999991E-002    -5.3658444874871147E-013
  -1.9899999999999987E-002     3.1499501357973303E-012
  -1.8799999999999983E-002     5.6629722612611122E-012
  -1.7699999999999994E-002     4.1540668474504550E-012
  -1.6599999999999990E-002    -1.7414256885464607E-012
  -1.5499999999999986E-002    -8.5090996748693470E-012
  -1.4399999999999996E-002    -1.0420069321281922E-011
  -1.3299999999999992E-002    -3.9188192621497642E-012
  -1.2199999999999989E-002     8.3151064159125987E-012
  -1.1099999999999985E-002     1.7531281981675306E-011
  -9.9999999999999950E-003     1.4673144643762015E-011
  -8.8999999999999913E-003    -1.6066979561038530E-012
  -7.7999999999999875E-003    -2.1260330301808850E-011
  -6.6999999999999837E-003    -2.8255361592122163E-011
  -5.5999999999999939E-003    -1.3027783712926677E-011
  -4.4999999999999901E-003     1.7158207146761306E-011
  -3.3999999999999864E-003     3.9928661071941818E-011
  -2.2999999999999826E-003     3.3531576820733378E-011
  -1.1999999999999927E-003    -3.6443821051224123E-012
  -9.9999999999988987E-005    -4.6290363903134235E-011
   1.0000000000000148E-003    -5.7701746158933531E-011
   2.1000000000000185E-003    -1.9648014118467394E-011
   3.2000000000000084E-003     4.6399623726545158E-011
   4.3000000000000121E-003     8.7973663076557074E-011
   5.4000000000000159E-003     6.0316557304318508E-011
   6.5000000000000058E-003    -3.1548041956597217E-011
   7.6000000000000234E-003    -1.2377671110286315E-010
   8.7000000000000133E-003    -1.3411927124451495E-010
   9.8000000000000032E-003    -2.8931265369513959E-011
   1.0900000000000021E-002     1.3478539118150223E-010
   1.2000000000000011E-002     2.3461685372261343E-010
   1.3100000000000001E-002     1.6971693495015927E-010
   1.4200000000000018E-002    -4.9829550208269069E-011
   1.5300000000000008E-002    -2.8574947963377895E-010
   1.6400000000000026E-002    -3.5630112749096554E-010
   1.7500000000000016E-002    -1.7386181383471921E-010
   1.8600000000000005E-002     1.6749326925413754E-010
   1.9700000000000023E-002     4.3565961949099119E-010
   2.0800000000000013E-002     4.2305101088935260E-010
   2.1900000000000003E-002     1.1470540489666448E-010
   2.3000000000000020E-002    -2.7618279885288644E-010
   2.4100000000000010E-002    -4.5646819657463311E-010
   2.5200000000000000E-002    -2.8929059148197211E-010
   2.6300000000000018E-002     7.0772103455407631E-011
   2.7400000000000008E-002     2.8123775530630724E-010
   2.8500000000000025E-002     1.0835864150404717E-010
   2.9600000000000015E-002    -3.1335453676284430E-010
   3.0700000000000005E-002    -5.1279780421964460E-010
   3.1800000000000023E-002    -6.0225893716570056E-011
   3.2900000000000013E-002     9.5807017874705025E-010
   3.4000000000000002E-002     1.7870995794311284E-009
   3.5100000000000020E-002     1.4353219723872712E-009
   3.6200000000000010E-002    -4.8647280648239644E-010
   3.7300000000000028E-002    -3.1245863674200791E-009
   3.8400000000000017E-002    -4.5833750128565498E-009
   3.9500000000000007E-002    -3.1074343098680401E-009
   4.0600000000000025E-002     1.4004696291536334E-009
   4.1700000000000015E-002     6.6667817932852813E-009
   4.2800000000000005E-002     8.9915950240992970E-009
   4.3900000000000022E-002     5.6343041343609457E-009
   4.5000000000000012E-002    -2.7839746064017845E-009
   4.6100000000000002E-002    -1.1715694192560022E-008
   4.7200000000000020E-002    -1.4920086499614627E-008
   4.8300000000000010E-002    -8.5833455898409738E-009
   4.9400000000000027E-002     5.2478688061796674E-009
   5.0500000000000017E-002     1.8639010335164130E-008
   5.1600000000000007E-002     2.2022875967309119E-008
   5.2700000000000025E-002     1.0685639928453838E-008
   5.3800000000000014E-002    -1.0680231810056284E-008
   5.4900000000000004E-002    -2.9097348530626732E-008
   5.6000000000000022E-002    -3.0630136649278938E-008
   5.7100000000000012E-002    -1.0138469619391799E-008
   5.8200000000000002E-002     2.2909539154625236E-008
   5.9300000000000019E-002     4.7611273146230815E-008
   6.0400000000000009E-002     4.3683872519295619E-008
   6.1500000000000027E-002     6.0639351318059198E-009
   6.2600000000000017E-002    -4.7529592706041512E-008
   6.3700000000000007E-002    -8.3043140364225110E-008
   6.4800000000000024E-002    -6.9550871728552011E-008
   6.5900000000000014E-002    -1.6162015059606460E-009
   6.7000000000000004E-002     8.9954866666630551E-008
   6.8100000000000022E-002     1.4914957091605174E-007
   6.9200000000000012E-002     1.2564107976231753E-007
   7.0300000000000029E-002     9.9622905480600821E-009
   7.1400000000000019E-002    -1.4916223278760299E-007
   7.2500000000000009E-002    -2.6105035999535176E-007
   7.3600000000000027E-002    -2.4051840341599018E-007
   7.4700000000000016E-002    -6.3569288499820686E-008
   7.5800000000000006E-002     2.0221060026415216E-007
   7.6900000000000024E-002     4.1757556346055935E-007
   7.8000000000000014E-002     4.4068906390748452E-007
   7.9100000000000004E-002     2.1308555631094350E-007
   8.0200000000000021E-002    -1.8709413041051448E-007
   8.1300000000000011E-002    -5.6411067816952709E-007
   8.2400000000000029E-002    -6.9858845108683454E-007
   8.3500000000000019E-002    -4.7334592068182246E-007
   8.4600000000000009E-002     3.9842195320716201E-008
   8.5700000000000026E-002     5.9242512406854075E-007
   8.6800000000000016E-002     8.7966378714554594E-007
   8.7900000000000006E-002     7.1365275289281271E-007
   8.9000000000000024E-002     1.5088696159182291E-007
   9.0100000000000013E-002    -5.1116961685693241E-007
   9.1200000000000003E-002    -8.8577576207171660E-007
   9.2300000000000021E-002    -7.2377974902337883E-007
   9.3400000000000011E-002    -8.4338630301772355E-008
   9.4500000000000028E-002     6.6539064391690772E-007
   9.5600000000000018E-002     1.0440062396810390E-006
   9.6700000000000008E-002     7.4510666081550880E-007
   9.7800000000000026E-002    -1.5014212806363503E-007
   9.8900000000000016E-002    -1.1820083045677166E-006
  0.10000000000000001         -1.7621283632252016E-006
  0.10110000000000002         -1.5288206896002521E-006
  0.10220000000000001         -5.8651943390941597E-007
  0.10330000000000003          5.4150569894773071E-007
  0.10440000000000002          1.2463899565773318E-006
  0.10550000000000001          1.2578549331010436E-006
  0.10660000000000003          8.7584214725211496E-007
  0.10770000000000002          8.1923150219154195E-007
  0.10880000000000001          1.7390925677318592E-006
  0.10990000000000003          3.6864473713649204E-006
  0.11100000000000002          5.9059561863250565E-006
  0.11210000000000001          7.1664253482595086E-006
  0.11320000000000002          6.5066560637205839E-006
  0.11430000000000001          3.9691885831416585E-006
  0.11540000000000003          8.2548802993187564E-007
  0.11650000000000002         -9.5087500540103065E-007
  0.11760000000000001          2.4981406454571697E-007
  0.11870000000000003          4.6690847739228047E-006
  0.11980000000000002          1.0891154488490429E-005
  0.12090000000000001          1.6557043636566959E-005
  0.12200000000000003          1.9763205273193307E-005
  0.12310000000000001          2.0344492440926842E-005
  0.12420000000000003          2.0209596186759882E-005
  0.12530000000000002          2.2400390662369318E-005
  0.12640000000000001          2.9317159714992158E-005
  0.12750000000000003          4.1142655391013250E-005
  0.12860000000000002          5.5492684623459354E-005
  0.12970000000000001          6.8668268795590848E-005
  0.13080000000000003          7.7916411100886762E-005
  0.13190000000000002          8.3414604887366295E-005
  0.13300000000000001          8.8715831225272268E-005
  0.13410000000000000          9.9214332294650376E-005
  0.13520000000000004          1.1935448856092989E-004
  0.13630000000000003          1.5013874508440495E-004
  0.13740000000000002          1.8843356519937515E-004
  0.13850000000000001          2.2861607430968434E-004
  0.13960000000000000          2.6575606898404658E-004
  0.14070000000000005          2.9856376932002604E-004
  0.14180000000000004          3.3036788227036595E-004
  0.14290000000000003          3.6751004518009722E-004
  0.14400000000000002          4.1598189272917807E-004
  0.14510000000000001          4.7823807108215988E-004
  0.14620000000000000          5.5203738156706095E-004
  0.14730000000000004          6.3194800168275833E-004
  0.14840000000000003          7.1267090970650315E-004
  0.14950000000000002          7.9219328472390771E-004
  0.15060000000000001          8.7278906721621752E-004
  0.15170000000000000          9.5939746825024486E-004
  0.15280000000000005          1.0562498355284333E-003
  0.15390000000000004          1.1639465810731053E-003
  0.15500000000000003          1.2786949519068003E-003
  0.15610000000000002          1.3942032819613814E-003
  0.15720000000000001          1.5050657093524933E-003
  0.15830000000000000          1.6094376333057880E-003
  0.15940000000000004          1.7091686604544520E-003
  0.16050000000000003          1.8074279651045799E-003
  0.16160000000000002          1.9050190458074212E-003
  0.16270000000000001          1.9979381468147039E-003
  0.16380000000000000          2.0779347978532314E-003
  0.16490000000000005          2.1354714408516884E-003
  0.16600000000000004          2.1639761980623007E-003
  0.16710000000000003          2.1622229833155870E-003
  0.16820000000000002          2.1331512834876776E-003
  0.16930000000000001          2.0798482000827789E-003
  0.17040000000000000          2.0010522566735744E-003
  0.17150000000000004          1.8888524500653148E-003
  0.17260000000000003          1.7304142238572240E-003
  0.17370000000000002          1.5129157109186053E-003
  0.17480000000000001          1.2290544109418988E-003
  0.17590000000000000          8.8035291992127895E-004
  0.17700000000000005          4.7543938853777945E-004
  0.17810000000000004          2.4417675376753323E-005
  0.17920000000000003         -4.6723807463422418E-004
  0.18030000000000002         -1.0025569936260581E-003
  0.18140000000000001         -1.5906807966530323E-003
  0.18250000000000000         -2.2415705025196075E-003
  0.18360000000000004         -2.9586728196591139E-003
  0.18470000000000003         -3.7346368189901114E-003
  0.18580000000000002         -4.5522553846240044E-003
  0.18690000000000001         -5.3897798061370850E-003
  0.18800000000000000         -6.2279477715492249E-003
  0.18910000000000005         -7.0544555783271790E-003
  0.19020000000000004         -7.8628528863191605E-003
  0.19130000000000003         -8.6488146334886551E-003
  0.19240000000000002         -9.4045689329504967E-003
  0.19350000000000001         -1.0116118937730789E-002
  0.19460000000000005         -1.0763433761894703E-002
  0.19570000000000004         -1.1323112994432449E-002
  0.19680000000000003         -1.1773468926548958E-002
  0.19790000000000002         -1.2097072787582874E-002
  0.19900000000000001         -1.2281647883355618E-002
  0.20010000000000000         -1.2316929176449776E-002
  0.20120000000000005         -1.2192157097160816E-002
  0.20230000000000004         -1.1895040050148964E-002
  0.20340000000000003         -1.1413424275815487E-002
  0.20450000000000002         -1.0739360935986042E-002
  0.20560000000000000         -9.8719894886016846E-003
  0.20670000000000005         -8.8178738951683044E-003
  0.20780000000000004         -7.5881285592913628E-003
  0.20890000000000003         -6.1945812776684761E-003
