 -0.12000000000000000         -5.4647587239742279E-003
 -0.11889999999999999         -2.1808899473398924E-003
 -0.11780000000000000          2.0849842112511396E-003
 -0.11670000000000000          3.0256386380642653E-003
 -0.11559999999999999         -8.1660960859153420E-005
 -0.11449999999999999         -3.7678878288716078E-003
 -0.11340000000000000         -4.1537256911396980E-003
 -0.11230000000000000         -1.1015397030860186E-003
 -0.11119999999999999          1.6419503372162580E-003
 -0.11009999999999999          4.4663171865977347E-004
 -0.10900000000000000         -4.2960317805409431E-003
 -0.10790000000000000         -8.5035664960741997E-003
 -0.10679999999999999         -8.6454311385750771E-003
 -0.10569999999999999         -5.4503302089869976E-003
 -0.10460000000000000         -3.1836330890655518E-003
 -0.10349999999999999         -5.2461004815995693E-003
 -0.10239999999999999         -1.0700910352170467E-002
 -0.10130000000000000         -1.5351777896285057E-002
 -0.10020000000000000         -1.6219124197959900E-002
  -9.9099999999999994E-002    -1.4706725254654884E-002
  -9.7999999999999990E-002    -1.5147900208830833E-002
  -9.6899999999999986E-002    -2.0275618880987167E-002
  -9.5799999999999996E-002    -2.8382880613207817E-002
  -9.4699999999999993E-002    -3.5144295543432236E-002
  -9.3599999999999989E-002    -3.8178235292434692E-002
  -9.2499999999999999E-002    -3.9565823972225189E-002
  -9.1399999999999995E-002    -4.3707083910703659E-002
  -9.0299999999999991E-002    -5.2780691534280777E-002
  -8.9200000000000002E-002    -6.4569555222988129E-002
  -8.8099999999999984E-002    -7.4886448681354523E-002
  -8.6999999999999994E-002    -8.2031413912773132E-002
  -8.5899999999999990E-002    -8.8598772883415222E-002
  -8.4799999999999986E-002    -9.8770298063755035E-002
  -8.3699999999999997E-002   -0.11397174745798111
  -8.2599999999999993E-002   -0.13143065571784973
  -8.1499999999999989E-002   -0.14711351692676544
  -8.0399999999999999E-002   -0.15989731252193451
  -7.9299999999999995E-002   -0.17263075709342957
  -7.8199999999999992E-002   -0.18901501595973969
  -7.7100000000000002E-002   -0.20961177349090576
  -7.5999999999999984E-002   -0.23119835555553436
  -7.4899999999999994E-002   -0.25004255771636963
  -7.3799999999999991E-002   -0.26565089821815491
  -7.2699999999999987E-002   -0.28100228309631348
  -7.1599999999999997E-002   -0.29908978939056396
  -7.0499999999999993E-002   -0.31944948434829712
  -6.9399999999999989E-002   -0.33829253911972046
  -6.8300000000000000E-002   -0.35208329558372498
  -6.7199999999999996E-002   -0.36074531078338623
  -6.6099999999999992E-002   -0.36715179681777954
  -6.5000000000000002E-002   -0.37349531054496765
  -6.3899999999999985E-002   -0.37836012244224548
  -6.2799999999999995E-002   -0.37763699889183044
  -6.1699999999999991E-002   -0.36821660399436951
  -6.0599999999999994E-002   -0.35063052177429199
  -5.9499999999999990E-002   -0.32773327827453613
  -5.8399999999999994E-002   -0.30108699202537537
  -5.7299999999999990E-002   -0.26870366930961609
  -5.6199999999999986E-002   -0.22663331031799316
  -5.5099999999999996E-002   -0.17259256541728973
  -5.3999999999999992E-002   -0.10800739377737045
  -5.2899999999999989E-002    -3.6118514835834503E-002
  -5.1799999999999985E-002     4.1620366275310516E-002
  -5.0699999999999995E-002    0.12707960605621338
  -4.9599999999999991E-002    0.22336107492446899
  -4.8499999999999988E-002    0.33118885755538940
  -4.7399999999999998E-002    0.44780364632606506
  -4.6299999999999994E-002    0.56891846656799316
  -4.5199999999999990E-002    0.69252210855484009
  -4.4099999999999986E-002    0.81959617137908936
  -4.2999999999999997E-002    0.95179617404937744
  -4.1899999999999993E-002     1.0879591703414917
  -4.0799999999999989E-002     1.2236887216567993
  -3.9699999999999985E-002     1.3539406061172485
  -3.8599999999999995E-002     1.4762072563171387
  -3.7499999999999992E-002     1.5907182693481445
  -3.6399999999999988E-002     1.6978145837783813
  -3.5299999999999984E-002     1.7950849533081055
  -3.4199999999999994E-002     1.8774516582489014
  -3.3099999999999991E-002     1.9399515390396118
  -3.1999999999999987E-002     1.9805349111557007
  -3.0899999999999997E-002     1.9997552633285522
  -2.9799999999999993E-002     1.9980831146240234
  -2.8699999999999989E-002     1.9735738039016724
  -2.7599999999999986E-002     1.9222663640975952
  -2.6499999999999996E-002     1.8411914110183716
  -2.5399999999999992E-002     1.7305886745452881
  -2.4299999999999988E-002     1.5931382179260254
  -2.3199999999999985E-002     1.4311985969543457
  -2.2099999999999995E-002     1.2448447942733765
  -2.0999999999999991E-002     1.0329202413558960
  -1.9899999999999987E-002    0.79581010341644287
  -1.8799999999999983E-002    0.53704994916915894
  -1.7699999999999994E-002    0.26213330030441284
  -1.6599999999999990E-002    -2.4244440719485283E-002
  -1.5499999999999986E-002   -0.31968885660171509
  -1.4399999999999996E-002   -0.62258511781692505
  -1.3299999999999992E-002   -0.92991471290588379
  -1.2199999999999989E-002    -1.2356702089309692
  -1.1099999999999985E-002    -1.5330257415771484
  -9.9999999999999950E-003    -1.8166515827178955
  -8.8999999999999913E-003    -2.0836219787597656
  -7.7999999999999875E-003    -2.3319478034973145
  -6.6999999999999837E-003    -2.5582516193389893
  -5.5999999999999939E-003    -2.7572071552276611
  -4.4999999999999901E-003    -2.9235107898712158
  -3.3999999999999864E-003    -3.0541329383850098
  -2.2999999999999826E-003    -3.1484365463256836
  -1.1999999999999927E-003    -3.2069404125213623
  -9.9999999999988987E-005    -3.2287328243255615
   1.0000000000000148E-003    -3.2119328975677490
   2.1000000000000185E-003    -3.1550588607788086
   3.2000000000000084E-003    -3.0588810443878174
   4.3000000000000121E-003    -2.9269404411315918
   5.4000000000000159E-003    -2.7628958225250244
   6.5000000000000058E-003    -2.5694367885589600
   7.6000000000000234E-003    -2.3481404781341553
   8.7000000000000133E-003    -2.1010072231292725
   9.8000000000000032E-003    -1.8323738574981689
   1.0900000000000021E-002    -1.5480591058731079
   1.2000000000000011E-002    -1.2538776397705078
   1.3100000000000001E-002   -0.95387023687362671
   1.4200000000000018E-002   -0.65088140964508057
   1.5300000000000008E-002   -0.34816291928291321
   1.6400000000000026E-002    -5.0511103123426437E-002
   1.7500000000000016E-002    0.23661108314990997
   1.8600000000000005E-002    0.50852954387664795
   1.9700000000000023E-002    0.76259338855743408
   2.0800000000000013E-002    0.99742579460144043
   2.1900000000000003E-002     1.2113906145095825
   2.3000000000000020E-002     1.4018480777740479
   2.4100000000000010E-002     1.5659358501434326
   2.5200000000000000E-002     1.7020405530929565
   2.6300000000000018E-002     1.8103941679000854
   2.7400000000000008E-002     1.8922312259674072
   2.8500000000000025E-002     1.9484608173370361
   2.9600000000000015E-002     1.9791090488433838
   3.0700000000000005E-002     1.9842997789382935
   3.1800000000000023E-002     1.9651756286621094
   3.2900000000000013E-002     1.9244368076324463
   3.4000000000000002E-002     1.8649923801422119
   3.5100000000000020E-002     1.7893441915512085
   3.6200000000000010E-002     1.6989516019821167
   3.7300000000000028E-002     1.5953367948532104
   3.8400000000000017E-002     1.4808108806610107
   3.9500000000000007E-002     1.3585035800933838
   4.0600000000000025E-002     1.2314887046813965
   4.1700000000000015E-002     1.1018480062484741
   4.2800000000000005E-002    0.97098135948181152
   4.3900000000000022E-002    0.84009248018264771
   4.5000000000000012E-002    0.71105915307998657
   4.6100000000000002E-002    0.58609622716903687
   4.7200000000000020E-002    0.46699252724647522
   4.8300000000000010E-002    0.35472586750984192
   4.9400000000000027E-002    0.24950923025608063
   5.0500000000000017E-002    0.15167219936847687
   5.1600000000000007E-002     6.1990734189748764E-002
   5.2700000000000025E-002    -1.8677774816751480E-002
   5.3800000000000014E-002    -8.9890725910663605E-002
   5.4900000000000004E-002   -0.15197961032390594
   5.6000000000000022E-002   -0.20560182631015778
   5.7100000000000012E-002   -0.25127774477005005
   5.8200000000000002E-002   -0.28901293873786926
   5.9300000000000019E-002   -0.31886848807334900
   6.0400000000000009E-002   -0.34121385216712952
   6.1500000000000027E-002   -0.35688328742980957
   6.2600000000000017E-002   -0.36684903502464294
   6.3700000000000007E-002   -0.37175181508064270
   6.4800000000000024E-002   -0.37193328142166138
   6.5900000000000014E-002   -0.36773326992988586
   6.7000000000000004E-002   -0.35979533195495605
   6.8100000000000022E-002   -0.34895274043083191
   6.9200000000000012E-002   -0.33593839406967163
   7.0300000000000029E-002   -0.32118976116180420
   7.1400000000000019E-002   -0.30496153235435486
   7.2500000000000009E-002   -0.28757032752037048
   7.3600000000000027E-002   -0.26949441432952881
   7.4700000000000016E-002   -0.25121200084686279
   7.5800000000000006E-002   -0.23300389945507050
   7.6900000000000024E-002   -0.21497173607349396
   7.8000000000000014E-002   -0.19722636044025421
   7.9100000000000004E-002   -0.17999812960624695
   8.0200000000000021E-002   -0.16357138752937317
   8.1300000000000011E-002   -0.14808401465415955
   8.2400000000000029E-002   -0.13347440958023071
   8.3500000000000019E-002   -0.11965773999691010
   8.4600000000000009E-002   -0.10670357197523117
   8.5700000000000026E-002    -9.4822727143764496E-002
   8.6800000000000016E-002    -8.4129445254802704E-002
   8.7900000000000006E-002    -7.4474930763244629E-002
   8.9000000000000024E-002    -6.5559543669223785E-002
   9.0100000000000013E-002    -5.7228058576583862E-002
   9.1200000000000003E-002    -4.9621667712926865E-002
   9.2300000000000021E-002    -4.2987145483493805E-002
   9.3400000000000011E-002    -3.7346322089433670E-002
   9.4500000000000028E-002    -3.2389175146818161E-002
   9.5600000000000018E-002    -2.7746740728616714E-002
   9.6700000000000008E-002    -2.3357404395937920E-002
   9.7800000000000026E-002    -1.9516345113515854E-002
   9.8900000000000016E-002    -1.6522711142897606E-002
  0.10000000000000001         -1.4291057363152504E-002
  0.10110000000000002         -1.2361268512904644E-002
  0.10220000000000001         -1.0328767821192741E-002
  0.10330000000000003         -8.2431770861148834E-003
  0.10440000000000002         -6.5326201729476452E-003
  0.10550000000000001         -5.5090594105422497E-003
  0.10660000000000003         -4.9792565405368805E-003
  0.10770000000000002         -4.3980679474771023E-003
  0.10880000000000001         -3.4246360883116722E-003
  0.10990000000000003         -2.2894402500241995E-003
  0.11100000000000002         -1.5562896151095629E-003
  0.11210000000000001         -1.5073366230353713E-003
  0.11320000000000002         -1.8037939444184303E-003
  0.11430000000000001         -1.8059296999126673E-003
  0.11540000000000003         -1.2340032262727618E-003
  0.11650000000000002         -4.6767480671405792E-004
  0.11760000000000001         -1.4515605289489031E-004
  0.11870000000000003         -4.7016234020702541E-004
  0.11980000000000002         -9.6712948288768530E-004
  0.12090000000000001         -9.6593273337930441E-004
  0.12200000000000003         -3.1797910924069583E-004
  0.12310000000000001          4.2282935464754701E-004
  0.12420000000000003          5.6851573754101992E-004
  0.12530000000000002          2.8083402867196128E-005
  0.12640000000000001         -5.7921087136492133E-004
  0.12750000000000003         -5.6750274961814284E-004
  0.12860000000000002          8.5222476627677679E-005
  0.12970000000000001          7.0122670149430633E-004
  0.13080000000000003          6.1754597118124366E-004
  0.13190000000000002         -9.7233962151221931E-005
  0.13300000000000001         -6.9339701440185308E-004
  0.13410000000000000         -5.2363658323884010E-004
  0.13520000000000004          2.6070326566696167E-004
  0.13630000000000003          8.4748526569455862E-004
  0.13740000000000002          6.0840335208922625E-004
  0.13850000000000001         -2.3362219508271664E-004
  0.13960000000000000         -8.2733191084116697E-004
  0.14070000000000005         -5.8457656996324658E-004
  0.14180000000000004          1.9633785996120423E-004
  0.14290000000000003          6.4196134917438030E-004
  0.14400000000000002          2.3185150348581374E-004
  0.14510000000000001         -6.3552282517775893E-004
  0.14620000000000000         -1.0479171760380268E-003
  0.14730000000000004         -5.4057472152635455E-004
  0.14840000000000003          3.9896866655908525E-004
  0.14950000000000002          8.2586432108655572E-004
  0.15060000000000001          3.2356494921259582E-004
  0.15170000000000000         -5.5529508972540498E-004
  0.15280000000000005         -8.6416600970551372E-004
  0.15390000000000004         -2.5656272191554308E-004
  0.15500000000000003          6.4628454856574535E-004
  0.15610000000000002          9.0623693540692329E-004
  0.15720000000000001          2.5750399800017476E-004
  0.15830000000000000         -6.0734356520697474E-004
  0.15940000000000004         -7.6073419768363237E-004
  0.16050000000000003         -1.6159550796146505E-005
  0.16160000000000002          8.6995353922247887E-004
  0.16270000000000001          9.8643579985946417E-004
  0.16380000000000000          2.1995991119183600E-004
  0.16490000000000005         -6.2860792968422174E-004
  0.16600000000000004         -6.8675185320898890E-004
  0.16710000000000003          7.3906143370550126E-005
  0.16820000000000002          8.1137922825291753E-004
  0.16930000000000001          7.0360099198296666E-004
  0.17040000000000000         -1.8183258362114429E-004
  0.17150000000000004         -9.5344439614564180E-004
  0.17260000000000003         -8.2790222950279713E-004
  0.17370000000000002          5.1090035412926227E-005
  0.17480000000000001          7.6577684376388788E-004
  0.17590000000000000          5.8572890702635050E-004
  0.17700000000000005         -2.7316354680806398E-004
  0.17810000000000004         -8.8589184451848269E-004
  0.17920000000000003         -5.9651298215612769E-004
  0.18030000000000002          2.9375622398220003E-004
  0.18140000000000001          8.4910570876672864E-004
  0.18250000000000000          4.8773153685033321E-004
  0.18360000000000004         -4.0555431041866541E-004
  0.18470000000000003         -8.8434386998414993E-004
  0.18580000000000002         -4.3352262582629919E-004
  0.18690000000000001          4.9379788106307387E-004
  0.18800000000000000          9.5468602376058698E-004
  0.18910000000000005          5.0210452172905207E-004
  0.19020000000000004         -3.5723464679904282E-004
  0.19130000000000003         -7.0668518310412765E-004
  0.19240000000000002         -1.8615866429172456E-004
  0.19350000000000001          6.3487177249044180E-004
  0.19460000000000005          8.6316303350031376E-004
  0.19570000000000004          2.2311670181807131E-004
  0.19680000000000003         -6.5481750061735511E-004
  0.19790000000000002         -8.9500122703611851E-004
  0.19900000000000001         -2.8752200887538493E-004
  0.20010000000000000          5.0407042726874352E-004
  0.20120000000000005          6.4642407232895494E-004
  0.20230000000000004          5.8186842579743825E-006
  0.20340000000000003         -7.2584161534905434E-004
  0.20450000000000002         -7.6943699968978763E-004
  0.20560000000000000         -7.7995231549721211E-005
  0.20670000000000005          6.2083214288577437E-004
  0.20780000000000004          5.9428921667858958E-004
  0.20890000000000003         -1.2770266039296985E-004
