 -0.12000000000000000          0.0000000000000000
 -0.11889999999999999          0.0000000000000000
 -0.11780000000000000          0.0000000000000000
 -0.11670000000000000          0.0000000000000000
 -0.11559999999999999          0.0000000000000000
 -0.11449999999999999          0.0000000000000000
 -0.11340000000000000          0.0000000000000000
 -0.11230000000000000          0.0000000000000000
 -0.11119999999999999          0.0000000000000000
 -0.11009999999999999          0.0000000000000000
 -0.10900000000000000         -1.7969930946191903E-026
 -0.10790000000000000          2.7681111907873003E-025
 -0.10679999999999999          4.1635538207844927E-024
 -0.10569999999999999          1.9655201516501554E-023
 -0.10460000000000000          2.9863014298407134E-023
 -0.10349999999999999         -1.0380107576670539E-022
 -0.10239999999999999         -6.3566426888838512E-022
 -0.10130000000000000         -1.2535341581614892E-021
 -0.10020000000000000          3.6746375374739220E-022
  -9.9099999999999994E-002     7.9319277900311812E-021
  -9.7999999999999990E-002     1.8336993133450936E-020
  -9.6899999999999986E-002     8.8749500390521453E-021
  -9.5799999999999996E-002    -5.2923723218307356E-020
  -9.4699999999999993E-002    -1.4305101247248378E-019
  -9.3599999999999989E-002    -1.0273062342616637E-019
  -9.2499999999999999E-002     2.6352423352290925E-019
  -9.1399999999999995E-002     7.6452597215156345E-019
  -9.0299999999999991E-002     4.5340431861628102E-019
  -8.9200000000000002E-002    -1.6173642280411258E-018
  -8.8099999999999984E-002    -4.0094312830088432E-018
  -8.6999999999999994E-002    -1.3232291419749261E-018
  -8.5899999999999990E-002     1.1159247144130356E-017
  -8.4799999999999986E-002     2.5011450255598547E-017
  -8.3699999999999997E-002     1.1134450750907853E-017
  -8.2599999999999993E-002    -5.7602925564281923E-017
  -8.1499999999999989E-002    -1.4674319062566680E-016
  -8.0399999999999999E-002    -1.1901141134189981E-016
  -7.9299999999999995E-002     1.7995312902602137E-016
  -7.8199999999999992E-002     6.6925978986693592E-016
  -7.7100000000000002E-002     8.1421280282836035E-016
  -7.5999999999999984E-002    -1.3566272912615967E-016
  -7.4899999999999994E-002    -2.2283406080769600E-015
  -7.3799999999999991E-002    -3.8083329756887982E-015
  -7.2699999999999987E-002    -1.8969158858159023E-015
  -7.1599999999999997E-002     4.9879868674839161E-015
  -7.0499999999999993E-002     1.2989008841754728E-014
  -6.9399999999999989E-002     1.2499855785044842E-014
  -6.8300000000000000E-002    -4.6543363543957109E-015
  -6.7199999999999996E-002    -3.2825843687125586E-014
  -6.6099999999999992E-002    -4.6804360653027524E-014
  -6.5000000000000002E-002    -1.6521911266951898E-014
  -6.3899999999999985E-002     5.9024169558018202E-014
  -6.2799999999999995E-002     1.2617173744591120E-013
  -6.1699999999999991E-002     9.8843927021172867E-014
  -6.0599999999999994E-002    -6.1502493093994193E-014
  -5.9499999999999990E-002    -2.6380097108494316E-013
  -5.8399999999999994E-002    -3.0306088042754420E-013
  -5.7299999999999990E-002    -2.5043062716330160E-014
  -5.6199999999999986E-002     4.5600995852643211E-013
  -5.5099999999999996E-002     7.1359579486771074E-013
  -5.3999999999999992E-002     3.0814348468688468E-013
  -5.2899999999999989E-002    -7.0367127923132156E-013
  -5.1799999999999985E-002    -1.5197597954402786E-012
  -5.0699999999999995E-002    -1.0625479445955377E-012
  -4.9599999999999991E-002     9.3676791584201835E-013
  -4.8499999999999988E-002     3.1282407220167840E-012
  -4.7399999999999998E-002     3.1089460433147975E-012
  -4.6299999999999994E-002    -4.7363453220192198E-013
  -4.5199999999999990E-002    -5.7817821710881567E-012
  -4.4099999999999986E-002    -7.9959884199953812E-012
  -4.2999999999999997E-002    -2.9326033788856787E-012
  -4.1899999999999993E-002     8.0819049369518225E-012
  -4.0799999999999989E-002     1.6729988921992955E-011
  -3.9699999999999985E-002     1.2925149665832247E-011
  -3.8599999999999995E-002    -5.5451854046040250E-012
  -3.7499999999999992E-002    -2.7037219685333014E-011
  -3.6399999999999988E-002    -3.1664400268471837E-011
  -3.5299999999999984E-002    -7.8283534168943625E-012
  -3.4199999999999994E-002     3.2666098992439885E-011
  -3.3099999999999991E-002     5.6957400601520547E-011
  -3.1999999999999987E-002     3.5579567070342932E-011
  -3.0899999999999997E-002    -2.7074398278870149E-011
  -2.9799999999999993E-002    -8.4663748234348191E-011
  -2.8699999999999989E-002    -7.9560955046353854E-011
  -2.7599999999999986E-002     4.4045214524224274E-012
  -2.6499999999999996E-002     1.1183812903547974E-010
  -2.5399999999999992E-002     1.4592886621311862E-010
  -2.4299999999999988E-002     4.9315138778149858E-011
  -2.3199999999999985E-002    -1.2721530773251999E-010
  -2.2099999999999995E-002    -2.3938667714773487E-010
  -2.0999999999999991E-002    -1.5934484287605244E-010
  -1.9899999999999987E-002     9.6595606513538712E-011
  -1.8799999999999983E-002     3.4032682227902455E-010
  -1.7699999999999994E-002     3.4018277084157944E-010
  -1.6599999999999990E-002     2.6888795010004962E-011
  -1.5499999999999986E-002    -3.9680153607335455E-010
  -1.4399999999999996E-002    -5.7206661630004874E-010
  -1.3299999999999992E-002    -2.7541294245203574E-010
  -1.2199999999999989E-002     3.4212810362532764E-010
  -1.1099999999999985E-002     8.0246653766380405E-010
  -9.9999999999999950E-003     6.5810001892430137E-010
  -8.8999999999999913E-003    -9.7660532438759162E-011
  -7.7999999999999875E-003    -9.3019786318038200E-010
  -6.6999999999999837E-003    -1.1285193890486767E-009
  -5.5999999999999939E-003    -3.9989686562158511E-010
  -4.4999999999999901E-003     7.9486028869979464E-010
  -3.3999999999999864E-003     1.5121056629041618E-009
  -2.2999999999999826E-003     1.0676532991027443E-009
  -1.1999999999999927E-003    -3.2705521624265543E-010
  -9.9999999999988987E-005    -1.6126252555537235E-009
   1.0000000000000148E-003    -1.6764550858638927E-009
   2.1000000000000185E-003    -3.0912492010592985E-010
   3.2000000000000084E-003     1.4892354016637910E-009
   4.3000000000000121E-003     2.2088451068213999E-009
   5.4000000000000159E-003     1.0649722215205770E-009
   6.5000000000000058E-003    -1.2274957716940094E-009
   7.6000000000000234E-003    -2.8617366254479748E-009
   8.7000000000000133E-003    -2.3262143322710926E-009
   9.8000000000000032E-003     2.8535149243502644E-010
   1.0900000000000021E-002     3.1468931904754527E-009
   1.2000000000000011E-002     3.9872101176285923E-009
   1.3100000000000001E-002     1.8763874898297672E-009
   1.4200000000000018E-002    -1.8932568845997366E-009
   1.5300000000000008E-002    -4.6178860735324179E-009
   1.6400000000000026E-002    -4.1730303657061540E-009
   1.7500000000000016E-002    -7.0029820831152279E-010
   1.8600000000000005E-002     3.3495923812409956E-009
   1.9700000000000023E-002     4.9540571644968168E-009
   2.0800000000000013E-002     2.8029432108667152E-009
   2.1900000000000003E-002    -1.5907133388282091E-009
   2.3000000000000020E-002    -4.8731552126923816E-009
   2.4100000000000010E-002    -4.3106593849984165E-009
   2.5200000000000000E-002     3.8444674527182698E-011
   2.6300000000000018E-002     5.1077373441898999E-009
   2.7400000000000008E-002     6.8880368075951992E-009
   2.8500000000000025E-002     3.4215563715633834E-009
   2.9600000000000015E-002    -3.4433293993885172E-009
   3.0700000000000005E-002    -8.9929113045172926E-009
   3.1800000000000023E-002    -8.8757685645646234E-009
   3.2900000000000013E-002    -2.4391051400840524E-009
   3.4000000000000002E-002     6.3492402446740925E-009
   3.5100000000000020E-002     1.1388668674783275E-008
   3.6200000000000010E-002     8.8419565003050593E-009
   3.7300000000000028E-002     2.6125060448300985E-010
   3.8400000000000017E-002    -8.1516509098378265E-009
   3.9500000000000007E-002    -1.0021162566431485E-008
   4.0600000000000025E-002    -3.8735645802034924E-009
   4.1700000000000015E-002     5.2166710950984907E-009
   4.2800000000000005E-002     9.1719538630741226E-009
   4.3900000000000022E-002     3.3870457549767252E-009
   4.5000000000000012E-002    -8.8291693955966366E-009
   4.6100000000000002E-002    -1.7772400440208003E-008
   4.7200000000000020E-002    -1.4341720699917460E-008
   4.8300000000000010E-002     2.5055146846142407E-009
   4.9400000000000027E-002     2.3806222770872409E-008
   5.0500000000000017E-002     3.6289048210846886E-008
   5.1600000000000007E-002     3.1931715938071648E-008
   5.2700000000000025E-002     1.4222132804775356E-008
   5.3800000000000014E-002    -3.9193333023490595E-009
   5.4900000000000004E-002    -9.3396588241034806E-009
   5.6000000000000022E-002     1.8549654035027174E-009
   5.7100000000000012E-002     2.1799190008664482E-008
   5.8200000000000002E-002     3.7387376750075418E-008
   5.9300000000000019E-002     4.0863550765379841E-008
   6.0400000000000009E-002     3.6291083915784839E-008
   6.1500000000000027E-002     3.6786822477097303E-008
   6.2600000000000017E-002     5.4469396104650514E-008
   6.3700000000000007E-002     9.0711900213591434E-008
   6.4800000000000024E-002     1.3421150413250871E-007
   6.5900000000000014E-002     1.6867163310507749E-007
   6.7000000000000004E-002     1.8480326957615034E-007
   6.8100000000000022E-002     1.8807769208706304E-007
   6.9200000000000012E-002     1.9652536309422430E-007
   7.0300000000000029E-002     2.2980654534876521E-007
   7.1400000000000019E-002     2.9693228498217650E-007
   7.2500000000000009E-002     3.9114141259233293E-007
   7.3600000000000027E-002     4.9570309101909515E-007
   7.4700000000000016E-002     5.9690029274861445E-007
   7.5800000000000006E-002     6.9521428258667584E-007
   7.6900000000000024E-002     8.0654416478864732E-007
   7.8000000000000014E-002     9.5203546379707404E-007
   7.9100000000000004E-002     1.1434476618887857E-006
   8.0200000000000021E-002     1.3749679510510759E-006
   8.1300000000000011E-002     1.6284975572489202E-006
   8.2400000000000029E-002     1.8897062545875087E-006
   8.3500000000000019E-002     2.1634243694279576E-006
   8.4600000000000009E-002     2.4761673103057547E-006
   8.5700000000000026E-002     2.8624033348023659E-006
   8.6800000000000016E-002     3.3436069770687027E-006
   8.7900000000000006E-002     3.9156179809651803E-006
   8.9000000000000024E-002     4.5545880311692599E-006
   9.0100000000000013E-002     5.2379318731254898E-006
   9.1200000000000003E-002     5.9648255046340637E-006
   9.2300000000000021E-002     6.7605187723529525E-006
   9.3400000000000011E-002     7.6609248935710639E-006
   9.4500000000000028E-002     8.6892587205511518E-006
   9.5600000000000018E-002     9.8427672128309496E-006
   9.6700000000000008E-002     1.1099778930656612E-005
   9.7800000000000026E-002     1.2441357284842525E-005
   9.8900000000000016E-002     1.3870497241441626E-005
  0.10000000000000001          1.5413919754792005E-005
  0.10110000000000002          1.7105068764067255E-005
  0.10220000000000001          1.8961047317134216E-005
  0.10330000000000003          2.0970241166651249E-005
  0.10440000000000002          2.3098997189663351E-005
  0.10550000000000001          2.5311777790193446E-005
  0.10660000000000003          2.7590420359047130E-005
  0.10770000000000002          2.9939639716758393E-005
  0.10880000000000001          3.2375701266573742E-005
  0.10990000000000003          3.4906472137663513E-005
  0.11100000000000002          3.7515994335990399E-005
  0.11210000000000001          4.0163235098589212E-005
  0.11320000000000002          4.2795792978722602E-005
  0.11430000000000001          4.5369550207396969E-005
  0.11540000000000003          4.7860954509815201E-005
  0.11650000000000002          5.0262773584108800E-005
  0.11760000000000001          5.2564719226211309E-005
  0.11870000000000003          5.4731943237129599E-005
  0.11980000000000002          5.6697997933952138E-005
  0.12090000000000001          5.8379904658067971E-005
  0.12200000000000003          5.9706319007091224E-005
  0.12310000000000001          6.0638129070866853E-005
  0.12420000000000003          6.1165032093413174E-005
  0.12530000000000002          6.1279082729015499E-005
  0.12640000000000001          6.0945360019104555E-005
  0.12750000000000003          6.0094411310274154E-005
  0.12860000000000002          5.8644105592975393E-005
  0.12970000000000001          5.6534710893174633E-005
  0.13080000000000003          5.3749608923681080E-005
  0.13190000000000002          5.0305883632972836E-005
  0.13300000000000001          4.6222863602451980E-005
  0.13410000000000000          4.1494957258692011E-005
  0.13520000000000004          3.6091340007260442E-005
  0.13630000000000003          2.9981481930008158E-005
  0.13740000000000002          2.3165037418948486E-005
  0.13850000000000001          1.5682968296459876E-005
  0.13960000000000000          7.6039782470616046E-006
  0.14070000000000005         -9.9923943253088510E-007
  0.14180000000000004         -1.0064355592476204E-005
  0.14290000000000003         -1.9536082618287764E-005
  0.14400000000000002         -2.9352404453675263E-005
  0.14510000000000001         -3.9433267374988645E-005
  0.14620000000000000         -4.9678645154926926E-005
  0.14730000000000004         -5.9973906900268048E-005
  0.14840000000000003         -7.0196467277128249E-005
  0.14950000000000002         -8.0222562246490270E-005
  0.15060000000000001         -8.9935114374384284E-005
  0.15170000000000000         -9.9230703199282289E-005
  0.15280000000000005         -1.0801840835483745E-004
  0.15390000000000004         -1.1620744044193998E-004
  0.15500000000000003         -1.2369129399303347E-004
  0.15610000000000002         -1.3034367293585092E-004
  0.15720000000000001         -1.3603671686723828E-004
  0.15830000000000000         -1.4067137090023607E-004
  0.15940000000000004         -1.4419537910725921E-004
  0.16050000000000003         -1.4659069711342454E-004
  0.16160000000000002         -1.4783903316128999E-004
  0.16270000000000001         -1.4789705164730549E-004
  0.16380000000000000         -1.4670698146801442E-004
  0.16490000000000005         -1.4423739048652351E-004
  0.16600000000000004         -1.4051883772481233E-004
  0.16710000000000003         -1.3563981337938458E-004
  0.16820000000000002         -1.2970322859473526E-004
  0.16930000000000001         -1.2278142094146460E-004
  0.17040000000000000         -1.1491008626762778E-004
  0.17150000000000004         -1.0612646292429417E-004
  0.17260000000000003         -9.6516392659395933E-005
  0.17370000000000002         -8.6225889390334487E-005
  0.17480000000000001         -7.5426774856168777E-005
  0.17590000000000000         -6.4269443100783974E-005
  0.17700000000000005         -5.2867151680402458E-005
  0.17810000000000004         -4.1323892219224945E-005
  0.17920000000000003         -2.9773034839308821E-005
  0.18030000000000002         -1.8384109353064559E-005
  0.18140000000000001         -7.3282658377138432E-006
  0.18250000000000000          3.2628231565468013E-006
  0.18360000000000004          1.3301944818522315E-005
  0.18470000000000003          2.2709549739374779E-005
  0.18580000000000002          3.1373445381177589E-005
  0.18690000000000001          3.9149068470578641E-005
  0.18800000000000000          4.5902888814453036E-005
  0.18910000000000005          5.1555180107243359E-005
  0.19020000000000004          5.6076689361361787E-005
  0.19130000000000003          5.9439636970637366E-005
  0.19240000000000002          6.1571714468300343E-005
  0.19350000000000001          6.2362771132029593E-005
  0.19460000000000005          6.1720456869807094E-005
  0.19570000000000004          5.9618858358589932E-005
  0.19680000000000003          5.6087097618728876E-005
  0.19790000000000002          5.1144408644177020E-005
  0.19900000000000001          4.4745756895281374E-005
  0.20010000000000000          3.6794455809285864E-005
  0.20120000000000005          2.7212350687477738E-005
  0.20230000000000004          1.5996709407772869E-005
  0.20340000000000003          3.2023706353356829E-006
  0.20450000000000002         -1.1137581168441102E-005
  0.20560000000000000         -2.7073852834291756E-005
  0.20670000000000005         -4.4718046410707757E-005
  0.20780000000000004         -6.4150779508054256E-005
  0.20890000000000003         -8.5348947322927415E-005
