 -0.12000000000000000         -3.0056173727643909E-006
 -0.11889999999999999         -7.2107241066987626E-006
 -0.11780000000000000         -7.2634720709174871E-006
 -0.11670000000000000         -4.4526300371217076E-006
 -0.11559999999999999         -2.8334434318821877E-006
 -0.11449999999999999         -4.9506948016642127E-006
 -0.11340000000000000         -9.3075786935514770E-006
 -0.11230000000000000         -1.2197971955174580E-005
 -0.11119999999999999         -1.1900745448656380E-005
 -0.11009999999999999         -1.0752030902949627E-005
 -0.10900000000000000         -1.2869205420429353E-005
 -0.10790000000000000         -1.9908980902982876E-005
 -0.10679999999999999         -2.9340926630538888E-005
 -0.10569999999999999         -3.7093592254677787E-005
 -0.10460000000000000         -4.1842271457426250E-005
 -0.10349999999999999         -4.6478635340463370E-005
 -0.10239999999999999         -5.5249489378184080E-005
 -0.10130000000000000         -6.9578447437379509E-005
 -0.10020000000000000         -8.6942432972136885E-005
  -9.9099999999999994E-002    -1.0395168646937236E-004
  -9.7999999999999990E-002    -1.2037183478241786E-004
  -9.6899999999999986E-002    -1.3985480472911149E-004
  -9.5799999999999996E-002    -1.6661688277963549E-004
  -9.4699999999999993E-002    -2.0155665697529912E-004
  -9.3599999999999989E-002    -2.4188394309021533E-004
  -9.2499999999999999E-002    -2.8464337810873985E-004
  -9.1399999999999995E-002    -3.3044366864487529E-004
  -9.0299999999999991E-002    -3.8351185503415763E-004
  -8.9200000000000002E-002    -4.4805440120398998E-004
  -8.8099999999999984E-002    -5.2475515985861421E-004
  -8.6999999999999994E-002    -6.1105994973331690E-004
  -8.5899999999999990E-002    -7.0490653160959482E-004
  -8.4799999999999986E-002    -8.0795970279723406E-004
  -8.3699999999999997E-002    -9.2496804427355528E-004
  -8.2599999999999993E-002    -1.0599392699077725E-003
  -8.1499999999999989E-002    -1.2131385738030076E-003
  -8.0399999999999999E-002    -1.3819943415001035E-003
  -7.9299999999999995E-002    -1.5648845583200455E-003
  -7.8199999999999992E-002    -1.7637900309637189E-003
  -7.7100000000000002E-002    -1.9830351229757071E-003
  -7.5999999999999984E-002    -2.2254798095673323E-003
  -7.4899999999999994E-002    -2.4901614524424076E-003
  -7.3799999999999991E-002    -2.7737936470657587E-003
  -7.2699999999999987E-002    -3.0744539108127356E-003
  -7.1599999999999997E-002    -3.3935056999325752E-003
  -7.0499999999999993E-002    -3.7337029352784157E-003
  -6.9399999999999989E-002    -4.0954584255814552E-003
  -6.8300000000000000E-002    -4.4751628302037716E-003
  -6.7199999999999996E-002    -4.8672189004719257E-003
  -6.6099999999999992E-002    -5.2675642073154449E-003
  -6.5000000000000002E-002    -5.6749214418232441E-003
  -6.3899999999999985E-002    -6.0884412378072739E-003
  -6.2799999999999995E-002    -6.5042385831475258E-003
  -6.1699999999999991E-002    -6.9144563749432564E-003
  -6.0599999999999994E-002    -7.3098232969641685E-003
  -5.9499999999999990E-002    -7.6829274185001850E-003
  -5.8399999999999994E-002    -8.0287791788578033E-003
  -5.7299999999999990E-002    -8.3421636372804642E-003
  -5.6199999999999986E-002    -8.6145885288715363E-003
  -5.5099999999999996E-002    -8.8341599330306053E-003
  -5.3999999999999992E-002    -8.9884996414184570E-003
  -5.2899999999999989E-002    -9.0677654370665550E-003
  -5.1799999999999985E-002    -9.0647395700216293E-003
  -5.0699999999999995E-002    -8.9719686657190323E-003
  -4.9599999999999991E-002    -8.7792389094829559E-003
  -4.8499999999999988E-002    -8.4742233157157898E-003
  -4.7399999999999998E-002    -8.0457506701350212E-003
  -4.6299999999999994E-002    -7.4865412898361683E-003
  -4.5199999999999990E-002    -6.7927590571343899E-003
  -4.4099999999999986E-002    -5.9611201286315918E-003
  -4.2999999999999997E-002    -4.9868682399392128E-003
  -4.1899999999999993E-002    -3.8650026544928551E-003
  -4.0799999999999989E-002    -2.5935799349099398E-003
  -3.9699999999999985E-002    -1.1758512118831277E-003
  -3.8599999999999995E-002     3.8073409814387560E-004
  -3.7499999999999992E-002     2.0675105042755604E-003
  -3.6399999999999988E-002     3.8761729374527931E-003
  -3.5299999999999984E-002     5.7972758077085018E-003
  -3.4199999999999994E-002     7.8171994537115097E-003
  -3.3099999999999991E-002     9.9167916923761368E-003
  -3.1999999999999987E-002     1.2073065154254436E-002
  -3.0899999999999997E-002     1.4262199401855469E-002
  -2.9799999999999993E-002     1.6460984945297241E-002
  -2.8699999999999989E-002     1.8645400181412697E-002
  -2.7599999999999986E-002     2.0788135007023811E-002
  -2.6499999999999996E-002     2.2858055308461189E-002
  -2.5399999999999992E-002     2.4822527542710304E-002
  -2.4299999999999988E-002     2.6650549843907356E-002
  -2.3199999999999985E-002     2.8313910588622093E-002
  -2.2099999999999995E-002     2.9785735532641411E-002
  -2.0999999999999991E-002     3.1038532033562660E-002
  -1.9899999999999987E-002     3.2044358551502228E-002
  -1.8799999999999983E-002     3.2777436077594757E-002
  -1.7699999999999994E-002     3.3216968178749084E-002
  -1.6599999999999990E-002     3.3347789198160172E-002
  -1.5499999999999986E-002     3.3158637583255768E-002
  -1.4399999999999996E-002     3.2640390098094940E-002
  -1.3299999999999992E-002     3.1786501407623291E-002
  -1.2199999999999989E-002     3.0595440417528152E-002
  -1.1099999999999985E-002     2.9072683304548264E-002
  -9.9999999999999950E-003     2.7230365201830864E-002
  -8.8999999999999913E-003     2.5085186585783958E-002
  -7.7999999999999875E-003     2.2656586021184921E-002
  -6.6999999999999837E-003     1.9966967403888702E-002
  -5.5999999999999939E-003     1.7043504863977432E-002
  -4.4999999999999901E-003     1.3919134624302387E-002
  -3.3999999999999864E-003     1.0631434619426727E-002
  -2.2999999999999826E-003     7.2200656868517399E-003
  -1.1999999999999927E-003     3.7246490828692913E-003
  -9.9999999999988987E-005     1.8497592827770859E-004
   1.0000000000000148E-003    -3.3575084526091814E-003
   2.1000000000000185E-003    -6.8593905307352543E-003
   3.2000000000000084E-003    -1.0276960209012032E-002
   4.3000000000000121E-003    -1.3569019734859467E-002
   5.4000000000000159E-003    -1.6698401421308517E-002
   6.5000000000000058E-003    -1.9631318747997284E-002
   7.6000000000000234E-003    -2.2336140275001526E-002
   8.7000000000000133E-003    -2.4783212691545486E-002
   9.8000000000000032E-003    -2.6946466416120529E-002
   1.0900000000000021E-002    -2.8805561363697052E-002
   1.2000000000000011E-002    -3.0346598476171494E-002
   1.3100000000000001E-002    -3.1560957431793213E-002
   1.4200000000000018E-002    -3.2443691045045853E-002
   1.5300000000000008E-002    -3.2993193715810776E-002
   1.6400000000000026E-002    -3.3212374895811081E-002
   1.7500000000000016E-002    -3.3109899610280991E-002
   1.8600000000000005E-002    -3.2700035721063614E-002
   1.9700000000000023E-002    -3.2000996172428131E-002
   2.0800000000000013E-002    -3.1033091247081757E-002
   2.1900000000000003E-002    -2.9818266630172729E-002
   2.3000000000000020E-002    -2.8380909934639931E-002
   2.4100000000000010E-002    -2.6748539879918098E-002
   2.5200000000000000E-002    -2.4951143190264702E-002
   2.6300000000000018E-002    -2.3019379004836082E-002
   2.7400000000000008E-002    -2.0983014255762100E-002
   2.8500000000000025E-002    -1.8870633095502853E-002
   2.9600000000000015E-002    -1.6710396856069565E-002
   3.0700000000000005E-002    -1.4530449174344540E-002
   3.1800000000000023E-002    -1.2358237989246845E-002
   3.2900000000000013E-002    -1.0219031013548374E-002
   3.4000000000000002E-002    -8.1349061802029610E-003
   3.5100000000000020E-002    -6.1249984428286552E-003
   3.6200000000000010E-002    -4.2063682340085506E-003
   3.7300000000000028E-002    -2.3944729473441839E-003
   3.8400000000000017E-002    -7.0263451198115945E-004
   3.9500000000000007E-002     8.5891719209030271E-004
   4.0600000000000025E-002     2.2834008559584618E-003
   4.1700000000000015E-002     3.5667992196977139E-003
   4.2800000000000005E-002     4.7069326974451542E-003
   4.3900000000000022E-002     5.7030292227864265E-003
   4.5000000000000012E-002     6.5560769289731979E-003
   4.6100000000000002E-002     7.2694267146289349E-003
   4.7200000000000020E-002     7.8486381098628044E-003
   4.8300000000000010E-002     8.3006676286458969E-003
   4.9400000000000027E-002     8.6330659687519073E-003
   5.0500000000000017E-002     8.8537055999040604E-003
   5.1600000000000007E-002     8.9711416512727737E-003
   5.2700000000000025E-002     8.9948968961834908E-003
   5.3800000000000014E-002     8.9351981878280640E-003
   5.4900000000000004E-002     8.8022667914628983E-003
   5.6000000000000022E-002     8.6056776344776154E-003
   5.7100000000000012E-002     8.3543648943305016E-003
   5.8200000000000002E-002     8.0570857971906662E-003
   5.9300000000000019E-002     7.7226581051945686E-003
   6.0400000000000009E-002     7.3596462607383728E-003
   6.1500000000000027E-002     6.9758193567395210E-003
   6.2600000000000017E-002     6.5778624266386032E-003
   6.3700000000000007E-002     6.1716046184301376E-003
   6.4800000000000024E-002     5.7624601759016514E-003
   6.5900000000000014E-002     5.3555592894554138E-003
   6.7000000000000004E-002     4.9554486759006977E-003
   6.8100000000000022E-002     4.5657404698431492E-003
   6.9200000000000012E-002     4.1891136206686497E-003
   7.0300000000000029E-002     3.8276549894362688E-003
   7.1400000000000019E-002     3.4831778611987829E-003
   7.2500000000000009E-002     3.1572340521961451E-003
   7.3600000000000027E-002     2.8508880641311407E-003
   7.4700000000000016E-002     2.5645848363637924E-003
   7.5800000000000006E-002     2.2983087692409754E-003
   7.6900000000000024E-002     2.0518819801509380E-003
   7.8000000000000014E-002     1.8250977154821157E-003
   7.9100000000000004E-002     1.6175953205674887E-003
   8.0200000000000021E-002     1.4286767691373825E-003
   8.1300000000000011E-002     1.2573315761983395E-003
   8.2400000000000029E-002     1.1024869745597243E-003
   8.3500000000000019E-002     9.6321169985458255E-004
   8.4600000000000009E-002     8.3865626947954297E-004
   8.5700000000000026E-002     7.2782073402777314E-004
   8.6800000000000016E-002     6.2945793615654111E-004
   8.7900000000000006E-002     5.4227461805567145E-004
   8.9000000000000024E-002     4.6523581841029227E-004
   9.0100000000000013E-002     3.9763160748407245E-004
   9.1200000000000003E-002     3.3881847048178315E-004
   9.2300000000000021E-002     2.8791619115509093E-004
   9.3400000000000011E-002     2.4381403636652976E-004
   9.4500000000000028E-002     2.0550584304146469E-004
   9.5600000000000018E-002     1.7239229055121541E-004
   9.6700000000000008E-002     1.4419897343032062E-004
   9.7800000000000026E-002     1.2057348794769496E-004
   9.8900000000000016E-002     1.0079532512463629E-004
  0.10000000000000001          8.3935308794025332E-005
  0.10110000000000002          6.9317720772232860E-005
  0.10220000000000001          5.6789365771692246E-005
  0.10330000000000003          4.6484801714541391E-005
  0.10440000000000002          3.8318343285936862E-005
  0.10550000000000001          3.1746014428790659E-005
  0.10660000000000003          2.6066680220537819E-005
  0.10770000000000002          2.0947398297721520E-005
  0.10880000000000001          1.6596362911514007E-005
  0.10990000000000003          1.3371209206525236E-005
  0.11100000000000002          1.1224851732549723E-005
  0.11210000000000001          9.5893083198461682E-006
  0.11320000000000002          7.8439734352286905E-006
  0.11430000000000001          5.8812470342672896E-006
  0.11540000000000003          4.1565549508959521E-006
  0.11650000000000002          3.1484300961892586E-006
  0.11760000000000001          2.7933958790526958E-006
  0.11870000000000003          2.5064948658837238E-006
  0.11980000000000002          1.7809310293159797E-006
  0.12090000000000001          7.2984119015018223E-007
  0.12200000000000003         -2.4651928498542475E-008
  0.12310000000000001         -1.9995486155721665E-008
  0.12420000000000003          5.2482306500678533E-007
  0.12530000000000002          9.0305144340163679E-007
  0.12640000000000001          6.4355702988905250E-007
  0.12750000000000003          1.0483581780462714E-009
  0.12860000000000002         -3.1950580137163342E-007
  0.12970000000000001          7.3728926963667618E-008
  0.13080000000000003          8.1836941490109893E-007
  0.13190000000000002          1.1624571243373794E-006
  0.13300000000000001          7.6291769346426008E-007
  0.13410000000000000          6.9255470691587107E-008
  0.13520000000000004         -1.3268234511087940E-007
  0.13630000000000003          4.4813472754867689E-007
  0.13740000000000002          1.2798582247341983E-006
  0.13850000000000001          1.5439126173077966E-006
  0.13960000000000000          9.8325574526825221E-007
  0.14070000000000005          1.6881504905086331E-007
  0.14180000000000004         -1.0530390426310987E-007
  0.14290000000000003          3.3490542250547151E-007
  0.14400000000000002          8.5634690094593680E-007
  0.14510000000000001          6.9575736461047200E-007
  0.14620000000000000         -2.0966695046809036E-007
  0.14730000000000004         -1.1227886034248513E-006
  0.14840000000000003         -1.2582014505824191E-006
  0.14950000000000002         -6.0178564353918773E-007
  0.15060000000000001          6.8602602709688654E-008
  0.15170000000000000         -6.8749419490643504E-009
  0.15280000000000005         -7.7554170729854377E-007
  0.15390000000000004         -1.4303965372164384E-006
  0.15500000000000003         -1.2636886594918906E-006
  0.15610000000000002         -4.1814726614575193E-007
  0.15720000000000001          2.5867552722047549E-007
  0.15830000000000000          1.0772769343248001E-007
  0.15940000000000004         -6.4109258346434217E-007
  0.16050000000000003         -1.1033765758838854E-006
  0.16160000000000002         -6.6809730014938395E-007
  0.16270000000000001          3.5547611787478672E-007
  0.16380000000000000          1.0538615242694505E-006
  0.16490000000000005          8.5796375515201362E-007
  0.16600000000000004          1.2739727139887691E-007
  0.16710000000000003         -2.4309707669090130E-007
  0.16820000000000002          2.2124339693618822E-007
  0.16930000000000001          1.0665457921277266E-006
  0.17040000000000000          1.3854987628292292E-006
  0.17150000000000004          7.7684359212071286E-007
  0.17260000000000003         -2.2123592202660802E-007
  0.17370000000000002         -6.8120499463475426E-007
  0.17480000000000001         -2.4332351244993333E-007
  0.17590000000000000          5.2298946684459224E-007
  0.17700000000000005          7.2849746857173159E-007
  0.17810000000000004          9.9914970519421331E-008
  0.17920000000000003         -7.4055412824236555E-007
  0.18030000000000002         -9.3978252380111371E-007
  0.18140000000000001         -3.1717220849714067E-007
  0.18250000000000000          4.4499921614260529E-007
  0.18360000000000004          5.2172680398143711E-007
  0.18470000000000003         -1.8449118499574979E-007
  0.18580000000000002         -9.3783728516427800E-007
  0.18690000000000001         -9.3579211579708499E-007
  0.18800000000000000         -1.4152124094835017E-007
  0.18910000000000005          6.8758504312427249E-007
  0.19020000000000004          7.9660082974442048E-007
  0.19130000000000003          2.1330095023586182E-007
  0.19240000000000002         -3.0338441092681023E-007
  0.19350000000000001         -8.2235054321699863E-008
  0.19460000000000005          7.4181434683850966E-007
  0.19570000000000004          1.3634785318572540E-006
  0.19680000000000003          1.1485216191431391E-006
  0.19790000000000002          2.9433388704092067E-007
  0.19900000000000001         -3.7908245076323510E-007
  0.20010000000000000         -2.8054415679434896E-007
  0.20120000000000005          3.5343714444024954E-007
  0.20230000000000004          7.3155217705789255E-007
  0.20340000000000003          3.5257474451100279E-007
  0.20450000000000002         -4.7048024498508312E-007
  0.20560000000000000         -9.5074670980466180E-007
  0.20670000000000005         -6.6322940028840094E-007
  0.20780000000000004          7.6760802159014929E-009
  0.20890000000000003          2.7509457822816330E-007
