 -0.12000000000000000          0.0000000000000000
 -0.11889999999999999          0.0000000000000000
 -0.11780000000000000          0.0000000000000000
 -0.11670000000000000          0.0000000000000000
 -0.11559999999999999          0.0000000000000000
 -0.11449999999999999          0.0000000000000000
 -0.11340000000000000          7.2762223970071513E-019
 -0.11230000000000000          2.5222109996560508E-018
 -0.11119999999999999         -7.5876069905787644E-018
 -0.11009999999999999         -5.9272453973099443E-017
 -0.10900000000000000         -9.2052576092289329E-017
 -0.10790000000000000          2.5178567870855461E-016
 -0.10679999999999999          1.3620448610526365E-015
 -0.10569999999999999          2.1002757909575090E-015
 -0.10460000000000000         -1.8593982554828015E-015
 -0.10349999999999999         -1.4594286201632603E-014
 -0.10239999999999999         -2.7289981933313779E-014
 -0.10130000000000000         -7.2472664127527133E-015
 -0.10020000000000000          8.0572186292657111E-014
  -9.9099999999999994E-002     2.0118963732408807E-013
  -9.7999999999999990E-002     1.8383988179427988E-013
  -9.6899999999999986E-002    -1.9480021708117449E-013
  -9.5799999999999996E-002    -8.9521554232081613E-013
  -9.4699999999999993E-002    -1.2829701493896447E-012
  -9.3599999999999989E-002    -3.1835731967307599E-013
  -9.2499999999999999E-002     2.3698274245751781E-012
  -9.1399999999999995E-002     5.1329799785613500E-012
  -9.0299999999999991E-002     4.3758959129836301E-012
  -8.9200000000000002E-002    -2.5702543392231662E-012
  -8.8099999999999984E-002    -1.3045682589750985E-011
  -8.6999999999999994E-002    -1.7672963786851658E-011
  -8.5899999999999990E-002    -6.3677687255075223E-012
  -8.4799999999999986E-002     2.0034947659229073E-011
  -8.3699999999999997E-002     4.2888234630386876E-011
  -8.2599999999999993E-002     3.5382256152737202E-011
  -8.1499999999999989E-002    -1.1935928807824948E-011
  -8.0399999999999999E-002    -7.0257327733353425E-011
  -7.9299999999999995E-002    -8.3689909169398864E-011
  -7.8199999999999992E-002    -1.7737014981753805E-011
  -7.7100000000000002E-002     9.1003503344118607E-011
  -7.5999999999999984E-002     1.4104160894755918E-010
  -7.4899999999999994E-002     4.9871520108038767E-011
  -7.3799999999999991E-002    -1.4195083997137599E-010
  -7.2699999999999987E-002    -2.5618948629180192E-010
  -7.1599999999999997E-002    -1.1252543341555311E-010
  -7.0499999999999993E-002     2.6657906437855151E-010
  -6.9399999999999989E-002     5.7841154088579309E-010
  -6.8300000000000000E-002     4.3438594388159036E-010
  -6.7199999999999996E-002    -2.6336580138949241E-010
  -6.6099999999999992E-002    -1.0866028077316328E-009
  -6.5000000000000002E-002    -1.2901612000959809E-009
  -6.3899999999999985E-002    -4.2127448751659156E-010
  -6.2799999999999995E-002     1.1407441657949997E-009
  -6.1699999999999991E-002     2.2698134483078158E-009
  -6.0599999999999994E-002     1.9086205949037520E-009
  -5.9499999999999990E-002     3.3169810648356385E-011
  -5.8399999999999994E-002    -2.1101869140946431E-009
  -5.7299999999999990E-002    -2.8782702887750792E-009
  -5.6199999999999986E-002    -1.6157479798550772E-009
  -5.5099999999999996E-002     6.5681243777124398E-010
  -5.3999999999999992E-002     2.0125814348399806E-009
  -5.2899999999999989E-002     1.3341897586723130E-009
  -5.1799999999999985E-002    -5.3676368905208722E-010
  -5.0699999999999995E-002    -1.4213603627410368E-009
  -4.9599999999999991E-002     1.3961574951737265E-010
  -4.8499999999999988E-002     3.1936284727867792E-009
  -4.7399999999999998E-002     4.7868491392938741E-009
  -4.6299999999999994E-002     2.4476474180806366E-009
  -4.5199999999999990E-002    -3.2910976166531260E-009
  -4.4099999999999986E-002    -8.7038856122492492E-009
  -4.2999999999999997E-002    -9.5269525601801669E-009
  -4.1899999999999993E-002    -4.4124934817104190E-009
  -4.0799999999999989E-002     3.7661052054703192E-009
  -3.9699999999999985E-002     9.9884180926317174E-009
  -3.8599999999999995E-002     1.0851024967451333E-008
  -3.7499999999999992E-002     6.8473959835573060E-009
  -3.6399999999999988E-002     1.3459062753207223E-009
  -3.5299999999999984E-002    -2.5749806731291283E-009
  -3.4199999999999994E-002    -4.4434771417900525E-009
  -3.3099999999999991E-002    -5.8771432165376115E-009
  -3.1999999999999987E-002    -8.0629236620685507E-009
  -3.0899999999999997E-002    -9.9413268728228133E-009
  -2.9799999999999993E-002    -8.9499048172599790E-009
  -2.8699999999999989E-002    -3.5410834264857754E-009
  -2.7599999999999986E-002     5.0498489834180276E-009
  -2.6499999999999996E-002     1.3449144908863146E-008
  -2.5399999999999992E-002     1.8405708956951198E-008
  -2.4299999999999988E-002     1.8432061210664302E-008
  -2.3199999999999985E-002     1.3603420612188163E-008
  -2.2099999999999995E-002     4.4979149294036661E-009
  -2.0999999999999991E-002    -7.9155579868492569E-009
  -1.9899999999999987E-002    -2.1178941267410818E-008
  -1.8799999999999983E-002    -3.0864203637297041E-008
  -1.7699999999999994E-002    -3.2487626810965993E-008
  -1.6599999999999990E-002    -2.4987585334205037E-008
  -1.5499999999999986E-002    -1.2468457377680870E-008
  -1.4399999999999996E-002    -1.7075200142719916E-009
  -1.3299999999999992E-002     3.1094069541383467E-009
  -1.2199999999999989E-002     3.6188194663116836E-009
  -1.1099999999999985E-002     4.8513011385871086E-009
  -9.9999999999999950E-003     8.8437808187798910E-009
  -8.8999999999999913E-003     1.0496331803723006E-008
  -7.7999999999999875E-003     6.2818811263980055E-010
  -6.6999999999999837E-003    -2.5441318385333394E-008
  -5.5999999999999939E-003    -6.1428380604414099E-008
  -4.4999999999999901E-003    -9.2514724769905035E-008
  -3.3999999999999864E-003    -1.0578435905018625E-007
  -2.2999999999999826E-003    -1.0016122331536664E-007
  -1.1999999999999927E-003    -8.7173518181785019E-008
  -9.9999999999988987E-005    -8.1792073558530331E-008
   1.0000000000000148E-003    -9.1424944059792223E-008
   2.1000000000000185E-003    -1.1258064347431216E-007
   3.2000000000000084E-003    -1.3736661230724271E-007
   4.3000000000000121E-003    -1.6290982784995712E-007
   5.4000000000000159E-003    -1.9461595002214330E-007
   6.5000000000000058E-003    -2.4071826487672828E-007
   7.6000000000000234E-003    -3.0410356544055776E-007
   8.7000000000000133E-003    -3.7954063714099991E-007
   9.8000000000000032E-003    -4.5848651097917349E-007
   1.0900000000000021E-002    -5.3607215022571821E-007
   1.2000000000000011E-002    -6.1341302171064882E-007
   1.3100000000000001E-002    -6.9407462888200887E-007
   1.4200000000000018E-002    -7.7983349910945508E-007
   1.5300000000000008E-002    -8.7092780631801414E-007
   1.6400000000000026E-002    -9.7004772214869338E-007
   1.7500000000000016E-002    -1.0843269819816878E-006
   1.8600000000000005E-002    -1.2215191418364503E-006
   1.9700000000000023E-002    -1.3835114032191606E-006
   2.0800000000000013E-002    -1.5643289543733590E-006
   2.1900000000000003E-002    -1.7556689044797218E-006
   2.3000000000000020E-002    -1.9545955183277631E-006
   2.4100000000000010E-002    -2.1646553705070448E-006
   2.5200000000000000E-002    -2.3880479602669667E-006
   2.6300000000000018E-002    -2.6166235329586171E-006
   2.7400000000000008E-002    -2.8324880076982891E-006
   2.8500000000000025E-002    -3.0203102596718718E-006
   2.9600000000000015E-002    -3.1807694540479137E-006
   3.0700000000000005E-002    -3.3311653169225128E-006
   3.1800000000000023E-002    -3.4899826459881779E-006
   3.2900000000000013E-002    -3.6575536341847329E-006
   3.4000000000000002E-002    -3.8097753076731416E-006
   3.5100000000000020E-002    -3.9107421798694610E-006
   3.6200000000000010E-002    -3.9330102481476906E-006
   3.7300000000000028E-002    -3.8674943425581395E-006
   3.8400000000000017E-002    -3.7155484733380723E-006
   3.9500000000000007E-002    -3.4728611808537313E-006
   4.0600000000000025E-002    -3.1215990929927539E-006
   4.1700000000000015E-002    -2.6377133508508608E-006
   4.2800000000000005E-002    -2.0044717530258594E-006
   4.3900000000000022E-002    -1.2176096788611360E-006
   4.5000000000000012E-002    -2.7716018280475557E-007
   4.6100000000000002E-002     8.2502953091510529E-007
   4.7200000000000020E-002     2.1088935682199421E-006
   4.8300000000000010E-002     3.5979196582047518E-006
   4.9400000000000027E-002     5.3091121117178148E-006
   5.0500000000000017E-002     7.2519906098025895E-006
   5.1600000000000007E-002     9.4358456408376858E-006
   5.2700000000000025E-002     1.1873835319421002E-005
   5.3800000000000014E-002     1.4575534805772808E-005
   5.4900000000000004E-002     1.7533337086207474E-005
   5.6000000000000022E-002     2.0717801817228615E-005
   5.7100000000000012E-002     2.4090133592837399E-005
   5.8200000000000002E-002     2.7621537810775696E-005
   5.9300000000000019E-002     3.1300034606831745E-005
   6.0400000000000009E-002     3.5116601793563956E-005
   6.1500000000000027E-002     3.9043534343366922E-005
   6.2600000000000017E-002     4.3027495848949865E-005
   6.3700000000000007E-002     4.7005283704497179E-005
   6.4800000000000024E-002     5.0925566029040809E-005
   6.5900000000000014E-002     5.4752130381534942E-005
   6.7000000000000004E-002     5.8441626606514267E-005
   6.8100000000000022E-002     6.1917075072420730E-005
   6.9200000000000012E-002     6.5066764364024945E-005
   7.0300000000000029E-002     6.7774490162270790E-005
   7.1400000000000019E-002     6.9955582148401984E-005
   7.2500000000000009E-002     7.1564594691160365E-005
   7.3600000000000027E-002     7.2566283051862787E-005
   7.4700000000000016E-002     7.2898110374815359E-005
   7.5800000000000006E-002     7.2462687967352206E-005
   7.6900000000000024E-002     7.1159120125237476E-005
   7.8000000000000014E-002     6.8922658101662509E-005
   7.9100000000000004E-002     6.5733584051492881E-005
   8.0200000000000021E-002     6.1586659285246367E-005
   8.1300000000000011E-002     5.6453351135138947E-005
   8.2400000000000029E-002     5.0277492846367924E-005
   8.3500000000000019E-002     4.3011281377408121E-005
   8.4600000000000009E-002     3.4656008210736048E-005
   8.5700000000000026E-002     2.5264529540439941E-005
   8.6800000000000016E-002     1.4901376744094695E-005
   8.7900000000000006E-002     3.6009600989945393E-006
   8.9000000000000024E-002    -8.6316777014865385E-006
   9.0100000000000013E-002    -2.1776111680083465E-005
   9.1200000000000003E-002    -3.5752851545113935E-005
   9.2300000000000021E-002    -5.0427992391635906E-005
   9.3400000000000011E-002    -6.5665321017154254E-005
   9.4500000000000028E-002    -8.1375510490039617E-005
   9.5600000000000018E-002    -9.7513126092970239E-005
   9.6700000000000008E-002    -1.1402425298002501E-004
   9.7800000000000026E-002    -1.3079939526506806E-004
   9.8900000000000016E-002    -1.4768278924749494E-004
  0.10000000000000001         -1.6453166608700016E-004
  0.10110000000000002         -1.8126612121706473E-004
  0.10220000000000001         -1.9785671611318164E-004
  0.10330000000000003         -2.1426065359266428E-004
  0.10440000000000002         -2.3037238861436127E-004
  0.10550000000000001         -2.4604165810162448E-004
  0.10660000000000003         -2.6114401407542094E-004
  0.10770000000000002         -2.7563172625380159E-004
  0.10880000000000001         -2.8950811247343850E-004
  0.10990000000000003         -3.0274668824861604E-004
  0.11100000000000002         -3.1523569487038034E-004
  0.11210000000000001         -3.2680717413316555E-004
  0.11320000000000002         -3.3732358133423313E-004
  0.11430000000000001         -3.4673319896686154E-004
  0.11540000000000003         -3.5503139952200804E-004
  0.11650000000000002         -3.6215817090127096E-004
  0.11760000000000001         -3.6793004255745093E-004
  0.11870000000000003         -3.7207533023323440E-004
  0.11980000000000002         -3.7433978286575135E-004
  0.12090000000000001         -3.7455602432604499E-004
  0.12200000000000003         -3.7260371027517678E-004
  0.12310000000000001         -3.6829829332422057E-004
  0.12420000000000003         -3.6132265813651970E-004
  0.12530000000000002         -3.5127761657352958E-004
  0.12640000000000001         -3.3780865487645682E-004
  0.12750000000000003         -3.2068567816171035E-004
  0.12860000000000002         -2.9975766665305025E-004
  0.12970000000000001         -2.7482540463100006E-004
  0.13080000000000003         -2.4556537391620274E-004
  0.13190000000000002         -2.1159212337808932E-004
  0.13300000000000001         -1.7261139873882693E-004
  0.13410000000000000         -1.2852560030297892E-004
  0.13520000000000004         -7.9393728810838669E-005
  0.13630000000000003         -2.5294621082145266E-005
  0.13740000000000002          3.3761822123777798E-005
  0.13850000000000001          9.7773998277265987E-005
  0.13960000000000000          1.6658790991642568E-004
  0.14070000000000005          2.3978792887648307E-004
  0.14180000000000004          3.1674138153905441E-004
  0.14290000000000003          3.9675453444945770E-004
  0.14400000000000002          4.7918231575753463E-004
  0.14510000000000001          5.6337786372755378E-004
  0.14620000000000000          6.4853421645244124E-004
  0.14730000000000004          7.3358049849054133E-004
  0.14840000000000003          8.1724685151136585E-004
  0.14950000000000002          8.9824682800106615E-004
  0.15060000000000001          9.7540818387650580E-004
  0.15170000000000000          1.0476356837899369E-003
  0.15280000000000005          1.1137584224344239E-003
  0.15390000000000004          1.1724346550182503E-003
  0.15500000000000003          1.2222339864821287E-003
  0.15610000000000002          1.2618427863345639E-003
  0.15720000000000001          1.2902135495097566E-003
  0.15830000000000000          1.3065348612145734E-003
  0.15940000000000004          1.3100780779496993E-003
  0.16050000000000003          1.3000997714699473E-003
  0.16160000000000002          1.2759200762958482E-003
  0.16270000000000001          1.2371203629301122E-003
  0.16380000000000000          1.1836787452922358E-003
  0.16490000000000005          1.1159178102390017E-003
  0.16600000000000004          1.0343281319365881E-003
  0.16710000000000003          9.3945441767582366E-004
  0.16820000000000002          8.3195918705322540E-004
  0.16930000000000001          7.1279809344567074E-004
  0.17040000000000000          5.8332615299156452E-004
  0.17150000000000004          4.4520653318618706E-004
  0.17260000000000003          3.0019640689719446E-004
  0.17370000000000002          1.5000707935544272E-004
  0.17480000000000001         -3.6495380299932479E-006
  0.17590000000000000         -1.5889899805188483E-004
  0.17700000000000005         -3.1362482695841980E-004
  0.17810000000000004         -4.6558960457335479E-004
  0.17920000000000003         -6.1267096316446285E-004
  0.18030000000000002         -7.5300905155023653E-004
  0.18140000000000001         -8.8495481759316686E-004
  0.18250000000000000         -1.0069088311866732E-003
  0.18360000000000004         -1.1172456433997471E-003
  0.18470000000000003         -1.2144333450124676E-003
  0.18580000000000002         -1.2972514377908011E-003
  0.18690000000000001         -1.3649099273608299E-003
  0.18800000000000000         -1.4169608475641637E-003
  0.18910000000000005         -1.4531033812092019E-003
  0.19020000000000004         -1.4730868861080511E-003
  0.19130000000000003         -1.4768154360355256E-003
  0.19240000000000002         -1.4645495684818743E-003
  0.19350000000000001         -1.4369937125594721E-003
  0.19460000000000005         -1.3951699947939592E-003
  0.19570000000000004         -1.3401876203717031E-003
  0.19680000000000003         -1.2731204042212352E-003
  0.19790000000000002         -1.1950902407990023E-003
  0.19900000000000001         -1.1074444046245070E-003
  0.20010000000000000         -1.0118171339855563E-003
  0.20120000000000005         -9.0998364612468940E-004
  0.20230000000000004         -8.0362573498867884E-004
  0.20340000000000003         -6.9421436637646938E-004
  0.20450000000000002         -5.8309995802125327E-004
  0.20560000000000000         -4.7169084427883226E-004
  0.20670000000000005         -3.6151395761411891E-004
  0.20780000000000004         -2.5407582870687573E-004
  0.20890000000000003         -1.5064729086591128E-004
