 -0.12000000000000000          0.0000000000000000
 -0.11889999999999999          0.0000000000000000
 -0.11780000000000000          0.0000000000000000
 -0.11670000000000000         -1.9408282760872281E-014
 -0.11559999999999999         -1.1600353381872874E-013
 -0.11449999999999999         -3.1585695972786987E-013
 -0.11340000000000000         -4.6540001670189457E-013
 -0.11230000000000000         -2.3533456541997844E-013
 -0.11119999999999999          4.9853621664902592E-013
 -0.11009999999999999          1.1318900461007586E-012
 -0.10900000000000000          4.4448629889573543E-013
 -0.10790000000000000         -2.0997064763966788E-012
 -0.10679999999999999         -4.6897438189807961E-012
 -0.10569999999999999         -3.3972241252760993E-012
 -0.10460000000000000          4.1142002998872940E-012
 -0.10349999999999999          1.3470597901021897E-011
 -0.10239999999999999          1.3085537861612373E-011
 -0.10130000000000000         -6.7948298897169135E-012
 -0.10020000000000000         -3.9324137696139516E-011
  -9.9099999999999994E-002    -5.5080367350468507E-011
  -9.7999999999999990E-002    -1.9519212635099592E-011
  -9.6899999999999986E-002     6.9677215386310110E-011
  -9.5799999999999996E-002     1.5532866659562217E-010
  -9.4699999999999993E-002     1.4174501850039434E-010
  -9.3599999999999989E-002    -2.8555326506141121E-011
  -9.2499999999999999E-002    -2.9174385129948632E-010
  -9.1399999999999995E-002    -4.5628756328852660E-010
  -9.0299999999999991E-002    -3.1902794295213255E-010
  -8.9200000000000002E-002     1.5228640570796870E-010
  -8.8099999999999984E-002     7.1498990061868994E-010
  -8.6999999999999994E-002     9.5287167045654542E-010
  -8.5899999999999990E-002     5.6445320639753049E-010
  -8.4799999999999986E-002    -3.5448177726493668E-010
  -8.3699999999999997E-002    -1.2754644007628713E-009
  -8.2599999999999993E-002    -1.5382208840009071E-009
  -8.1499999999999989E-002    -8.1678347418900898E-010
  -8.0399999999999999E-002     5.8190230411980792E-010
  -7.9299999999999995E-002     1.8327107609295012E-009
  -7.8199999999999992E-002     2.0782258136620158E-009
  -7.7100000000000002E-002     9.7324681647137368E-010
  -7.5999999999999984E-002    -1.0687060125746939E-009
  -7.4899999999999994E-002    -3.0780571425026437E-009
  -7.3799999999999991E-002    -4.0465164552472288E-009
  -7.2699999999999987E-002    -3.4595883935395477E-009
  -7.1599999999999997E-002    -1.5677640297084849E-009
  -7.0499999999999993E-002     7.4611189448958726E-010
  -6.9399999999999989E-002     2.4942656828841336E-009
  -6.8300000000000000E-002     3.3395755050236176E-009
  -6.7199999999999996E-002     4.2338905714700559E-009
  -6.6099999999999992E-002     7.4819448414586986E-009
  -6.5000000000000002E-002     1.5920370799449302E-008
  -6.3899999999999985E-002     3.1393831534387573E-008
  -6.2799999999999995E-002     5.3313399916987692E-008
  -6.1699999999999991E-002     7.8305205875039974E-008
  -6.0599999999999994E-002     1.0145944173700627E-007
  -5.9499999999999990E-002     1.1868357319144707E-007
  -5.8399999999999994E-002     1.2887186073839985E-007
  -5.7299999999999990E-002     1.3468834936247731E-007
  -5.6199999999999986E-002     1.4170305462357646E-007
  -5.5099999999999996E-002     1.5666363140098838E-007
  -5.3999999999999992E-002     1.8598026940708223E-007
  -5.2899999999999989E-002     2.3490180467433674E-007
  -5.1799999999999985E-002     3.0706146958436875E-007
  -5.0699999999999995E-002     4.0392276901002333E-007
  -4.9599999999999991E-002     5.2428811159188626E-007
  -4.8499999999999988E-002     6.6468010118114762E-007
  -4.7399999999999998E-002     8.2119316857642843E-007
  -4.6299999999999994E-002     9.9231613148731412E-007
  -4.5199999999999990E-002     1.1812188631665776E-006
  -4.4099999999999986E-002     1.3961217746327748E-006
  -4.2999999999999997E-002     1.6486659433212481E-006
  -4.1899999999999993E-002     1.9515525764290942E-006
  -4.0799999999999989E-002     2.3169266114564380E-006
  -3.9699999999999985E-002     2.7559533464227570E-006
  -3.8599999999999995E-002     3.2789089345897082E-006
  -3.7499999999999992E-002     3.8950543057580944E-006
  -3.6399999999999988E-002     4.6125383050821256E-006
  -3.5299999999999984E-002     5.4393067330238409E-006
  -3.4199999999999994E-002     6.3853813117020763E-006
  -3.3099999999999991E-002     7.4652944022091106E-006
  -3.1999999999999987E-002     8.6985946836648509E-006
  -3.0899999999999997E-002     1.0107416528626345E-005
  -2.9799999999999993E-002     1.1712515515682753E-005
  -2.8699999999999989E-002     1.3530734577216208E-005
  -2.7599999999999986E-002     1.5575897123198956E-005
  -2.6499999999999996E-002     1.7862341337604448E-005
  -2.5399999999999992E-002     2.0408087948453613E-005
  -2.4299999999999988E-002     2.3235130356624722E-005
  -2.3199999999999985E-002     2.6366900783614255E-005
  -2.2099999999999995E-002     2.9825236197211780E-005
  -2.0999999999999991E-002     3.3628959499765188E-005
  -1.9899999999999987E-002     3.7793972296640277E-005
  -1.8799999999999983E-002     4.2333023884566501E-005
  -1.7699999999999994E-002     4.7253939555957913E-005
  -1.6599999999999990E-002     5.2557359595084563E-005
  -1.5499999999999986E-002     5.8236313634552062E-005
  -1.4399999999999996E-002     6.4278428908437490E-005
  -1.3299999999999992E-002     7.0668706030119210E-005
  -1.2199999999999989E-002     7.7389326179400086E-005
  -1.1099999999999985E-002     8.4415340097621083E-005
  -9.9999999999999950E-003     9.1708832769654691E-005
  -8.8999999999999913E-003     9.9215882073622197E-005
  -7.7999999999999875E-003     1.0686855239327997E-004
  -6.6999999999999837E-003     1.1458955123089254E-004
  -5.5999999999999939E-003     1.2229476124048233E-004
  -4.4999999999999901E-003     1.2989110837224871E-004
  -3.3999999999999864E-003     1.3727198529522866E-004
  -2.2999999999999826E-003     1.4431483577936888E-004
  -1.1999999999999927E-003     1.5088371583260596E-004
  -9.9999999999988987E-005     1.5683470701333135E-004
   1.0000000000000148E-003     1.6201948164962232E-004
   2.1000000000000185E-003     1.6628440062049776E-004
   3.2000000000000084E-003     1.6946726827882230E-004
   4.3000000000000121E-003     1.7139676492661238E-004
   5.4000000000000159E-003     1.7189717618748546E-004
   6.5000000000000058E-003     1.7079616372939199E-004
   7.6000000000000234E-003     1.6793065879028291E-004
   8.7000000000000133E-003     1.6314795357175171E-004
   9.8000000000000032E-003     1.5630433335900307E-004
   1.0900000000000021E-002     1.4726615336257964E-004
   1.2000000000000011E-002     1.3591600873041898E-004
   1.3100000000000001E-002     1.2216182949487120E-004
   1.4200000000000018E-002     1.0594380000839010E-004
   1.5300000000000008E-002     8.7236345279961824E-005
   1.6400000000000026E-002     6.6047119616996497E-005
   1.7500000000000016E-002     4.2417210352141410E-005
   1.8600000000000005E-002     1.6424566638306715E-005
   1.9700000000000023E-002    -1.1811338481493294E-005
   2.0800000000000013E-002    -4.2127663618884981E-005
   2.1900000000000003E-002    -7.4320392741356045E-005
   2.3000000000000020E-002    -1.0814806591952220E-004
   2.4100000000000010E-002    -1.4333310537040234E-004
   2.5200000000000000E-002    -1.7955999646801502E-004
   2.6300000000000018E-002    -2.1647395624313504E-004
   2.7400000000000008E-002    -2.5368377100676298E-004
   2.8500000000000025E-002    -2.9077008366584778E-004
   2.9600000000000015E-002    -3.2729562371969223E-004
   3.0700000000000005E-002    -3.6281323991715908E-004
   3.1800000000000023E-002    -3.9687097887508571E-004
   3.2900000000000013E-002    -4.2901682900264859E-004
   3.4000000000000002E-002    -4.5880640391260386E-004
   3.5100000000000020E-002    -4.8581350711174309E-004
   3.6200000000000010E-002    -5.0963996909558773E-004
   3.7300000000000028E-002    -5.2992196287959814E-004
   3.8400000000000017E-002    -5.4633303079754114E-004
   3.9500000000000007E-002    -5.5858830455690622E-004
   4.0600000000000025E-002    -5.6645210133865476E-004
   4.1700000000000015E-002    -5.6974764447659254E-004
   4.2800000000000005E-002    -5.6836433941498399E-004
   4.3900000000000022E-002    -5.6225969456136227E-004
   4.5000000000000012E-002    -5.5145705118775368E-004
   4.6100000000000002E-002    -5.3604331333190203E-004
   4.7200000000000020E-002    -5.1616952987387776E-004
   4.8300000000000010E-002    -4.9205223331227899E-004
   4.9400000000000027E-002    -4.6397131518460810E-004
   5.0500000000000017E-002    -4.3226181878708303E-004
   5.1600000000000007E-002    -3.9730226853862405E-004
   5.2700000000000025E-002    -3.5950425080955029E-004
   5.3800000000000014E-002    -3.1930580735206604E-004
   5.4900000000000004E-002    -2.7716706972569227E-004
   5.6000000000000022E-002    -2.3356355086434633E-004
   5.7100000000000012E-002    -1.8897560948971659E-004
   5.8200000000000002E-002    -1.4387602277565747E-004
   5.9300000000000019E-002    -9.8720047390088439E-005
   6.0400000000000009E-002    -5.3940239013172686E-005
   6.1500000000000027E-002    -9.9419767138897441E-006
   6.2600000000000017E-002     3.2902891689445823E-005
   6.3700000000000007E-002     7.4265131843276322E-005
   6.4800000000000024E-002     1.1386641563149169E-004
   6.5900000000000014E-002     1.5148258535191417E-004
   6.7000000000000004E-002     1.8694139725994319E-004
   6.8100000000000022E-002     2.2011823602952063E-004
   6.9200000000000012E-002     2.5093372096307576E-004
   7.0300000000000029E-002     2.7935302932746708E-004
   7.1400000000000019E-002     3.0538407736457884E-004
   7.2500000000000009E-002     3.2907171407714486E-004
   7.3600000000000027E-002     3.5048936842940748E-004
   7.4700000000000016E-002     3.6973104579374194E-004
   7.5800000000000006E-002     3.8690687506459653E-004
   7.6900000000000024E-002     4.0214014006778598E-004
   7.8000000000000014E-002     4.1556218639016151E-004
   7.9100000000000004E-002     4.2730328277684748E-004
   8.0200000000000021E-002     4.3748188181780279E-004
   8.1300000000000011E-002     4.4619734399020672E-004
   8.2400000000000029E-002     4.5352816232480109E-004
   8.3500000000000019E-002     4.5953347580507398E-004
   8.4600000000000009E-002     4.6425274922512472E-004
   8.5700000000000026E-002     4.6770187327638268E-004
   8.6800000000000016E-002     4.6986888628453016E-004
   8.7900000000000006E-002     4.7071388689801097E-004
   8.9000000000000024E-002     4.7017491306178272E-004
   9.0100000000000013E-002     4.6817606198601425E-004
   9.1200000000000003E-002     4.6463258331641555E-004
   9.2300000000000021E-002     4.5945160672999918E-004
   9.3400000000000011E-002     4.5253214193508029E-004
   9.4500000000000028E-002     4.4376973528414965E-004
   9.5600000000000018E-002     4.3306691804900765E-004
   9.6700000000000008E-002     4.2034490616060793E-004
   9.7800000000000026E-002     4.0555058512836695E-004
   9.8900000000000016E-002     3.8865703390911222E-004
  0.10000000000000001          3.6966131301596761E-004
  0.10110000000000002          3.4858533763326705E-004
  0.10220000000000001          3.2548143644817173E-004
  0.10330000000000003          3.0043884180486202E-004
  0.10440000000000002          2.7358593069948256E-004
  0.10550000000000001          2.4508676142431796E-004
  0.10660000000000003          2.1513539832085371E-004
  0.10770000000000002          1.8395195365883410E-004
  0.10880000000000001          1.5178184548858553E-004
  0.10990000000000003          1.1889563029399142E-004
  0.11100000000000002          8.5585452325176448E-005
  0.11210000000000001          5.2157767640892416E-005
  0.11320000000000002          1.8924665710073896E-005
  0.11430000000000001         -1.3803353795083240E-005
  0.11540000000000003         -4.5722030336037278E-005
  0.11650000000000002         -7.6537231507245451E-005
  0.11760000000000001         -1.0596957872621715E-004
  0.11870000000000003         -1.3375972048379481E-004
  0.11980000000000002         -1.5967272338457406E-004
  0.12090000000000001         -1.8350096070207655E-004
  0.12200000000000003         -2.0506631699390709E-004
  0.12310000000000001         -2.2422305482905358E-004
  0.12420000000000003         -2.4086091434583068E-004
  0.12530000000000002         -2.5490659754723310E-004
  0.12640000000000001         -2.6632231310941279E-004
  0.12750000000000003         -2.7510276413522661E-004
  0.12860000000000002         -2.8127367841079831E-004
  0.12970000000000001         -2.8489300166256726E-004
  0.13080000000000003         -2.8605226543731987E-004
  0.13190000000000002         -2.8487446252256632E-004
  0.13300000000000001         -2.8150706202723086E-004
  0.13410000000000000         -2.7611339464783669E-004
  0.13520000000000004         -2.6886747218668461E-004
  0.13630000000000003         -2.5995395844802260E-004
  0.13740000000000002         -2.4957009009085596E-004
  0.13850000000000001         -2.3792430874891579E-004
  0.13960000000000000         -2.2522942163050175E-004
  0.14070000000000005         -2.1169369574636221E-004
  0.14180000000000004         -1.9751561922021210E-004
  0.14290000000000003         -1.8288477440364659E-004
  0.14400000000000002         -1.6798533033579588E-004
  0.14510000000000001         -1.5299650840461254E-004
  0.14620000000000000         -1.3808757648803294E-004
  0.14730000000000004         -1.2341061665210873E-004
  0.14840000000000003         -1.0909687262028456E-004
  0.14950000000000002         -9.5258874353021383E-005
  0.15060000000000001         -8.1995473010465503E-005
  0.15170000000000000         -6.9394285674206913E-005
  0.15280000000000005         -5.7529316109139472E-005
  0.15390000000000004         -4.6456523705273867E-005
  0.15500000000000003         -3.6212088161846623E-005
  0.15610000000000002         -2.6815168894245289E-005
  0.15720000000000001         -1.8272687157150358E-005
  0.15830000000000000         -1.0582226423139218E-005
  0.15940000000000004         -3.7318650356610306E-006
  0.16050000000000003          2.3006634819466854E-006
  0.16160000000000002          7.5467482929525431E-006
  0.16270000000000001          1.2043666174577083E-005
  0.16380000000000000          1.5832098142709583E-005
  0.16490000000000005          1.8956474377773702E-005
  0.16600000000000004          2.1466943508130498E-005
  0.16710000000000003          2.3419619537889957E-005
  0.16820000000000002          2.4873392248991877E-005
  0.16930000000000001          2.5885216018650681E-005
  0.17040000000000000          2.6507586881052703E-005
  0.17150000000000004          2.6789706680574454E-005
  0.17260000000000003          2.6779809559229761E-005
  0.17370000000000002          2.6524861823418178E-005
  0.17480000000000001          2.6066887585329823E-005
  0.17590000000000000          2.5439370801905170E-005
  0.17700000000000005          2.4667946490808390E-005
  0.17810000000000004          2.3775761292199604E-005
  0.17920000000000003          2.2788981368648820E-005
  0.18030000000000002          2.1737325369031169E-005
  0.18140000000000001          2.0649000362027436E-005
  0.18250000000000000          1.9544755559763871E-005
  0.18360000000000004          1.8436654499964789E-005
  0.18470000000000003          1.7332577044726349E-005
  0.18580000000000002          1.6241992852883413E-005
  0.18690000000000001          1.5177533896348905E-005
  0.18800000000000000          1.4151296454656404E-005
  0.18910000000000005          1.3170105376048014E-005
  0.19020000000000004          1.2234887435624842E-005
  0.19130000000000003          1.1345051461830735E-005
  0.19240000000000002          1.0503789781068917E-005
  0.19350000000000001          9.7193887995672412E-006
  0.19460000000000005          9.0015882960869931E-006
  0.19570000000000004          8.3566310422611423E-006
  0.19680000000000003          7.7853883340139873E-006
  0.19790000000000002          7.2854973041103221E-006
  0.19900000000000001          6.8546123657142743E-006
  0.20010000000000000          6.4913947426248342E-006
  0.20120000000000005          6.1937444115756080E-006
  0.20230000000000004          5.9566864365478978E-006
  0.20340000000000003          5.7722795645531733E-006
  0.20450000000000002          5.6314515859412495E-006
  0.20560000000000000          5.5257432904909365E-006
  0.20670000000000005          5.4475481192639563E-006
  0.20780000000000004          5.3894918892183341E-006
  0.20890000000000003          5.3444791774381883E-006
