 -0.12000000000000000          0.0000000000000000
 -0.11889999999999999          0.0000000000000000
 -0.11780000000000000          0.0000000000000000
 -0.11670000000000000         -5.9994464951529380E-010
 -0.11559999999999999         -8.3423605801158374E-009
 -0.11449999999999999         -2.6949676268372968E-008
 -0.11340000000000000         -2.3870359910915795E-008
 -0.11230000000000000          6.6739048065755924E-008
 -0.11119999999999999          2.3416976091539254E-007
 -0.11009999999999999          2.7301962290948723E-007
 -0.10900000000000000         -8.6519001740725798E-008
 -0.10790000000000000         -7.5615912464854773E-007
 -0.10679999999999999         -1.0504787724130438E-006
 -0.10569999999999999         -2.2603337868076778E-007
 -0.10460000000000000          1.4261274827731540E-006
 -0.10349999999999999          2.2338829239743063E-006
 -0.10239999999999999          6.0893387399119092E-007
 -0.10130000000000000         -2.6350644475314766E-006
 -0.10020000000000000         -3.9175038182293065E-006
  -9.9099999999999994E-002    -1.5794047669714928E-007
  -9.7999999999999990E-002     6.7442965701047797E-006
  -9.6899999999999986E-002     9.5478799266857095E-006
  -9.5799999999999996E-002     1.9905744466086617E-006
  -9.4699999999999993E-002    -1.2996514669794124E-005
  -9.3599999999999989E-002    -2.2419826564146206E-005
  -9.2499999999999999E-002    -1.3747229786531534E-005
  -9.1399999999999995E-002     1.1137748515466228E-005
  -9.0299999999999991E-002     3.3220763725694269E-005
  -8.9200000000000002E-002     3.1326875614468008E-005
  -8.8099999999999984E-002     3.2411867323389743E-006
  -8.6999999999999994E-002    -2.8307133106864057E-005
  -8.5899999999999990E-002    -3.4473538107704371E-005
  -8.4799999999999986E-002    -8.7233784142881632E-006
  -8.3699999999999997E-002     2.3652288291486911E-005
  -8.2599999999999993E-002     2.8105599994887598E-005
  -8.1499999999999989E-002    -3.7004404020990478E-006
  -8.0399999999999999E-002    -4.1542669350747019E-005
  -7.9299999999999995E-002    -4.3810214265249670E-005
  -7.8199999999999992E-002    -3.9773865978531830E-007
  -7.7100000000000002E-002     5.2472129027592018E-005
  -7.5999999999999984E-002     6.4631705754436553E-005
  -7.4899999999999994E-002     2.2439760869019665E-005
  -7.3799999999999991E-002    -3.4221717214677483E-005
  -7.2699999999999987E-002    -4.9463887989986688E-005
  -7.1599999999999997E-002    -8.3242566688568331E-006
  -7.0499999999999993E-002     4.5659278839593753E-005
  -6.9399999999999989E-002     5.3618550737155601E-005
  -6.8300000000000000E-002     3.2053862923930865E-006
  -6.7199999999999996E-002    -5.5920616432558745E-005
  -6.6099999999999992E-002    -6.2310849898494780E-005
  -6.5000000000000002E-002    -8.0114859883906320E-006
  -6.3899999999999985E-002     5.1376580813666806E-005
  -6.2799999999999995E-002     5.6061784562189132E-005
  -6.1699999999999991E-002     9.1890260591753758E-006
  -6.0599999999999994E-002    -2.3136542949941941E-005
  -5.9499999999999990E-002     1.5504803741350770E-005
  -5.8399999999999994E-002     1.0259768168907613E-004
  -5.7299999999999990E-002     1.5066712512634695E-004
  -5.6199999999999986E-002     9.8576158052310348E-005
  -5.5099999999999996E-002    -1.3797277460980695E-005
  -5.3999999999999992E-002    -7.3601397161837667E-005
  -5.2899999999999989E-002    -7.0915493779466487E-006
  -5.1799999999999985E-002     1.3805675553157926E-004
  -5.0699999999999995E-002     2.3321839398704469E-004
  -4.9599999999999991E-002     1.9990636792499572E-004
  -4.8499999999999988E-002     9.7446398285683244E-005
  -4.7399999999999998E-002     6.8513058067765087E-005
  -4.6299999999999994E-002     1.8995093705598265E-004
  -4.5199999999999990E-002     3.8337087607942522E-004
  -4.4099999999999986E-002     4.8772475565783679E-004
  -4.2999999999999997E-002     4.2824339470826089E-004
  -4.1899999999999993E-002     3.0588384834118187E-004
  -4.0799999999999989E-002     3.0372303444892168E-004
  -3.9699999999999985E-002     4.9723137635737658E-004
  -3.8599999999999995E-002     7.6669390546157956E-004
  -3.7499999999999992E-002     9.1468187747523189E-004
  -3.6399999999999988E-002     8.7702623568475246E-004
  -3.5299999999999984E-002     8.0562970833852887E-004
  -3.4199999999999994E-002     9.2264288105070591E-004
  -3.3099999999999991E-002     1.2853830121457577E-003
  -3.1999999999999987E-002     1.7086075386032462E-003
  -3.0899999999999997E-002     1.9403951009735465E-003
  -2.9799999999999993E-002     1.9229304743930697E-003
  -2.8699999999999989E-002     1.8655960448086262E-003
  -2.7599999999999986E-002     2.0399235654622316E-003
  -2.6499999999999996E-002     2.4962457828223705E-003
  -2.5399999999999992E-002     2.9992558993399143E-003
  -2.4299999999999988E-002     3.2646723557263613E-003
  -2.3199999999999985E-002     3.2631244976073503E-003
  -2.2099999999999995E-002     3.2698065042495728E-003
  -2.0999999999999991E-002     3.5886641126126051E-003
  -1.9899999999999987E-002     4.2227143421769142E-003
  -1.8799999999999983E-002     4.8378729261457920E-003
  -1.7699999999999994E-002     5.0798775628209114E-003
  -1.6599999999999990E-002     4.9347304739058018E-003
  -1.5499999999999986E-002     4.7570052556693554E-003
  -1.4399999999999996E-002     4.9165901727974415E-003
  -1.3299999999999992E-002     5.4105282761156559E-003
  -1.2199999999999989E-002     5.8406260795891285E-003
  -1.1099999999999985E-002     5.7970895431935787E-003
  -9.9999999999999950E-003     5.2685975097119808E-003
  -8.8999999999999913E-003     4.6562058851122856E-003
  -7.7999999999999875E-003     4.3615591712296009E-003
  -6.6999999999999837E-003     4.3591102585196495E-003
  -5.5999999999999939E-003     4.1927658021450043E-003
  -4.4999999999999901E-003     3.4147563856095076E-003
  -3.3999999999999864E-003     2.0266780629754066E-003
  -2.2999999999999826E-003     4.7101412201300263E-004
  -1.1999999999999927E-003    -8.2813936751335859E-004
  -9.9999999999988987E-005    -1.9150532316416502E-003
   1.0000000000000148E-003    -3.2764570787549019E-003
   2.1000000000000185E-003    -5.3582964465022087E-003
   3.2000000000000084E-003    -8.1118438392877579E-003
   4.3000000000000121E-003    -1.1033523827791214E-002
   5.4000000000000159E-003    -1.3666339218616486E-002
   6.5000000000000058E-003    -1.6054511070251465E-002
   7.6000000000000234E-003    -1.8688937649130821E-002
   8.7000000000000133E-003    -2.1994134411215782E-002
   9.8000000000000032E-003    -2.5880932807922363E-002
   1.0900000000000021E-002    -2.9816629365086555E-002
   1.2000000000000011E-002    -3.3338058739900589E-002
   1.3100000000000001E-002    -3.6482345312833786E-002
   1.4200000000000018E-002    -3.9690535515546799E-002
   1.5300000000000008E-002    -4.3288189917802811E-002
   1.6400000000000026E-002    -4.7080181539058685E-002
   1.7500000000000016E-002    -5.0478599965572357E-002
   1.8600000000000005E-002    -5.3027648478746414E-002
   1.9700000000000023E-002    -5.4787520319223404E-002
   2.0800000000000013E-002    -5.6178815662860870E-002
   2.1900000000000003E-002    -5.7456780225038528E-002
   2.3000000000000020E-002    -5.8360017836093903E-002
   2.4100000000000010E-002    -5.8296434581279755E-002
   2.5200000000000000E-002    -5.6871656328439713E-002
   2.6300000000000018E-002    -5.4211430251598358E-002
   2.7400000000000008E-002    -5.0748106092214584E-002
   2.8500000000000025E-002    -4.6698909252882004E-002
   2.9600000000000015E-002    -4.1782952845096588E-002
   3.0700000000000005E-002    -3.5468529909849167E-002
   3.1800000000000023E-002    -2.7495771646499634E-002
   3.2900000000000013E-002    -1.8131073564291000E-002
   3.4000000000000002E-002    -7.8936330974102020E-003
   3.5100000000000020E-002     2.9552802443504333E-003
   3.6200000000000010E-002     1.4622784219682217E-002
   3.7300000000000028E-002     2.7476169168949127E-002
   3.8400000000000017E-002     4.1537377983331680E-002
   3.9500000000000007E-002     5.6314270943403244E-002
   4.0600000000000025E-002     7.1138806641101837E-002
   4.1700000000000015E-002     8.5671894252300262E-002
   4.2800000000000005E-002    0.10003916174173355
   4.3900000000000022E-002    0.11447954177856445
   4.5000000000000012E-002    0.12885116040706635
   4.6100000000000002E-002    0.14252804219722748
   4.7200000000000020E-002    0.15477511286735535
   4.8300000000000010E-002    0.16523006558418274
   4.9400000000000027E-002    0.17398467659950256
   5.0500000000000017E-002    0.18120986223220825
   5.1600000000000007E-002    0.18671680986881256
   5.2700000000000025E-002    0.18991696834564209
   5.3800000000000014E-002    0.19021463394165039
   5.4900000000000004E-002    0.18743677437305450
   5.6000000000000022E-002    0.18186271190643311
   5.7100000000000012E-002    0.17382320761680603
   5.8200000000000002E-002    0.16331566870212555
   5.9300000000000019E-002    0.15001776814460754
   6.0400000000000009E-002    0.13367445766925812
   6.1500000000000027E-002    0.11446028947830200
   6.2600000000000017E-002     9.2934682965278625E-002
   6.3700000000000007E-002     6.9666370749473572E-002
   6.4800000000000024E-002     4.4913794845342636E-002
   6.5900000000000014E-002     1.8684575334191322E-002
   6.7000000000000004E-002    -8.9065674692392349E-003
   6.8100000000000022E-002    -3.7377338856458664E-002
   6.9200000000000012E-002    -6.5976180136203766E-002
   7.0300000000000029E-002    -9.4024233520030975E-002
   7.1400000000000019E-002   -0.12114573270082474
   7.2500000000000009E-002   -0.14716343581676483
   7.3600000000000027E-002   -0.17179152369499207
   7.4700000000000016E-002   -0.19448594748973846
   7.5800000000000006E-002   -0.21458588540554047
   7.6900000000000024E-002   -0.23162858188152313
   7.8000000000000014E-002   -0.24547302722930908
   7.9100000000000004E-002   -0.25612673163414001
   8.0200000000000021E-002   -0.26347726583480835
   8.1300000000000011E-002   -0.26723149418830872
   8.2400000000000029E-002   -0.26711958646774292
   8.3500000000000019E-002   -0.26314589381217957
   8.4600000000000009E-002   -0.25558111071586609
   8.5700000000000026E-002   -0.24475887417793274
   8.6800000000000016E-002   -0.23084907233715057
   8.7900000000000006E-002   -0.21390657126903534
   8.9000000000000024E-002   -0.19408439099788666
   9.0100000000000013E-002   -0.17182256281375885
   9.1200000000000003E-002   -0.14775502681732178
   9.2300000000000021E-002   -0.12245267629623413
   9.3400000000000011E-002    -9.6253201365470886E-002
   9.4500000000000028E-002    -6.9360554218292236E-002
   9.5600000000000018E-002    -4.2108271270990372E-002
   9.6700000000000008E-002    -1.5076155774295330E-002
   9.7800000000000026E-002     1.1068603955209255E-002
   9.8900000000000016E-002     3.5852193832397461E-002
  0.10000000000000001          5.9102624654769897E-002
  0.10110000000000002          8.0769777297973633E-002
  0.10220000000000001         0.10065661370754242
  0.10330000000000003         0.11834616214036942
  0.10440000000000002         0.13341435790061951
  0.10550000000000001         0.14570541679859161
  0.10660000000000003         0.15537327527999878
  0.10770000000000002         0.16265076398849487
  0.10880000000000001         0.16758342087268829
  0.10990000000000003         0.17000824213027954
  0.11100000000000002         0.16980201005935669
  0.11210000000000001         0.16713564097881317
  0.11320000000000002         0.16245140135288239
  0.11430000000000001         0.15619467198848724
  0.11540000000000003         0.14855913817882538
  0.11650000000000002         0.13951835036277771
  0.11760000000000001         0.12909938395023346
  0.11870000000000003         0.11759960651397705
  0.11980000000000002         0.10552951693534851
  0.12090000000000001          9.3317791819572449E-002
  0.12200000000000003          8.1101082265377045E-002
  0.12310000000000001          6.8803764879703522E-002
  0.12420000000000003          5.6422676891088486E-002
  0.12530000000000002          4.4221427291631699E-002
  0.12640000000000001          3.2634623348712921E-002
  0.12750000000000003          2.1964218467473984E-002
  0.12860000000000002          1.2202516198158264E-002
  0.12970000000000001          3.1377889681607485E-003
  0.13080000000000003         -5.3451382555067539E-003
  0.13190000000000002         -1.3096077367663383E-002
  0.13300000000000001         -1.9819485023617744E-002
  0.13410000000000000         -2.5359025225043297E-002
  0.13520000000000004         -2.9850328341126442E-002
  0.13630000000000003         -3.3590208739042282E-002
  0.13740000000000002         -3.6762878298759460E-002
  0.13850000000000001         -3.9299026131629944E-002
  0.13960000000000000         -4.0999952703714371E-002
  0.14070000000000005         -4.1796326637268066E-002
  0.14180000000000004         -4.1868157684803009E-002
  0.14290000000000003         -4.1518721729516983E-002
  0.14400000000000002         -4.0931954979896545E-002
  0.14510000000000001         -4.0060959756374359E-002
  0.14620000000000000         -3.8747761398553848E-002
  0.14730000000000004         -3.6941371858119965E-002
  0.14840000000000003         -3.4797050058841705E-002
  0.14950000000000002         -3.2566223293542862E-002
  0.15060000000000001         -3.0400991439819336E-002
  0.15170000000000000         -2.8267331421375275E-002
  0.15280000000000005         -2.6039069518446922E-002
  0.15390000000000004         -2.3664098232984543E-002
  0.15500000000000003         -2.1237449720501900E-002
  0.15610000000000002         -1.8921688199043274E-002
  0.15720000000000001         -1.6808254644274712E-002
  0.15830000000000000         -1.4859495684504509E-002
  0.15940000000000004         -1.2975819408893585E-002
  0.16050000000000003         -1.1109254322946072E-002
  0.16160000000000002         -9.3106534332036972E-003
  0.16270000000000001         -7.6775397174060345E-003
  0.16380000000000000         -6.2648486346006393E-003
  0.16490000000000005         -5.0447233952581882E-003
  0.16600000000000004         -3.9422474801540375E-003
  0.16710000000000003         -2.9033010359853506E-003
  0.16820000000000002         -1.9312732620164752E-003
  0.16930000000000001         -1.0711614741012454E-003
  0.17040000000000000         -3.6493412335403264E-004
  0.17150000000000004          1.8401599663775414E-004
  0.17260000000000003          6.1363831628113985E-004
  0.17370000000000002          9.7930396441370249E-004
  0.17480000000000001          1.3195899082347751E-003
  0.17590000000000000          1.6321928706020117E-003
  0.17700000000000005          1.8798174569383264E-003
  0.17810000000000004          2.0256489515304565E-003
  0.17920000000000003          2.0747981034219265E-003
  0.18030000000000002          2.0840466022491455E-003
  0.18140000000000001          2.1204832009971142E-003
  0.18250000000000000          2.2000127937644720E-003
  0.18360000000000004          2.2660256363451481E-003
  0.18470000000000003          2.2390382364392281E-003
  0.18580000000000002          2.0994264632463455E-003
  0.18690000000000001          1.9207290606573224E-003
  0.18800000000000000          1.8104909686371684E-003
  0.18910000000000005          1.8067439086735249E-003
  0.19020000000000004          1.8334244377911091E-003
  0.19130000000000003          1.7687664367258549E-003
  0.19240000000000002          1.5688370913267136E-003
  0.19350000000000001          1.3221380067989230E-003
  0.19460000000000005          1.1724056676030159E-003
  0.19570000000000004          1.1777078034356236E-003
  0.19680000000000003          1.2455454561859369E-003
  0.19790000000000002          1.2164872605353594E-003
  0.19900000000000001          1.0193315101787448E-003
  0.20010000000000000          7.4442295590415597E-004
  0.20120000000000005          5.5763148702681065E-004
  0.20230000000000004          5.3730327636003494E-004
  0.20340000000000003          5.9733574744313955E-004
  0.20450000000000002          5.7529291370883584E-004
  0.20560000000000000          3.9820585516281426E-004
  0.20670000000000005          1.5872942458372563E-004
  0.20780000000000004          2.3880227672634646E-005
  0.20890000000000003          6.8017172452528030E-005
