 -0.12000000000000000          0.0000000000000000
 -0.11889999999999999          0.0000000000000000
 -0.11780000000000000          0.0000000000000000
 -0.11670000000000000          0.0000000000000000
 -0.11559999999999999          0.0000000000000000
 -0.11449999999999999          0.0000000000000000
 -0.11340000000000000         -2.8604492363330727E-019
 -0.11230000000000000         -1.6156991134680565E-018
 -0.11119999999999999         -1.1639701974837134E-018
 -0.11009999999999999          1.5841805749590963E-017
 -0.10900000000000000          5.6959431987274871E-017
 -0.10790000000000000          3.1143657773809362E-017
 -0.10679999999999999         -3.0295872423069883E-016
 -0.10569999999999999         -9.5181939315912983E-016
 -0.10460000000000000         -7.3398718895991257E-016
 -0.10349999999999999          2.8151006594307479E-015
 -0.10239999999999999          9.8393439324439246E-015
 -0.10130000000000000          1.1230579454683115E-014
 -0.10020000000000000         -1.1555559738523225E-014
  -9.9099999999999994E-002    -6.4426125567264292E-014
  -9.7999999999999990E-002    -1.0064431926748441E-013
  -9.6899999999999986E-002    -1.3872437100686651E-014
  -9.5799999999999996E-002     2.6371645752559791E-013
  -9.4699999999999993E-002     5.7226077175565049E-013
  -9.3599999999999989E-002     4.4529912526444781E-013
  -9.2499999999999999E-002    -5.6671274660871629E-013
  -9.1399999999999995E-002    -2.1638617547087291E-012
  -9.0299999999999991E-002    -2.7938339575844795E-012
  -8.9200000000000002E-002    -4.0657166760875441E-013
  -8.8099999999999984E-002     5.2429584111723937E-012
  -8.6999999999999994E-002     1.0367599140304051E-011
  -8.5899999999999990E-002     8.0923236861485393E-012
  -8.4799999999999986E-002    -5.7538301380388734E-012
  -8.3699999999999997E-002    -2.5192320451949968E-011
  -8.2599999999999993E-002    -3.2894846568876090E-011
  -8.1499999999999989E-002    -1.1491433672683460E-011
  -8.0399999999999999E-002     3.6895455440832947E-011
  -7.9299999999999995E-002     7.9834659716393475E-011
  -7.8199999999999992E-002     7.0357344950089384E-011
  -7.7100000000000002E-002    -1.2025964425677049E-011
  -7.5999999999999984E-002    -1.2536170712618144E-010
  -7.4899999999999994E-002    -1.7575700617111778E-010
  -7.3799999999999991E-002    -8.6993426351433811E-011
  -7.2699999999999987E-002     1.1512760883514161E-010
  -7.1599999999999997E-002     2.8455263145765741E-010
  -7.0499999999999993E-002     2.5056270946954839E-010
  -6.9399999999999989E-002    -2.3142638846951336E-011
  -6.8300000000000000E-002    -3.5246713880887626E-010
  -6.7199999999999996E-002    -4.3552506046040662E-010
  -6.6099999999999992E-002    -1.1079983458506248E-010
  -6.5000000000000002E-002     4.3227488255581648E-010
  -6.3899999999999985E-002     7.1823441638585450E-010
  -6.2799999999999995E-002     3.5731273495542837E-010
  -6.1699999999999991E-002    -5.3894844143087539E-010
  -6.0599999999999994E-002    -1.2904692869852852E-009
  -5.9499999999999990E-002    -1.1069650751593940E-009
  -5.8399999999999994E-002     2.0266242850563998E-010
  -5.7299999999999990E-002     1.8625094799773478E-009
  -5.6199999999999986E-002     2.5396174052616516E-009
  -5.5099999999999996E-002     1.3632115436479353E-009
  -5.3999999999999992E-002    -1.2103454904988098E-009
  -5.2899999999999989E-002    -3.4831415529623655E-009
  -5.1799999999999985E-002    -3.6701124361826487E-009
  -5.0699999999999995E-002    -1.3276810761908564E-009
  -4.9599999999999991E-002     2.1088142343472782E-009
  -4.8499999999999988E-002     4.2546410838895099E-009
  -4.7399999999999998E-002     3.5742724335818821E-009
  -4.6299999999999994E-002     6.4279565004099481E-010
  -4.5199999999999990E-002    -2.2298620727667640E-009
  -4.4099999999999986E-002    -2.8310194188918558E-009
  -4.2999999999999997E-002    -9.0238000405307162E-010
  -4.1899999999999993E-002     1.5517102047724052E-009
  -4.0799999999999989E-002     1.8941432866625973E-009
  -3.9699999999999985E-002    -8.0199258345459157E-010
  -3.8599999999999995E-002    -4.6366079864412768E-009
  -3.7499999999999992E-002    -6.0805107615635734E-009
  -3.6399999999999988E-002    -2.7550568493239780E-009
  -3.5299999999999984E-002     4.3080539136042262E-009
  -3.4199999999999994E-002     1.0814981799001089E-008
  -3.3099999999999991E-002     1.1935703092547101E-008
  -3.1999999999999987E-002     5.8069735686672175E-009
  -3.0899999999999997E-002    -4.7245363177239597E-009
  -2.9799999999999993E-002    -1.3552093669488841E-008
  -2.8699999999999989E-002    -1.5169479894439064E-008
  -2.7599999999999986E-002    -8.3820221874475465E-009
  -2.6499999999999996E-002     2.7436233285271783E-009
  -2.5399999999999992E-002     1.1497460761233924E-008
  -2.4299999999999988E-002     1.3018546241028162E-008
  -2.3199999999999985E-002     7.5062356330590774E-009
  -2.2099999999999995E-002    -2.7789984202719609E-010
  -2.0999999999999991E-002    -5.0342929824864768E-009
  -1.9899999999999987E-002    -5.5381659258557647E-009
  -1.8799999999999983E-002    -6.1115197347305639E-009
  -1.7699999999999994E-002    -1.3310332391824886E-008
  -1.6599999999999990E-002    -2.9922691879846752E-008
  -1.5499999999999986E-002    -5.0983832267093021E-008
  -1.4399999999999996E-002    -6.5642829838452599E-008
  -1.3299999999999992E-002    -6.4494372509216191E-008
  -1.2199999999999989E-002    -4.7385132262434126E-008
  -1.1099999999999985E-002    -2.5504489187255786E-008
  -9.9999999999999950E-003    -1.5288359023202247E-008
  -8.8999999999999913E-003    -2.7894436982478510E-008
  -7.7999999999999875E-003    -6.1905623738311988E-008
  -6.6999999999999837E-003    -1.0501567970777614E-007
  -5.5999999999999939E-003    -1.4375542889411008E-007
  -4.4999999999999901E-003    -1.7392855511388916E-007
  -3.3999999999999864E-003    -2.0359820496196335E-007
  -2.2999999999999826E-003    -2.4619700411676604E-007
  -1.1999999999999927E-003    -3.0924920224606467E-007
  -9.9999999999988987E-005    -3.8790616940787004E-007
   1.0000000000000148E-003    -4.6884284188308811E-007
   2.1000000000000185E-003    -5.4182385156309465E-007
   3.2000000000000084E-003    -6.0999531115157879E-007
   4.3000000000000121E-003    -6.9073058739377302E-007
   5.4000000000000159E-003    -8.0605963148627779E-007
   6.5000000000000058E-003    -9.6965936791093554E-007
   7.6000000000000234E-003    -1.1799179446825292E-006
   8.7000000000000133E-003    -1.4239108168112580E-006
   9.8000000000000032E-003    -1.6890257938939612E-006
   1.0900000000000021E-002    -1.9736185095098335E-006
   1.2000000000000011E-002    -2.2892211291036801E-006
   1.3100000000000001E-002    -2.6532709398452425E-006
   1.4200000000000018E-002    -3.0781534405832645E-006
   1.5300000000000008E-002    -3.5647462937049568E-006
   1.6400000000000026E-002    -4.1051516745937988E-006
   1.7500000000000016E-002    -4.6925747483328450E-006
   1.8600000000000005E-002    -5.3310500334191602E-006
   1.9700000000000023E-002    -6.0375714383553714E-006
   2.0800000000000013E-002    -6.8343633756740019E-006
   2.1900000000000003E-002    -7.7361528383335099E-006
   2.3000000000000020E-002    -8.7414246081607416E-006
   2.4100000000000010E-002    -9.8344216894474812E-006
   2.5200000000000000E-002    -1.0997217941621784E-005
   2.6300000000000018E-002    -1.2223449630255345E-005
   2.7400000000000008E-002    -1.3523307643481530E-005
   2.8500000000000025E-002    -1.4915318388375454E-005
   2.9600000000000015E-002    -1.6410283933510073E-005
   3.0700000000000005E-002    -1.7999080228037201E-005
   3.1800000000000023E-002    -1.9653494746307842E-005
   3.2900000000000013E-002    -2.1339339582482353E-005
   3.4000000000000002E-002    -2.3031434466247447E-005
   3.5100000000000020E-002    -2.4718727217987180E-005
   3.6200000000000010E-002    -2.6395879103802145E-005
   3.7300000000000028E-002    -2.8048700187355280E-005
   3.8400000000000017E-002    -2.9645514587173238E-005
   3.9500000000000007E-002    -3.1141029467107728E-005
   4.0600000000000025E-002    -3.2488780561834574E-005
   4.1700000000000015E-002    -3.3651125704636797E-005
   4.2800000000000005E-002    -3.4598488127812743E-005
   4.3900000000000022E-002    -3.5299275623401627E-005
   4.5000000000000012E-002    -3.5709370422409847E-005
   4.6100000000000002E-002    -3.5770284739555791E-005
   4.7200000000000020E-002    -3.5417433537077159E-005
   4.8300000000000010E-002    -3.4591903386171907E-005
   4.9400000000000027E-002    -3.3247331884922460E-005
   5.0500000000000017E-002    -3.1348081392934546E-005
   5.1600000000000007E-002    -2.8862250474048778E-005
   5.2700000000000025E-002    -2.5755767637747340E-005
   5.3800000000000014E-002    -2.1991909306962043E-005
   5.4900000000000004E-002    -1.7535947336000390E-005
   5.6000000000000022E-002    -1.2361601875454653E-005
   5.7100000000000012E-002    -6.4564978856651578E-006
   5.8200000000000002E-002     1.7497345083938853E-007
   5.9300000000000019E-002     7.5114553510502446E-006
   6.0400000000000009E-002     1.5516636267420836E-005
   6.1500000000000027E-002     2.4142322217812762E-005
   6.2600000000000017E-002     3.3330285077681765E-005
   6.3700000000000007E-002     4.3011295929318294E-005
   6.4800000000000024E-002     5.3101841331226751E-005
   6.5900000000000014E-002     6.3501182012259960E-005
   6.7000000000000004E-002     7.4091549322474748E-005
   6.8100000000000022E-002     8.4741521277464926E-005
   6.9200000000000012E-002     9.5309798780363053E-005
   7.0300000000000029E-002     1.0564595868345350E-004
   7.1400000000000019E-002     1.1558856203919277E-004
   7.2500000000000009E-002     1.2496455747168511E-004
   7.3600000000000027E-002     1.3359352305997163E-004
   7.4700000000000016E-002     1.4129615738056600E-004
   7.5800000000000006E-002     1.4790179557166994E-004
   7.6900000000000024E-002     1.5325014828704298E-004
   7.8000000000000014E-002     1.5718805661890656E-004
   7.9100000000000004E-002     1.5956758579704911E-004
   8.0200000000000021E-002     1.6025063814595342E-004
   8.1300000000000011E-002     1.5911829541437328E-004
   8.2400000000000029E-002     1.5607783279847354E-004
   8.3500000000000019E-002     1.5106220962479711E-004
   8.4600000000000009E-002     1.4402419037651271E-004
   8.5700000000000026E-002     1.3493375445250422E-004
   8.6800000000000016E-002     1.2378495011944324E-004
   8.7900000000000006E-002     1.1060824908781797E-004
   8.9000000000000024E-002     9.5477720606140792E-005
   9.0100000000000013E-002     7.8504992416128516E-005
   9.1200000000000003E-002     5.9824444178957492E-005
   9.2300000000000021E-002     3.9582504541613162E-005
   9.3400000000000011E-002     1.7940223187906668E-005
   9.4500000000000028E-002    -4.9144910008180887E-006
   9.5600000000000018E-002    -2.8759553970303386E-005
   9.6700000000000008E-002    -5.3346975619206205E-005
   9.7800000000000026E-002    -7.8421842772513628E-005
   9.8900000000000016E-002    -1.0373654367867857E-004
  0.10000000000000001         -1.2904946925118566E-004
  0.10110000000000002         -1.5411243657581508E-004
  0.10220000000000001         -1.7866295820567757E-004
  0.10330000000000003         -2.0243391918484122E-004
  0.10440000000000002         -2.2517450270242989E-004
  0.10550000000000001         -2.4666448007337749E-004
  0.10660000000000003         -2.6671000523492694E-004
  0.10770000000000002         -2.8512740391306579E-004
  0.10880000000000001         -3.0173378763720393E-004
  0.10990000000000003         -3.1635619234293699E-004
  0.11100000000000002         -3.2885131076909602E-004
  0.11210000000000001         -3.3911506761796772E-004
  0.11320000000000002         -3.4707057056948543E-004
  0.11430000000000001         -3.5264392499811947E-004
  0.11540000000000003         -3.5575166111811996E-004
  0.11650000000000002         -3.5631202626973391E-004
  0.11760000000000001         -3.5426818067207932E-004
  0.11870000000000003         -3.4959864569827914E-004
  0.11980000000000002         -3.4230077289976180E-004
  0.12090000000000001         -3.3236099989153445E-004
  0.12200000000000003         -3.1974067678675056E-004
  0.12310000000000001         -3.0439157853834331E-004
  0.12420000000000003         -2.8628486325033009E-004
  0.12530000000000002         -2.6542425621300936E-004
  0.12640000000000001         -2.4182898050639778E-004
  0.12750000000000003         -2.1550380915869027E-004
  0.12860000000000002         -1.8642771465238184E-004
  0.12970000000000001         -1.5457664267159998E-004
  0.13080000000000003         -1.1996212560916319E-004
  0.13190000000000002         -8.2650105468928814E-005
  0.13300000000000001         -4.2744457459775731E-005
  0.13410000000000000         -3.5589616231845866E-007
  0.13520000000000004          4.4406922825146466E-005
  0.13630000000000003          9.1409485321491957E-005
  0.13740000000000002          1.4044833369553089E-004
  0.13850000000000001          1.9123272795695812E-004
  0.13960000000000000          2.4340659729205072E-004
  0.14070000000000005          2.9658703715540469E-004
  0.14180000000000004          3.5037769703194499E-004
  0.14290000000000003          4.0434012771584094E-004
  0.14400000000000002          4.5795048936270177E-004
  0.14510000000000001          5.1058764802291989E-004
  0.14620000000000000          5.6156946811825037E-004
  0.14730000000000004          6.1020959401503205E-004
  0.14840000000000003          6.5584469120949507E-004
  0.14950000000000002          6.9781136699020863E-004
  0.15060000000000001          7.3540414450690150E-004
  0.15170000000000000          7.6786673162132502E-004
  0.15280000000000005          7.9443946015089750E-004
  0.15390000000000004          8.1443303497508168E-004
  0.15500000000000003          8.2727166591212153E-004
  0.15610000000000002          8.3247618749737740E-004
  0.15720000000000001          8.2961778389289975E-004
  0.15830000000000000          8.1829988630488515E-004
  0.15940000000000004          7.9820043174549937E-004
  0.16050000000000003          7.6914584496989846E-004
  0.16160000000000002          7.3115638224408031E-004
  0.16270000000000001          6.8442837800830603E-004
  0.16380000000000000          6.2927429098635912E-004
  0.16490000000000005          5.6608353042975068E-004
  0.16600000000000004          4.9534166464582086E-004
  0.16710000000000003          4.1768737719394267E-004
  0.16820000000000002          3.3394864294677973E-004
  0.16930000000000001          2.4511708761565387E-004
  0.17040000000000000          1.5227549010887742E-004
  0.17150000000000004          5.6535591284045950E-005
  0.17260000000000003         -4.0971743146656081E-005
  0.17370000000000002         -1.3906550884712487E-004
  0.17480000000000001         -2.3649010108783841E-004
  0.17590000000000000         -3.3194012939929962E-004
  0.17700000000000005         -4.2412959737703204E-004
  0.17810000000000004         -5.1185843767598271E-004
  0.17920000000000003         -5.9403525665402412E-004
  0.18030000000000002         -6.6965771839022636E-004
  0.18140000000000001         -7.3778996011242270E-004
  0.18250000000000000         -7.9757446656003594E-004
  0.18360000000000004         -8.4828032413497567E-004
  0.18470000000000003         -8.8935403618961573E-004
  0.18580000000000002         -9.2043541371822357E-004
  0.18690000000000001         -9.4133371021598577E-004
  0.18800000000000000         -9.5199438510462642E-004
  0.18910000000000005         -9.5248792786151171E-004
  0.19020000000000004         -9.4302592333406210E-004
  0.19130000000000003         -9.2398258857429028E-004
  0.19240000000000002         -8.9589372510090470E-004
  0.19350000000000001         -8.5942773148417473E-004
  0.19460000000000005         -8.1534712808206677E-004
  0.19570000000000004         -7.6448242180049419E-004
  0.19680000000000003         -7.0772471372038126E-004
  0.19790000000000002         -6.4602459315210581E-004
  0.19900000000000001         -5.8038125280290842E-004
  0.20010000000000000         -5.1181629532948136E-004
  0.20120000000000005         -4.4134410563856363E-004
  0.20230000000000004         -3.6994952824898064E-004
  0.20340000000000003         -2.9857477056793869E-004
  0.20450000000000002         -2.2811051167082042E-004
  0.20560000000000000         -1.5938442084006965E-004
  0.20670000000000005         -9.3150170869193971E-005
  0.20780000000000004         -3.0079068892518990E-005
  0.20890000000000003          2.9245617042761296E-005
