 -0.12000000000000000          0.0000000000000000
 -0.11889999999999999          0.0000000000000000
 -0.11780000000000000          0.0000000000000000
 -0.11670000000000000          0.0000000000000000
 -0.11559999999999999          0.0000000000000000
 -0.11449999999999999          0.0000000000000000
 -0.11340000000000000          0.0000000000000000
 -0.11230000000000000          0.0000000000000000
 -0.11119999999999999         -1.2578401187019096E-029
 -0.11009999999999999         -2.7955831292928061E-028
 -0.10900000000000000         -2.6225453534339100E-027
 -0.10790000000000000         -1.3781276754694635E-026
 -0.10679999999999999         -4.5343925128817975E-026
 -0.10569999999999999         -9.6006313502781079E-026
 -0.10460000000000000         -1.1846692759658092E-025
 -0.10349999999999999         -1.1656352024733533E-026
 -0.10239999999999999          3.5224828507130165E-025
 -0.10130000000000000          1.0683555072321741E-024
 -0.10020000000000000          1.6320033293302814E-024
  -9.9099999999999994E-002    -8.9867478057036852E-025
  -9.7999999999999990E-002    -1.2120025026796701E-023
  -9.6899999999999986E-002    -2.8132051523960497E-023
  -9.5799999999999996E-002    -7.8895138756684066E-024
  -9.4699999999999993E-002     1.2071715027188785E-022
  -9.3599999999999989E-002     3.1890306676557164E-022
  -9.2499999999999999E-002     1.9033921173275901E-022
  -9.1399999999999995E-002    -9.0658712408063402E-022
  -9.0299999999999991E-002    -2.7028286054399651E-021
  -8.9200000000000002E-002    -2.3031212413533824E-021
  -8.8099999999999984E-002     4.9170866979258924E-021
  -8.6999999999999994E-002     1.7979340916098321E-020
  -8.5899999999999990E-002     2.0033926695122196E-020
  -8.4799999999999986E-002    -1.7311264940078173E-020
  -8.3699999999999997E-002    -9.5750181946150614E-020
  -8.2599999999999993E-002    -1.3545569791635410E-019
  -8.1499999999999989E-002     1.4027501695497570E-020
  -8.0399999999999999E-002     4.0596457990817576E-019
  -7.9299999999999995E-002     7.3406209926336598E-019
  -7.8199999999999992E-002     3.1087771280276171E-019
  -7.7100000000000002E-002    -1.3113232212257206E-018
  -7.5999999999999984E-002    -3.2238510310271793E-018
  -7.4899999999999994E-002    -2.7404452334851179E-018
  -7.3799999999999991E-002     2.7065901785793945E-018
  -7.2699999999999987E-002     1.1388619364907635E-017
  -7.1599999999999997E-002     1.4477402762048021E-017
  -7.0499999999999993E-002     5.1038982499082479E-019
  -6.9399999999999989E-002    -3.1074075340681401E-017
  -6.8300000000000000E-002    -5.6749420755915008E-017
  -6.7199999999999996E-002    -3.5035443294197851E-017
  -6.6099999999999992E-002     5.6394427924231751E-017
  -6.5000000000000002E-002     1.7153678466897603E-016
  -6.3899999999999985E-002     1.8800094787656209E-016
  -6.2799999999999995E-002    -1.0874583689668194E-017
  -6.1699999999999991E-002    -3.8579428483765353E-016
  -6.0599999999999994E-002    -6.4977861441523825E-016
  -5.9499999999999990E-002    -3.9626369147505549E-016
  -5.8399999999999994E-002     5.2524280125178669E-016
  -5.7299999999999990E-002     1.6291707828920677E-015
  -5.6199999999999986E-002     1.8430073209208496E-015
  -5.5099999999999996E-002     2.4887876751272515E-016
  -5.3999999999999992E-002    -2.8070278001687040E-015
  -5.2899999999999989E-002    -5.1898551476053500E-015
  -5.1799999999999985E-002    -3.9898038554074013E-015
  -5.0699999999999995E-002     1.9953400554956679E-015
  -4.9599999999999991E-002     9.9569730918950237E-015
  -4.8499999999999988E-002     1.3401923003981096E-014
  -4.7399999999999998E-002     6.3132436053296801E-015
  -4.6299999999999994E-002    -1.0795960920216303E-014
  -4.5199999999999990E-002    -2.7774449203759634E-014
  -4.4099999999999986E-002    -2.9167623584415089E-014
  -4.2999999999999997E-002    -5.6553039872863243E-015
  -4.1899999999999993E-002     3.4561021172762121E-014
  -4.0799999999999989E-002     6.4815164411806403E-014
  -3.9699999999999985E-002     5.4952505897489304E-014
  -3.8599999999999995E-002    -4.2679991214388674E-015
  -3.7499999999999992E-002    -8.4809824365140313E-014
  -3.6399999999999988E-002    -1.3022729053978332E-013
  -3.5299999999999984E-002    -9.1535083007222851E-014
  -3.4199999999999994E-002     3.0551268844413934E-014
  -3.3099999999999991E-002     1.6989911539276592E-013
  -3.1999999999999987E-002     2.2696037757508059E-013
  -3.0899999999999997E-002     1.3660806427034933E-013
  -2.9799999999999993E-002    -7.2810281295885432E-014
  -2.8699999999999989E-002    -2.7857436409733927E-013
  -2.7599999999999986E-002    -3.3551511720818217E-013
  -2.6499999999999996E-002    -1.8011159512616726E-013
  -2.5399999999999992E-002     1.0881084851503339E-013
  -2.4299999999999988E-002     3.4898562446990244E-013
  -2.3199999999999985E-002     3.7953150279664005E-013
  -2.2099999999999995E-002     1.8492953208267687E-013
  -2.0999999999999991E-002    -8.3958630792049099E-014
  -1.9899999999999987E-002    -2.2572331644880178E-013
  -1.8799999999999983E-002    -1.6300775020159503E-013
  -1.7699999999999994E-002    -2.9027595485706797E-014
  -1.6599999999999990E-002    -6.4381280254904860E-014
  -1.5499999999999986E-002    -3.7121106427444317E-013
  -1.4399999999999996E-002    -7.2033194296536318E-013
  -1.3299999999999992E-002    -6.2344189056054433E-013
  -1.2199999999999989E-002     2.8778761600352365E-013
  -1.1099999999999985E-002     1.8008235961458618E-012
  -9.9999999999999950E-003     2.9686290318325925E-012
  -8.8999999999999913E-003     2.5401865940549717E-012
  -7.7999999999999875E-003    -1.3351856241721610E-013
  -6.6999999999999837E-003    -4.2609795899983816E-012
  -5.5999999999999939E-003    -7.5350810660457235E-012
  -4.4999999999999901E-003    -7.1826841349653670E-012
  -3.3999999999999864E-003    -1.7830674003266322E-012
  -2.2999999999999826E-003     7.1827791110756767E-012
  -1.1999999999999927E-003     1.5236301803556174E-011
  -9.9999999999988987E-005     1.6805497965455274E-011
   1.0000000000000148E-003     8.4868232233525909E-012
   2.1000000000000185E-003    -8.0580880509883990E-012
   3.2000000000000084E-003    -2.5532275946260619E-011
   4.3000000000000121E-003    -3.3768283308477365E-011
   5.4000000000000159E-003    -2.5022990624012920E-011
   6.5000000000000058E-003     7.4574146771005934E-013
   7.6000000000000234E-003     3.3769955581908206E-011
   8.7000000000000133E-003     5.7540291975577418E-011
   9.8000000000000032E-003     5.6493840855376121E-011
   1.0900000000000021E-002     2.4965743014582209E-011
   1.2000000000000011E-002    -2.7408200709011510E-011
   1.3100000000000001E-002    -7.7656797659031440E-011
   1.4200000000000018E-002    -9.9241170836705805E-011
   1.5300000000000008E-002    -7.5720457681782705E-011
   1.6400000000000026E-002    -1.1404186622820944E-011
   1.7500000000000016E-002     6.7575098294803126E-011
   1.8600000000000005E-002     1.2411285887914403E-010
   1.9700000000000023E-002     1.2878202670929539E-010
   2.0800000000000013E-002     7.6792135150771657E-011
   2.1900000000000003E-002    -7.0044204811270383E-012
   2.3000000000000020E-002    -7.9992137913542649E-011
   2.4100000000000010E-002    -1.0597925315103396E-010
   2.5200000000000000E-002    -7.8461535879537081E-011
   2.6300000000000018E-002    -2.7689354281656975E-011
   2.7400000000000008E-002    -3.7115085310679419E-012
   2.8500000000000025E-002    -4.1865146765962535E-011
   2.9600000000000015E-002    -1.3048039038121573E-010
   3.0700000000000005E-002    -2.0376063336602357E-010
   3.1800000000000023E-002    -1.7135828866976510E-010
   3.2900000000000013E-002     2.5652388199737253E-011
   3.4000000000000002E-002     3.6266034619814036E-010
   3.5100000000000020E-002     7.1789124644894287E-010
   3.6200000000000010E-002     9.1451130002084824E-010
   3.7300000000000028E-002     8.0370654576000788E-010
   3.8400000000000017E-002     3.4571154272633464E-010
   3.9500000000000007E-002    -3.5954303423402223E-010
   4.0600000000000025E-002    -1.1155316670397042E-009
   4.1700000000000015E-002    -1.7257324458341827E-009
   4.2800000000000005E-002    -2.0870338790501819E-009
   4.3900000000000022E-002    -2.2189219350821077E-009
   4.5000000000000012E-002    -2.2023942669591179E-009
   4.6100000000000002E-002    -2.0590558147404181E-009
   4.7200000000000020E-002    -1.6446590755947454E-009
   4.8300000000000010E-002    -6.3242494574566877E-010
   4.9400000000000027E-002     1.3856997771455326E-009
   5.0500000000000017E-002     4.7218451371122683E-009
   5.1600000000000007E-002     9.4316865428822894E-009
   5.2700000000000025E-002     1.5260889441037762E-008
   5.3800000000000014E-002     2.1732134314333962E-008
   5.4900000000000004E-002     2.8328939194466329E-008
   5.6000000000000022E-002     3.4683292682302636E-008
   5.7100000000000012E-002     4.0685158353426232E-008
   5.8200000000000002E-002     4.6495237882027141E-008
   5.9300000000000019E-002     5.2513239978679849E-008
   6.0400000000000009E-002     5.9379239303325448E-008
   6.1500000000000027E-002     6.8042368184251245E-008
   6.2600000000000017E-002     7.9846181222364976E-008
   6.3700000000000007E-002     9.6517247527572181E-008
   6.4800000000000024E-002     1.1996105797607015E-007
   6.5900000000000014E-002     1.5187669077931787E-007
   6.7000000000000004E-002     1.9334251533109637E-007
   6.8100000000000022E-002     2.4460763370370842E-007
   6.9200000000000012E-002     3.0527596095453191E-007
   7.0300000000000029E-002     3.7489499504772539E-007
   7.1400000000000019E-002     4.5374343926596339E-007
   7.2500000000000009E-002     5.4347668765331036E-007
   7.3600000000000027E-002     6.4732716964499559E-007
   7.4700000000000016E-002     7.6976158425168251E-007
   7.5800000000000006E-002     9.1577112470986322E-007
   7.6900000000000024E-002     1.0901574114541290E-006
   7.8000000000000014E-002     1.2971729574928759E-006
   7.9100000000000004E-002     1.5406747024826473E-006
   8.0200000000000021E-002     1.8246623767481651E-006
   8.1300000000000011E-002     2.1538635337492451E-006
   8.2400000000000029E-002     2.5340077627333812E-006
   8.3500000000000019E-002     2.9716297831328120E-006
   8.4600000000000009E-002     3.4735244298644830E-006
   8.5700000000000026E-002     4.0461964090354741E-006
   8.6800000000000016E-002     4.6956679398135748E-006
   8.7900000000000006E-002     5.4278084462566767E-006
   8.9000000000000024E-002     6.2490407799487002E-006
   9.0100000000000013E-002     7.1670342549623456E-006
   9.1200000000000003E-002     8.1909511209232733E-006
   9.2300000000000021E-002     9.3310000011115335E-006
   9.3400000000000011E-002     1.0597388609312475E-005
   9.4500000000000028E-002     1.1999031812592875E-005
   9.5600000000000018E-002     1.3542485248763114E-005
   9.6700000000000008E-002     1.5231446013785899E-005
   9.7800000000000026E-002     1.7066882719518617E-005
   9.8900000000000016E-002     1.9047569367103279E-005
  0.10000000000000001          2.1170655600144528E-005
  0.10110000000000002          2.3431965018971823E-005
  0.10220000000000001          2.5825835109571926E-005
  0.10330000000000003          2.8344556994852610E-005
  0.10440000000000002          3.0977549613453448E-005
  0.10550000000000001          3.3710417483234778E-005
  0.10660000000000003          3.6524012102745473E-005
  0.10770000000000002          3.9393533370457590E-005
  0.10880000000000001          4.2287818359909579E-005
  0.10990000000000003          4.5168959331931546E-005
  0.11100000000000002          4.7992445615818724E-005
  0.11210000000000001          5.0707934860838577E-005
  0.11320000000000002          5.3260497224982828E-005
  0.11430000000000001          5.5591932323295623E-005
  0.11540000000000003          5.7641656894702464E-005
  0.11650000000000002          5.9346810303395614E-005
  0.11760000000000001          6.0641603340627626E-005
  0.11870000000000003          6.1456361436285079E-005
  0.11980000000000002          6.1717102653346956E-005
  0.12090000000000001          6.1346225265879184E-005
  0.12200000000000003          6.0264614148763940E-005
  0.12310000000000001          5.8394864026922733E-005
  0.12420000000000003          5.5664710089331493E-005
  0.12530000000000002          5.2009894716320559E-005
  0.12640000000000001          4.7375990106957033E-005
  0.12750000000000003          4.1719249566085637E-005
  0.12860000000000002          3.5007044061785564E-005
  0.12970000000000001          2.7218558898312040E-005
  0.13080000000000003          1.8346210708841681E-005
  0.13190000000000002          8.3977565736859106E-006
  0.13300000000000001         -2.6013258320745081E-006
  0.13410000000000000         -1.4605813703383319E-005
  0.13520000000000004         -2.7549422156880610E-005
  0.13630000000000003         -4.1344253986608237E-005
  0.13740000000000002         -5.5880838772282004E-005
  0.13850000000000001         -7.1028436650522053E-005
  0.13960000000000000         -8.6635482148267329E-005
  0.14070000000000005         -1.0253029176965356E-004
  0.14180000000000004         -1.1852229363285005E-004
  0.14290000000000003         -1.3440405018627644E-004
  0.14400000000000002         -1.4995411038398743E-004
  0.14510000000000001         -1.6494044393766671E-004
  0.14620000000000000         -1.7912434122990817E-004
  0.14730000000000004         -1.9226444419473410E-004
  0.14840000000000003         -2.0412082085385919E-004
  0.14950000000000002         -2.1445917082019150E-004
  0.15060000000000001         -2.2305511811282486E-004
  0.15170000000000000         -2.2969870769884437E-004
  0.15280000000000005         -2.3419894569087774E-004
  0.15390000000000004         -2.3638831044081599E-004
  0.15500000000000003         -2.3612704535480589E-004
  0.15610000000000002         -2.3330714611802250E-004
  0.15720000000000001         -2.2785595501773059E-004
  0.15830000000000000         -2.1973920229356736E-004
  0.15940000000000004         -2.0896333444397897E-004
  0.16050000000000003         -1.9557694031391293E-004
  0.16160000000000002         -1.7967118765227497E-004
  0.16270000000000001         -1.6137941565830261E-004
  0.16380000000000000         -1.4087589806877077E-004
  0.16490000000000005         -1.1837398778880015E-004
  0.16600000000000004         -9.4123650342226028E-005
  0.16710000000000003         -6.8408131483010948E-005
  0.16820000000000002         -4.1539769881637767E-005
  0.16930000000000001         -1.3854933058610186E-005
  0.17040000000000000          1.4291872503235936E-005
  0.17150000000000004          4.2534560634521767E-005
  0.17260000000000003          7.0502348535228521E-005
  0.17370000000000002          9.7826625278685242E-005
  0.17480000000000001          1.2414754019118845E-004
  0.17590000000000000          1.4912011101841927E-004
  0.17700000000000005          1.7241980822291225E-004
  0.17810000000000004          1.9374776456970721E-004
  0.17920000000000003          2.1283580281306058E-004
  0.18030000000000002          2.2945110686123371E-004
  0.18140000000000001          2.4340041272807866E-004
  0.18250000000000000          2.5453357375226915E-004
  0.18360000000000004          2.6274632546119392E-004
  0.18470000000000003          2.6798195904120803E-004
  0.18580000000000002          2.7023159782402217E-004
  0.18690000000000001          2.6953313499689102E-004
  0.18800000000000000          2.6596896350383759E-004
  0.18910000000000005          2.5966277462430298E-004
  0.19020000000000004          2.5077577447518706E-004
  0.19130000000000003          2.3950268223416060E-004
  0.19240000000000002          2.2606761194765568E-004
  0.19350000000000001          2.1071977971587330E-004
  0.19460000000000005          1.9372899259906262E-004
  0.19570000000000004          1.7538056999910623E-004
  0.19680000000000003          1.5596984303556383E-004
  0.19790000000000002          1.3579639198724180E-004
  0.19900000000000001          1.1515824735397473E-004
  0.20010000000000000          9.4346338300965726E-005
  0.20120000000000005          7.3639384936541319E-005
  0.20230000000000004          5.3299434512155131E-005
  0.20340000000000003          3.3568016078788787E-005
  0.20450000000000002          1.4662944522569887E-005
  0.20560000000000000         -3.2241512144537410E-006
  0.20670000000000005         -1.9929522750317119E-005
  0.20780000000000004         -3.5318218579050153E-005
  0.20890000000000003         -4.9284335545962676E-005
