 -0.12000000000000000          0.0000000000000000
 -0.11889999999999999          0.0000000000000000
 -0.11780000000000000          0.0000000000000000
 -0.11670000000000000         -3.5287786581683633E-011
 -0.11559999999999999         -1.4033993411821655E-010
 -0.11449999999999999         -2.2302990010381052E-010
 -0.11340000000000000         -4.8866535817815304E-011
 -0.11230000000000000          4.6716741586294575E-010
 -0.11119999999999999          8.6714307956370362E-010
 -0.11009999999999999          2.8440932942075392E-010
 -0.10900000000000000         -1.5342342951640831E-009
 -0.10790000000000000         -3.0915707771583811E-009
 -0.10679999999999999         -1.6175880634961004E-009
 -0.10569999999999999          3.9676235630281553E-009
 -0.10460000000000000          9.6895123036233599E-009
 -0.10349999999999999          7.3221189111905005E-009
 -0.10239999999999999         -8.0222291032328030E-009
 -0.10130000000000000         -2.8123894324494358E-008
 -0.10020000000000000         -3.1020306323625846E-008
  -9.9099999999999994E-002     2.3726154374514863E-009
  -9.7999999999999990E-002     6.2284030377668387E-008
  -9.6899999999999986E-002     9.9891295235465805E-008
  -9.5799999999999996E-002     5.5838608403746548E-008
  -9.4699999999999993E-002    -8.0536167956779536E-008
  -9.3599999999999989E-002    -2.2910082009275357E-007
  -9.2499999999999999E-002    -2.4942374921010924E-007
  -9.1399999999999995E-002    -4.9746613939305462E-008
  -9.0299999999999991E-002     2.9930953360235435E-007
  -8.9200000000000002E-002     5.5762563988537295E-007
  -8.8099999999999984E-002     4.6547165766241960E-007
  -8.6999999999999994E-002    -3.2959299289814226E-008
  -8.5899999999999990E-002    -6.7325606778467773E-007
  -8.4799999999999986E-002    -9.9753481208608719E-007
  -8.3699999999999997E-002    -6.7697902750296635E-007
  -8.2599999999999993E-002     1.9924004845961463E-007
  -8.1499999999999989E-002     1.1124643606308382E-006
  -8.0399999999999999E-002     1.4306007187769865E-006
  -7.9299999999999995E-002     8.4359652419152553E-007
  -7.8199999999999992E-002    -3.9720558220324165E-007
  -7.7100000000000002E-002    -1.6118473240567255E-006
  -7.5999999999999984E-002    -2.1007942905271193E-006
  -7.4899999999999994E-002    -1.5525715753028635E-006
  -7.3799999999999991E-002    -2.0826337276957929E-007
  -7.2699999999999987E-002     1.2754051113006426E-006
  -7.1599999999999997E-002     2.1642754290951416E-006
  -7.0499999999999993E-002     2.0427717117854627E-006
  -6.9399999999999989E-002     1.1356901268300135E-006
  -6.8300000000000000E-002     4.0123697431226901E-007
  -6.7199999999999996E-002     1.2247905942786019E-006
  -6.6099999999999992E-002     4.6807626858935691E-006
  -6.5000000000000002E-002     1.0661828127922490E-005
  -6.3899999999999985E-002     1.7471738829044625E-005
  -6.2799999999999995E-002     2.2382022507372312E-005
  -6.1699999999999991E-002     2.3057633370626718E-005
  -6.0599999999999994E-002     1.9040984625462443E-005
  -5.9499999999999990E-002     1.2275620974833146E-005
  -5.8399999999999994E-002     6.2485291891789529E-006
  -5.7299999999999990E-002     4.3268823901598807E-006
  -5.6199999999999986E-002     8.4271241576061584E-006
  -5.5099999999999996E-002     1.8773933334159665E-005
  -5.3999999999999992E-002     3.4529050026321784E-005
  -5.2899999999999989E-002     5.4419208026956767E-005
  -5.1799999999999985E-002     7.6780168456025422E-005
  -5.0699999999999995E-002     9.9331278761383146E-005
  -4.9599999999999991E-002     1.1951478518312797E-004
  -4.8499999999999988E-002     1.3574340846389532E-004
  -4.7399999999999998E-002     1.4882574032526463E-004
  -4.6299999999999994E-002     1.6230695473495871E-004
  -4.5199999999999990E-002     1.8115255807060748E-004
  -4.4099999999999986E-002     2.0957998640369624E-004
  -4.2999999999999997E-002     2.4959124857559800E-004
  -4.1899999999999993E-002     3.0111163505353034E-004
  -4.0799999999999989E-002     3.6320477374829352E-004
  -3.9699999999999985E-002     4.3502578046172857E-004
  -3.8599999999999995E-002     5.1580247236415744E-004
  -3.7499999999999992E-002     6.0446158749982715E-004
  -3.6399999999999988E-002     7.0005451561883092E-004
  -3.5299999999999984E-002     8.0316077219322324E-004
  -3.4199999999999994E-002     9.1697456082329154E-004
  -3.3099999999999991E-002     1.0465034283697605E-003
  -3.1999999999999987E-002     1.1958610266447067E-003
  -3.0899999999999997E-002     1.3656324008479714E-003
  -2.9799999999999993E-002     1.5527288196608424E-003
  -2.8699999999999989E-002     1.7531231278553605E-003
  -2.7599999999999986E-002     1.9653544295579195E-003
  -2.6499999999999996E-002     2.1918145939707756E-003
  -2.5399999999999992E-002     2.4368136655539274E-003
  -2.4299999999999988E-002     2.7032631915062666E-003
  -2.3199999999999985E-002     2.9908663127571344E-003
  -2.2099999999999995E-002     3.2970178872346878E-003
  -2.0999999999999991E-002     3.6188422236591578E-003
  -1.9899999999999987E-002     3.9539085701107979E-003
  -1.8799999999999983E-002     4.2989156208932400E-003
  -1.7699999999999994E-002     4.6482076868414879E-003
  -1.6599999999999990E-002     4.9943751655519009E-003
  -1.5499999999999986E-002     5.3309923969209194E-003
  -1.4399999999999996E-002     5.6546824052929878E-003
  -1.3299999999999992E-002     5.9640076942741871E-003
  -1.2199999999999989E-002     6.2553044408559799E-003
  -1.1099999999999985E-002     6.5192775800824165E-003
  -9.9999999999999950E-003     6.7416192032396793E-003
  -8.8999999999999913E-003     6.9075515493750572E-003
  -7.7999999999999875E-003     7.0063895545899868E-003
  -6.6999999999999837E-003     7.0317909121513367E-003
  -5.5999999999999939E-003     6.9776782765984535E-003
  -4.4999999999999901E-003     6.8338667042553425E-003
  -3.3999999999999864E-003     6.5859099850058556E-003
  -2.2999999999999826E-003     6.2192780897021294E-003
  -1.1999999999999927E-003     5.7241306640207767E-003
  -9.9999999999988987E-005     5.0958329811692238E-003
   1.0000000000000148E-003     4.3310220353305340E-003
   2.1000000000000185E-003     3.4233692567795515E-003
   3.2000000000000084E-003     2.3636615369468927E-003
   4.3000000000000121E-003     1.1445163981989026E-003
   5.4000000000000159E-003    -2.3467314895242453E-004
   6.5000000000000058E-003    -1.7671510577201843E-003
   7.6000000000000234E-003    -3.4428394865244627E-003
   8.7000000000000133E-003    -5.2529773674905300E-003
   9.8000000000000032E-003    -7.1899741888046265E-003
   1.0900000000000021E-002    -9.2430897057056427E-003
   1.2000000000000011E-002    -1.1393533088266850E-002
   1.3100000000000001E-002    -1.3614065945148468E-002
   1.4200000000000018E-002    -1.5873253345489502E-002
   1.5300000000000008E-002    -1.8140293657779694E-002
   1.6400000000000026E-002    -2.0385563373565674E-002
   1.7500000000000016E-002    -2.2577907890081406E-002
   1.8600000000000005E-002    -2.4681443348526955E-002
   1.9700000000000023E-002    -2.6656566187739372E-002
   2.0800000000000013E-002    -2.8464028611779213E-002
   2.1900000000000003E-002    -3.0068205669522285E-002
   2.3000000000000020E-002    -3.1436663120985031E-002
   2.4100000000000010E-002    -3.2536111772060394E-002
   2.5200000000000000E-002    -3.3330947160720825E-002
   2.6300000000000018E-002    -3.3785335719585419E-002
   2.7400000000000008E-002    -3.3868875354528427E-002
   2.8500000000000025E-002    -3.3560793846845627E-002
   2.9600000000000015E-002    -3.2849304378032684E-002
   3.0700000000000005E-002    -3.1728200614452362E-002
   3.1800000000000023E-002    -3.0194979161024094E-002
   3.2900000000000013E-002    -2.8252035379409790E-002
   3.4000000000000002E-002    -2.5910815224051476E-002
   3.5100000000000020E-002    -2.3192984983325005E-002
   3.6200000000000010E-002    -2.0127875730395317E-002
   3.7300000000000028E-002    -1.6748417168855667E-002
   3.8400000000000017E-002    -1.3089863583445549E-002
   3.9500000000000007E-002    -9.1924592852592468E-003
   4.0600000000000025E-002    -5.1053566858172417E-003
   4.1700000000000015E-002    -8.8650925317779183E-004
   4.2800000000000005E-002     3.4016154240816832E-003
   4.3900000000000022E-002     7.6976707205176353E-003
   4.5000000000000012E-002     1.1943436227738857E-002
   4.6100000000000002E-002     1.6081495210528374E-002
   4.7200000000000020E-002     2.0052677020430565E-002
   4.8300000000000010E-002     2.3796994239091873E-002
   4.9400000000000027E-002     2.7259249240159988E-002
   5.0500000000000017E-002     3.0394380912184715E-002
   5.1600000000000007E-002     3.3168435096740723E-002
   5.2700000000000025E-002     3.5555250942707062E-002
   5.3800000000000014E-002     3.7532836198806763E-002
   5.4900000000000004E-002     3.9083071053028107E-002
   5.6000000000000022E-002     4.0196068584918976E-002
   5.7100000000000012E-002     4.0872927755117416E-002
   5.8200000000000002E-002     4.1126340627670288E-002
   5.9300000000000019E-002     4.0975429117679596E-002
   6.0400000000000009E-002     4.0442407131195068E-002
   6.1500000000000027E-002     3.9554435759782791E-002
   6.2600000000000017E-002     3.8345325738191605E-002
   6.3700000000000007E-002     3.6858744919300079E-002
   6.4800000000000024E-002     3.5143584012985229E-002
   6.5900000000000014E-002     3.3249471336603165E-002
   6.7000000000000004E-002     3.1221104785799980E-002
   6.8100000000000022E-002     2.9100410640239716E-002
   6.9200000000000012E-002     2.6927733793854713E-002
   7.0300000000000029E-002     2.4743748828768730E-002
   7.1400000000000019E-002     2.2585442289710045E-002
   7.2500000000000009E-002     2.0483016967773438E-002
   7.3600000000000027E-002     1.8458155915141106E-002
   7.4700000000000016E-002     1.6526708379387856E-002
   7.5800000000000006E-002     1.4702083542943001E-002
   7.6900000000000024E-002     1.2994756922125816E-002
   7.8000000000000014E-002     1.1408946476876736E-002
   7.9100000000000004E-002     9.9384617060422897E-003
   8.0200000000000021E-002     8.5680419579148293E-003
   8.1300000000000011E-002     7.2782253846526146E-003
   8.2400000000000029E-002     6.0505452565848827E-003
   8.3500000000000019E-002     4.8682023771107197E-003
   8.4600000000000009E-002     3.7122806534171104E-003
   8.5700000000000026E-002     2.5588744319975376E-003
   8.6800000000000016E-002     1.3811665121465921E-003
   8.7900000000000006E-002     1.5520215674769133E-004
   8.9000000000000024E-002    -1.1351739522069693E-003
   9.0100000000000013E-002    -2.4991317186504602E-003
   9.1200000000000003E-002    -3.9435513317584991E-003
   9.2300000000000021E-002    -5.4763695225119591E-003
   9.3400000000000011E-002    -7.1044480428099632E-003
   9.4500000000000028E-002    -8.8271955028176308E-003
   9.5600000000000018E-002    -1.0632469318807125E-002
   9.6700000000000008E-002    -1.2498431839048862E-002
   9.7800000000000026E-002    -1.4400294981896877E-002
   9.8900000000000016E-002    -1.6315262764692307E-002
  0.10000000000000001         -1.8222443759441376E-002
  0.10110000000000002         -2.0097538828849792E-002
  0.10220000000000001         -2.1909557282924652E-002
  0.10330000000000003         -2.3622430860996246E-002
  0.10440000000000002         -2.5201056152582169E-002
  0.10550000000000001         -2.6615602895617485E-002
  0.10660000000000003         -2.7841422706842422E-002
  0.10770000000000002         -2.8855765238404274E-002
  0.10880000000000001         -2.9635338112711906E-002
  0.10990000000000003         -3.0157776549458504E-002
  0.11100000000000002         -3.0406188219785690E-002
  0.11210000000000001         -3.0371423810720444E-002
  0.11320000000000002         -3.0052399262785912E-002
  0.11430000000000001         -2.9453091323375702E-002
  0.11540000000000003         -2.8580870479345322E-002
  0.11650000000000002         -2.7446761727333069E-002
  0.11760000000000001         -2.6066595688462257E-002
  0.11870000000000003         -2.4460930377244949E-002
  0.11980000000000002         -2.2653637453913689E-002
  0.12090000000000001         -2.0670449361205101E-002
  0.12200000000000003         -1.8539296463131905E-002
  0.12310000000000001         -1.6291134059429169E-002
  0.12420000000000003         -1.3959532603621483E-002
  0.12530000000000002         -1.1578102596104145E-002
  0.12640000000000001         -9.1777527704834938E-003
  0.12750000000000003         -6.7867008037865162E-003
  0.12860000000000002         -4.4331476092338562E-003
  0.12970000000000001         -2.1474175155162811E-003
  0.13080000000000003          3.9684549847152084E-005
  0.13190000000000002          2.1017738617956638E-003
  0.13300000000000001          4.0207994170486927E-003
  0.13410000000000000          5.7859066873788834E-003
  0.13520000000000004          7.3885321617126465E-003
  0.13630000000000003          8.8178962469100952E-003
  0.13740000000000002          1.0061887092888355E-002
  0.13850000000000001          1.1112274602055550E-002
  0.13960000000000000          1.1969358660280704E-002
  0.14070000000000005          1.2641068547964096E-002
  0.14180000000000004          1.3137245550751686E-002
  0.14290000000000003          1.3464276678860188E-002
  0.14400000000000002          1.3625608757138252E-002
  0.14510000000000001          1.3626785948872566E-002
  0.14620000000000000          1.3480358757078648E-002
  0.14730000000000004          1.3205008581280708E-002
  0.14840000000000003          1.2819984927773476E-002
  0.14950000000000002          1.2340005487203598E-002
  0.15060000000000001          1.1775262653827667E-002
  0.15170000000000000          1.1135987937450409E-002
  0.15280000000000005          1.0436689481139183E-002
  0.15390000000000004          9.6956631168723106E-003
  0.15500000000000003          8.9305862784385681E-003
  0.15610000000000002          8.1547256559133530E-003
  0.15720000000000001          7.3770605958998203E-003
  0.15830000000000000          6.6055953502655029E-003
  0.15940000000000004          5.8496068231761456E-003
  0.16050000000000003          5.1186271011829376E-003
  0.16160000000000002          4.4197090901434422E-003
  0.16270000000000001          3.7565066013485193E-003
  0.16380000000000000          3.1315512023866177E-003
  0.16490000000000005          2.5491311680525541E-003
  0.16600000000000004          2.0153585355728865E-003
  0.16710000000000003          1.5349629102274776E-003
  0.16820000000000002          1.1082618730142713E-003
  0.16930000000000001          7.3141866596415639E-004
  0.17040000000000000          4.0016591083258390E-004
  0.17150000000000004          1.1278092279098928E-004
  0.17260000000000003         -1.3077640323899686E-004
  0.17370000000000002         -3.3276583417318761E-004
  0.17480000000000001         -4.9991515697911382E-004
  0.17590000000000000         -6.4102478791028261E-004
  0.17700000000000005         -7.6156429713591933E-004
  0.17810000000000004         -8.6058874148875475E-004
  0.17920000000000003         -9.3355588614940643E-004
  0.18030000000000002         -9.7854831255972385E-004
  0.18140000000000001         -1.0002270573750138E-003
  0.18250000000000000         -1.0074926540255547E-003
  0.18360000000000004         -1.0072372388094664E-003
  0.18470000000000003         -1.0001763002946973E-003
  0.18580000000000002         -9.8270247690379620E-004
  0.18690000000000001         -9.5267634605988860E-004
  0.18800000000000000         -9.1321073705330491E-004
  0.18910000000000005         -8.7077304488047957E-004
  0.19020000000000004         -8.2962308079004288E-004
  0.19130000000000003         -7.8826112439855933E-004
  0.19240000000000002         -7.4130675056949258E-004
  0.19350000000000001         -6.8487774115055799E-004
  0.19460000000000005         -6.2021444318816066E-004
  0.19570000000000004         -5.5243598762899637E-004
  0.19680000000000003         -4.8618737491779029E-004
  0.19790000000000002         -4.2270476114936173E-004
  0.19900000000000001         -3.6072183866053820E-004
  0.20010000000000000         -2.9967384762130678E-004
  0.20120000000000005         -2.4150879471562803E-004
  0.20230000000000004         -1.8950566300190985E-004
  0.20340000000000003         -1.4577966067008674E-004
  0.20450000000000002         -1.1027097207261249E-004
  0.20560000000000000         -8.1925441918428987E-005
  0.20670000000000005         -6.0247759392950684E-005
  0.20780000000000004         -4.5308977860258892E-005
  0.20890000000000003         -3.6531648220261559E-005
