 -0.12000000000000000          0.0000000000000000
 -0.11889999999999999          0.0000000000000000
 -0.11780000000000000          0.0000000000000000
 -0.11670000000000000          0.0000000000000000
 -0.11559999999999999          0.0000000000000000
 -0.11449999999999999          0.0000000000000000
 -0.11340000000000000         -4.1023820625263330E-012
 -0.11230000000000000         -1.5286109183998420E-011
 -0.11119999999999999          1.5009547424393865E-011
 -0.11009999999999999          1.9324487843253024E-010
 -0.10900000000000000          3.4188879505236969E-010
 -0.10790000000000000         -5.5219651073912246E-010
 -0.10679999999999999         -3.4579219487795854E-009
 -0.10569999999999999         -5.2685513729500144E-009
 -0.10460000000000000          4.4414742994547396E-009
 -0.10349999999999999          3.3547291167224103E-008
 -0.10239999999999999          5.8541552050428436E-008
 -0.10130000000000000          6.8122134599946094E-009
 -0.10020000000000000         -1.8445780369802378E-007
  -9.9099999999999994E-002    -4.1372777559445240E-007
  -9.7999999999999990E-002    -3.1191160587695776E-007
  -9.6899999999999986E-002     5.2524779903251329E-007
  -9.5799999999999996E-002     1.8801392798195593E-006
  -9.4699999999999993E-002     2.3648465230508009E-006
  -9.3599999999999989E-002     2.7668360047528040E-008
  -9.2499999999999999E-002    -5.4137180995894596E-006
  -9.1399999999999995E-002    -1.0198106792813633E-005
  -9.0299999999999991E-002    -7.2818897933757398E-006
  -8.9200000000000002E-002     7.6656097007798962E-006
  -8.8099999999999984E-002     2.8135660613770597E-005
  -8.6999999999999994E-002     3.5165234294254333E-005
  -8.5899999999999990E-002     9.6195626611006446E-006
  -8.4799999999999986E-002    -4.5868240704294294E-005
  -8.3699999999999997E-002    -9.4286224339157343E-005
  -8.2599999999999993E-002    -8.1711797975003719E-005
  -8.1499999999999989E-002     1.6002690244931728E-005
  -8.0399999999999999E-002     1.5162317140493542E-004
  -7.9299999999999995E-002     2.1744199329987168E-004
  -7.8199999999999992E-002     1.2328762386459857E-004
  -7.7100000000000002E-002    -1.0860469774343073E-004
  -7.5999999999999984E-002    -3.2207855838350952E-004
  -7.4899999999999994E-002    -3.2953624031506479E-004
  -7.3799999999999991E-002    -7.9745863331481814E-005
  -7.2699999999999987E-002     2.5653737247921526E-004
  -7.1599999999999997E-002     3.9623209158889949E-004
  -7.0499999999999993E-002     1.9668290042318404E-004
  -6.9399999999999989E-002    -1.6641244292259216E-004
  -6.8300000000000000E-002    -3.0430726474151015E-004
  -6.7199999999999996E-002     1.9941824575653300E-005
  -6.6099999999999992E-002     5.7201756862923503E-004
  -6.5000000000000002E-002     7.2777259629219770E-004
  -6.3899999999999985E-002     6.8376102717593312E-006
  -6.2799999999999995E-002    -1.3418338494375348E-003
  -6.1699999999999991E-002    -2.2830199450254440E-003
  -6.0599999999999994E-002    -1.6979813808575273E-003
  -5.9499999999999990E-002     5.9605971910059452E-004
  -5.8399999999999994E-002     3.3739330247044563E-003
  -5.7299999999999990E-002     4.6461145393550396E-003
  -5.6199999999999986E-002     3.0991241801530123E-003
  -5.5099999999999996E-002    -7.5123563874512911E-004
  -5.3999999999999992E-002    -4.6983934007585049E-003
  -5.2899999999999989E-002    -6.3046431168913841E-003
  -5.1799999999999985E-002    -4.6055256389081478E-003
  -5.0699999999999995E-002    -7.1806000778451562E-004
  -4.9599999999999991E-002     3.1114763114601374E-003
  -4.8499999999999988E-002     5.1798685453832150E-003
  -4.7399999999999998E-002     5.2944109775125980E-003
  -4.6299999999999994E-002     4.2958743870258331E-003
  -4.5199999999999990E-002     2.7566382195800543E-003
  -4.4099999999999986E-002     2.5808415375649929E-004
  -4.2999999999999997E-002    -3.9044283330440521E-003
  -4.1899999999999993E-002    -9.1748451814055443E-003
  -4.0799999999999989E-002    -1.2929437682032585E-002
  -3.9699999999999985E-002    -1.1564251035451889E-002
  -3.8599999999999995E-002    -3.0570493545383215E-003
  -3.7499999999999992E-002     1.0810187086462975E-002
  -3.6399999999999988E-002     2.4376634508371353E-002
  -3.5299999999999984E-002     3.0538331717252731E-002
  -3.4199999999999994E-002     2.4319143965840340E-002
  -3.3099999999999991E-002     5.4982639849185944E-003
  -3.1999999999999987E-002    -2.1044461056590080E-002
  -3.0899999999999997E-002    -4.7142162919044495E-002
  -2.9799999999999993E-002    -6.4118079841136932E-002
  -2.8699999999999989E-002    -6.5223142504692078E-002
  -2.7599999999999986E-002    -4.7038033604621887E-002
  -2.6499999999999996E-002    -9.8343407735228539E-003
  -2.5399999999999992E-002     4.2752005159854889E-002
  -2.4299999999999988E-002    0.10437502712011337
  -2.3199999999999985E-002    0.16680125892162323
  -2.2099999999999995E-002    0.22103130817413330
  -2.0999999999999991E-002    0.25906980037689209
  -1.9899999999999987E-002    0.27653774619102478
  -1.8799999999999983E-002    0.27558547258377075
  -1.7699999999999994E-002    0.26659885048866272
  -1.6599999999999990E-002    0.26692309975624084
  -1.5499999999999986E-002    0.29605251550674438
  -1.4399999999999996E-002    0.36907771229743958
  -1.3299999999999992E-002    0.49196130037307739
  -1.2199999999999989E-002    0.66166532039642334
  -1.1099999999999985E-002    0.87113165855407715
  -9.9999999999999950E-003     1.1157251596450806
  -8.8999999999999913E-003     1.3967806100845337
  -7.7999999999999875E-003     1.7204217910766602
  -6.6999999999999837E-003     2.0938756465911865
  -5.5999999999999939E-003     2.5236430168151855
  -4.4999999999999901E-003     3.0180912017822266
  -3.3999999999999864E-003     3.5927677154541016
  -2.2999999999999826E-003     4.2737293243408203
  -1.1999999999999927E-003     5.0952739715576172
  -9.9999999999988987E-005     6.0927996635437012
   1.0000000000000148E-003     7.2955598831176758
   2.1000000000000185E-003     8.7242965698242188
   3.2000000000000084E-003     10.395067214965820
   4.3000000000000121E-003     12.326241493225098
   5.4000000000000159E-003     14.543967247009277
   6.5000000000000058E-003     17.083482742309570
   7.6000000000000234E-003     19.987068176269531
   8.7000000000000133E-003     23.301536560058594
   9.8000000000000032E-003     27.077119827270508
   1.0900000000000021E-002     31.367692947387695
   1.2000000000000011E-002     36.230564117431641
   1.3100000000000001E-002     41.724761962890625
   1.4200000000000018E-002     47.907814025878906
   1.5300000000000008E-002     54.832550048828125
   1.6400000000000026E-002     62.545391082763672
   1.7500000000000016E-002     71.086975097656250
   1.8600000000000005E-002     80.494728088378906
   1.9700000000000023E-002     90.805793762207031
   2.0800000000000013E-002     102.05749511718750
   2.1900000000000003E-002     114.28361511230469
   2.3000000000000020E-002     127.50643920898438
   2.4100000000000010E-002     141.72775268554688
   2.5200000000000000E-002     156.92382812500000
   2.6300000000000018E-002     173.04605102539062
   2.7400000000000008E-002     190.02670288085938
   2.8500000000000025E-002     207.78280639648438
   2.9600000000000015E-002     226.21318054199219
   3.0700000000000005E-002     245.18978881835938
   3.1800000000000023E-002     264.54797363281250
   3.2900000000000013E-002     284.08224487304688
   3.4000000000000002E-002     303.54913330078125
   3.5100000000000020E-002     322.67129516601562
   3.6200000000000010E-002     341.14016723632812
   3.7300000000000028E-002     358.61199951171875
   3.8400000000000017E-002     374.70608520507812
   3.9500000000000007E-002     389.00671386718750
   4.0600000000000025E-002     401.07183837890625
   4.1700000000000015E-002     410.44223022460938
   4.2800000000000005E-002     416.64651489257812
   4.3900000000000022E-002     419.19781494140625
   4.5000000000000012E-002     417.59423828125000
   4.6100000000000002E-002     411.32574462890625
   4.7200000000000020E-002     399.89093017578125
   4.8300000000000010E-002     382.81634521484375
   4.9400000000000027E-002     359.67117309570312
   5.0500000000000017E-002     330.07629394531250
   5.1600000000000007E-002     293.71319580078125
   5.2700000000000025E-002     250.33601379394531
   5.3800000000000014E-002     199.78907775878906
   5.4900000000000004E-002     142.01995849609375
   5.6000000000000022E-002     77.085517883300781
   5.7100000000000012E-002     5.1510920524597168
   5.8200000000000002E-002    -73.507049560546875
   5.9300000000000019E-002    -158.49034118652344
   6.0400000000000009E-002    -249.25817871093750
   6.1500000000000027E-002    -345.11581420898438
   6.2600000000000017E-002    -445.21487426757812
   6.3700000000000007E-002    -548.56579589843750
   6.4800000000000024E-002    -654.05279541015625
   6.5900000000000014E-002    -760.44018554687500
   6.7000000000000004E-002    -866.37933349609375
   6.8100000000000022E-002    -970.42163085937500
   6.9200000000000012E-002    -1071.0484619140625
   7.0300000000000029E-002    -1166.7064208984375
   7.1400000000000019E-002    -1255.8361816406250
   7.2500000000000009E-002    -1336.8873291015625
   7.3600000000000027E-002    -1408.3281250000000
   7.4700000000000016E-002    -1468.6683349609375
   7.5800000000000006E-002    -1516.4953613281250
   7.6900000000000024E-002    -1550.5258789062500
   7.8000000000000014E-002    -1569.6424560546875
   7.9100000000000004E-002    -1572.9139404296875
   8.0200000000000021E-002    -1559.6047363281250
   8.1300000000000011E-002    -1529.1936035156250
   8.2400000000000029E-002    -1481.4031982421875
   8.3500000000000019E-002    -1416.2364501953125
   8.4600000000000009E-002    -1333.9857177734375
   8.5700000000000026E-002    -1235.2196044921875
   8.6800000000000016E-002    -1120.7583007812500
   8.7900000000000006E-002    -991.65954589843750
   8.9000000000000024E-002    -849.22631835937500
   9.0100000000000013E-002    -695.02349853515625
   9.1200000000000003E-002    -530.86126708984375
   9.2300000000000021E-002    -358.74792480468750
   9.3400000000000011E-002    -180.82987976074219
   9.4500000000000028E-002    0.65702629089355469
   9.5600000000000018E-002     183.40370178222656
   9.6700000000000008E-002     365.03610229492188
   9.7800000000000026E-002     543.15447998046875
   9.8900000000000016E-002     715.39910888671875
  0.10000000000000001          879.52886962890625
  0.10110000000000002          1033.4711914062500
  0.10220000000000001          1175.3269042968750
  0.10330000000000003          1303.3605957031250
  0.10440000000000002          1416.0164794921875
  0.10550000000000001          1511.9742431640625
  0.10660000000000003          1590.2211914062500
  0.10770000000000002          1650.0816650390625
  0.10880000000000001          1691.1943359375000
  0.10990000000000003          1713.4652099609375
  0.11100000000000002          1717.0396728515625
  0.11210000000000001          1702.3277587890625
  0.11320000000000002          1670.0354003906250
  0.11430000000000001          1621.1734619140625
  0.11540000000000003          1556.9954833984375
  0.11650000000000002          1478.9124755859375
  0.11760000000000001          1388.4393310546875
  0.11870000000000003          1287.1903076171875
  0.11980000000000002          1176.9082031250000
  0.12090000000000001          1059.4570312500000
  0.12200000000000003          936.75378417968750
  0.12310000000000001          810.67370605468750
  0.12420000000000003          682.98419189453125
  0.12530000000000002          555.34472656250000
  0.12640000000000001          429.34353637695312
  0.12750000000000003          306.50860595703125
  0.12860000000000002          188.26094055175781
  0.12970000000000001          75.833831787109375
  0.13080000000000003         -29.775680541992188
  0.13190000000000002         -127.78565979003906
  0.13300000000000001         -217.56227111816406
  0.13410000000000000         -298.58367919921875
  0.13520000000000004         -370.45687866210938
  0.13630000000000003         -432.97558593750000
  0.13740000000000002         -486.14752197265625
  0.13850000000000001         -530.16229248046875
  0.13960000000000000         -565.31488037109375
  0.14070000000000005         -591.94647216796875
  0.14180000000000004         -610.45751953125000
  0.14290000000000003         -621.34722900390625
  0.14400000000000002         -625.23583984375000
  0.14510000000000001         -622.81781005859375
  0.14620000000000000         -614.78417968750000
  0.14730000000000004         -601.76892089843750
  0.14840000000000003         -584.36395263671875
  0.14950000000000002         -563.17437744140625
  0.15060000000000001         -538.85217285156250
  0.15170000000000000         -512.05468750000000
  0.15280000000000005         -483.38653564453125
  0.15390000000000004         -453.34436035156250
  0.15500000000000003         -422.35144042968750
  0.15610000000000002         -390.81365966796875
  0.15720000000000001         -359.15869140625000
  0.15830000000000000         -327.81076049804688
  0.15940000000000004         -297.11184692382812
  0.16050000000000003         -267.30166625976562
  0.16160000000000002         -238.54615783691406
  0.16270000000000001         -211.01507568359375
  0.16380000000000000         -184.93048095703125
  0.16490000000000005         -160.52279663085938
  0.16600000000000004         -137.97212219238281
  0.16710000000000003         -117.34927368164062
  0.16820000000000002         -98.659927368164062
  0.16930000000000001         -81.917343139648438
  0.17040000000000000         -67.205085754394531
  0.17150000000000004         -54.630699157714844
  0.17260000000000003         -44.255699157714844
  0.17370000000000002         -36.040618896484375
  0.17480000000000001         -29.867153167724609
  0.17590000000000000         -25.615896224975586
  0.17700000000000005         -23.213762283325195
  0.17810000000000004         -22.630088806152344
  0.17920000000000003         -23.785665512084961
  0.18030000000000002         -26.505043029785156
  0.18140000000000001         -30.523637771606445
  0.18250000000000000         -35.565925598144531
  0.18360000000000004         -41.413734436035156
  0.18470000000000003         -47.896610260009766
  0.18580000000000002         -54.822090148925781
  0.18690000000000001         -61.913097381591797
  0.18800000000000000         -68.815307617187500
  0.18910000000000005         -75.161247253417969
  0.19020000000000004         -80.640045166015625
  0.19130000000000003         -85.012550354003906
  0.19240000000000002         -88.060882568359375
  0.19350000000000001         -89.540435791015625
  0.19460000000000005         -89.170982360839844
  0.19570000000000004         -86.680969238281250
  0.19680000000000003         -81.864982604980469
  0.19790000000000002         -74.606307983398438
  0.19900000000000001         -64.844543457031250
  0.20010000000000000         -52.537269592285156
  0.20120000000000005         -37.647125244140625
  0.20230000000000004         -20.164999008178711
  0.20340000000000003        -0.15204600989818573
  0.20450000000000002          22.250631332397461
  0.20560000000000000          46.836803436279297
  0.20670000000000005          73.354896545410156
  0.20780000000000004          101.52578735351562
  0.20890000000000003          131.03746032714844
