 -0.12000000000000000          0.0000000000000000
 -0.11889999999999999          0.0000000000000000
 -0.11780000000000000          0.0000000000000000
 -0.11670000000000000          0.0000000000000000
 -0.11559999999999999          0.0000000000000000
 -0.11449999999999999          0.0000000000000000
 -0.11340000000000000          0.0000000000000000
 -0.11230000000000000          0.0000000000000000
 -0.11119999999999999          0.0000000000000000
 -0.11009999999999999          0.0000000000000000
 -0.10900000000000000         -9.1682206083688439E-047
 -0.10790000000000000         -4.1373061921877124E-034
 -0.10679999999999999         -8.0735089944930088E-033
 -0.10569999999999999         -3.5529663524483381E-032
 -0.10460000000000000          1.0444482201284493E-033
 -0.10349999999999999          4.1114043394597067E-031
 -0.10239999999999999          1.1450954086339833E-030
 -0.10130000000000000          1.4005020251641370E-030
 -0.10020000000000000          6.2760986275150362E-030
  -9.9099999999999994E-002     3.5734020161045879E-029
  -9.7999999999999990E-002     7.1674500012150125E-029
  -9.6899999999999986E-002    -1.1067845130139839E-028
  -9.5799999999999996E-002    -8.8533815096574241E-028
  -9.4699999999999993E-002    -1.6479895570565205E-027
  -9.3599999999999989E-002     8.5191768123294176E-028
  -9.2499999999999999E-002     9.6943933236916046E-027
  -9.1399999999999995E-002     1.5229287953759273E-026
  -9.0299999999999991E-002    -1.2969283119720213E-026
  -8.9200000000000002E-002    -8.5253985290234203E-026
  -8.8099999999999984E-002    -9.1863135909914656E-026
  -8.6999999999999994E-002     1.9583426366088117E-025
  -8.5899999999999990E-002     7.2807157968763700E-025
  -8.4799999999999986E-002     5.1154612310650653E-025
  -8.3699999999999997E-002    -2.0367704235970173E-024
  -8.2599999999999993E-002    -6.0409623113991343E-024
  -8.1499999999999989E-002    -4.0619793017696046E-024
  -8.0399999999999999E-002     1.4655568337721701E-023
  -7.9299999999999995E-002     4.4596664088534575E-023
  -7.8199999999999992E-002     3.9311999687490493E-023
  -7.7100000000000002E-002    -7.1140946869547350E-023
  -7.5999999999999984E-002    -2.7287001634185041E-022
  -7.4899999999999994E-002    -3.2610623773276394E-022
  -7.3799999999999991E-002     1.7976039766703806E-022
  -7.2699999999999987E-002     1.3252628947579255E-021
  -7.1599999999999997E-002     2.1105678926975536E-021
  -7.0499999999999993E-002     4.5337383652658864E-022
  -6.9399999999999989E-002    -4.8494368139715535E-021
  -6.8300000000000000E-002    -1.0618466632349791E-020
  -6.7199999999999996E-002    -7.9709329102073841E-021
  -6.6099999999999992E-002     1.1456078283229680E-020
  -6.5000000000000002E-002     4.1384595678460954E-020
  -6.3899999999999985E-002     5.0691411545454929E-020
  -6.2799999999999995E-002    -2.0402110924887915E-021
  -6.1699999999999991E-002    -1.2030160692271543E-019
  -6.0599999999999994E-002    -2.1828787132212368E-019
  -5.9499999999999990E-002    -1.3663273715397149E-019
  -5.8399999999999994E-002     2.2168910875391657E-019
  -5.7299999999999990E-002     6.9235110328511546E-019
  -5.6199999999999986E-002     7.8981500312776293E-019
  -5.5099999999999996E-002     5.9950472273888079E-021
  -5.3999999999999992E-002    -1.5698284329843741E-018
  -5.2899999999999989E-002    -2.7943788569899189E-018
  -5.1799999999999985E-002    -1.8937477079697090E-018
  -5.0699999999999995E-002     1.9797995138878804E-018
  -4.9599999999999991E-002     6.9682993475031394E-018
  -4.8499999999999988E-002     8.4232777849408776E-018
  -4.7399999999999998E-002     1.9462827758545111E-018
  -4.6299999999999994E-002    -1.1545188111251126E-017
  -4.5199999999999990E-002    -2.2933903429111885E-017
  -4.4099999999999986E-002    -1.8921170868280278E-017
  -4.2999999999999997E-002     6.7604147974945972E-018
  -4.1899999999999993E-002     4.2291828969537706E-017
  -4.0799999999999989E-002     5.8663649042265998E-017
  -3.9699999999999985E-002     2.8753344031556020E-017
  -3.8599999999999995E-002    -4.4623260687069699E-017
  -3.7499999999999992E-002    -1.1531043322777341E-016
  -3.6399999999999988E-002    -1.1629633987371831E-016
  -3.5299999999999984E-002    -1.3800727661965706E-017
  -3.4199999999999994E-002     1.4519350414398843E-016
  -3.3099999999999991E-002     2.4159301361692873E-016
  -3.1999999999999987E-002     1.6547963882829750E-016
  -3.0899999999999997E-002    -7.7920122534894456E-017
  -2.9799999999999993E-002    -3.2983177092462417E-016
  -2.8699999999999989E-002    -3.7054184196580949E-016
  -2.7599999999999986E-002    -1.0335433156674295E-016
  -2.6499999999999996E-002     3.1400048691240526E-016
  -2.5399999999999992E-002     5.3649727508240820E-016
  -2.4299999999999988E-002     3.0256548918497547E-016
  -2.3199999999999985E-002    -2.8402947015344646E-016
  -2.2099999999999995E-002    -7.3334963784844040E-016
  -2.0999999999999991E-002    -5.2254918354001275E-016
  -1.9899999999999987E-002     3.8996234868259376E-016
  -1.8799999999999983E-002     1.3354788373323846E-015
  -1.7699999999999994E-002     1.3181956594393455E-015
  -1.6599999999999990E-002    -1.3661144573160770E-016
  -1.5499999999999986E-002    -2.3100149129829850E-015
  -1.4399999999999996E-002    -3.4845620431393307E-015
  -1.3299999999999992E-002    -2.1239283389769611E-015
  -1.2199999999999989E-002     1.7028572494678060E-015
  -1.1099999999999985E-002     5.8292392383896479E-015
  -9.9999999999999950E-003     7.1188748526720529E-015
  -8.8999999999999913E-003     3.6890474433101352E-015
  -7.7999999999999875E-003    -3.3351795243188537E-015
  -6.6999999999999837E-003    -1.0032246368818451E-014
  -5.5999999999999939E-003    -1.2024290830875381E-014
  -4.4999999999999901E-003    -7.4301865658431045E-015
  -3.3999999999999864E-003     1.7405201459499782E-015
  -2.2999999999999826E-003     1.0866107953742314E-014
  -1.1999999999999927E-003     1.5707904134311154E-014
  -9.9999999999988987E-005     1.4766044154546865E-014
   1.0000000000000148E-003     9.2010165152631376E-015
   2.1000000000000185E-003     7.3552439494251626E-016
   3.2000000000000084E-003    -1.0063996551811949E-014
   4.3000000000000121E-003    -2.2915587003369860E-014
   5.4000000000000159E-003    -3.4733290733575622E-014
   6.5000000000000058E-003    -3.7627947903787971E-014
   7.6000000000000234E-003    -2.1704775428131720E-014
   8.7000000000000133E-003     1.6986144614348262E-014
   9.8000000000000032E-003     6.8133317726849507E-014
   1.0900000000000021E-002     1.0602734239629403E-013
   1.2000000000000011E-002     1.0024681686974008E-013
   1.3100000000000001E-002     3.4895321360133202E-014
   1.4200000000000018E-002    -7.4807923798675989E-014
   1.5300000000000008E-002    -1.8142192121424253E-013
   1.6400000000000026E-002    -2.2497176105536383E-013
   1.7500000000000016E-002    -1.6553639427091728E-013
   1.8600000000000005E-002    -1.0437023932580330E-014
   1.9700000000000023E-002     1.8188273424258402E-013
   2.0800000000000013E-002     3.2655451151322320E-013
   2.1900000000000003E-002     3.5317807164058074E-013
   2.3000000000000020E-002     2.3972758999259124E-013
   2.4100000000000010E-002     2.0588712958410390E-014
   2.5200000000000000E-002    -2.3290584413334130E-013
   2.6300000000000018E-002    -4.4313980111263245E-013
   2.7400000000000008E-002    -5.4713270589492410E-013
   2.8500000000000025E-002    -4.9986300905763999E-013
   2.9600000000000015E-002    -2.7250987924561692E-013
   3.0700000000000005E-002     1.3321830617797535E-013
   3.1800000000000023E-002     6.4879937360087192E-013
   3.2900000000000013E-002     1.1063925383497220E-012
   3.4000000000000002E-002     1.2573503436336447E-012
   3.5100000000000020E-002     8.7342633126053479E-013
   3.6200000000000010E-002    -9.3507531361868502E-014
   3.7300000000000028E-002    -1.3820794552211606E-012
   3.8400000000000017E-002    -2.4335993289991093E-012
   3.9500000000000007E-002    -2.6023614686787676E-012
   4.0600000000000025E-002    -1.5031806094996519E-012
   4.1700000000000015E-002     6.7890750530029019E-013
   4.2800000000000005E-002     3.1210594005068041E-012
   4.3900000000000022E-002     4.6439171952348070E-012
   4.5000000000000012E-002     4.2602943742252859E-012
   4.6100000000000002E-002     1.7339733164937851E-012
   4.7200000000000020E-002    -2.1597498095490443E-012
   4.8300000000000010E-002    -5.8572231266536020E-012
   4.9400000000000027E-002    -7.6543034063787324E-012
   5.0500000000000017E-002    -6.4853070830258704E-012
   5.1600000000000007E-002    -2.4506323619693331E-012
   5.2700000000000025E-002     3.1734285338422571E-012
   5.3800000000000014E-002     8.4460537522196250E-012
   5.4900000000000004E-002     1.1532256052881123E-011
   5.6000000000000022E-002     1.1352236858885108E-011
   5.7100000000000012E-002     7.8266716024838989E-012
   5.8200000000000002E-002     1.6876711616750395E-012
   5.9300000000000019E-002    -5.9207543381950517E-012
   6.0400000000000009E-002    -1.3734770265559965E-011
   6.1500000000000027E-002    -2.0370458791994885E-011
   6.2600000000000017E-002    -2.4128844755554316E-011
   6.3700000000000007E-002    -2.2946871833239826E-011
   6.4800000000000024E-002    -1.4848349980112394E-011
   6.5900000000000014E-002     1.0322074141593033E-012
   6.7000000000000004E-002     2.3228160714315486E-011
   6.8100000000000022E-002     4.7240458073137225E-011
   6.9200000000000012E-002     6.6048208569034585E-011
   7.0300000000000029E-002     7.2030999220816702E-011
   7.1400000000000019E-002     5.9742176483634029E-011
   7.2500000000000009E-002     2.8338794852422469E-011
   7.3600000000000027E-002    -1.7621239536968742E-011
   7.4700000000000016E-002    -6.9691537263326663E-011
   7.5800000000000006E-002    -1.1893495910353145E-010
   7.6900000000000024E-002    -1.5974351008640336E-010
   7.8000000000000014E-002    -1.9224949410200808E-010
   7.9100000000000004E-002    -2.2211225914058448E-010
   8.0200000000000021E-002    -2.5783672419342466E-010
   8.1300000000000011E-002    -3.0719046750780369E-010
   8.2400000000000029E-002    -3.7488584458953047E-010
   8.3500000000000019E-002    -4.6301332212724698E-010
   8.4600000000000009E-002    -5.7402210762442738E-010
   8.5700000000000026E-002    -7.1430372727826288E-010
   8.6800000000000016E-002    -8.9577795181476349E-010
   8.7900000000000006E-002    -1.1339055250302540E-009
   8.9000000000000024E-002    -1.4428277461674437E-009
   9.0100000000000013E-002    -1.8305349458457098E-009
   9.1200000000000003E-002    -2.2976016644802943E-009
   9.2300000000000021E-002    -2.8414295361043633E-009
   9.3400000000000011E-002    -3.4647933411233596E-009
   9.4500000000000028E-002    -4.1846162091016428E-009
   9.5600000000000018E-002    -5.0361426140451467E-009
   9.6700000000000008E-002    -6.0698148729438987E-009
   9.7800000000000026E-002    -7.3421180246663547E-009
   9.8900000000000016E-002    -8.9052551999195977E-009
  0.10000000000000001         -1.0801468164344564E-008
  0.10110000000000002         -1.3065441173408957E-008
  0.10220000000000001         -1.5733769842539679E-008
  0.10330000000000003         -1.8856464834014775E-008
  0.10440000000000002         -2.2504442753755200E-008
  0.10550000000000001         -2.6769424010806541E-008
  0.10660000000000003         -3.1757231511162383E-008
  0.10770000000000002         -3.7579400924411813E-008
  0.10880000000000001         -4.4348716699002026E-008
  0.10990000000000003         -5.2181622578469381E-008
  0.11100000000000002         -6.1205838619566743E-008
  0.11210000000000001         -7.1568074133660158E-008
  0.11320000000000002         -8.3436802356112031E-008
  0.11430000000000001         -9.6998071796853748E-008
  0.11540000000000003         -1.1244692643685146E-007
  0.11650000000000002         -1.2997982423711544E-007
  0.11760000000000001         -1.4979234208566366E-007
  0.11870000000000003         -1.7208296299030332E-007
  0.11980000000000002         -1.9705905174303865E-007
  0.12090000000000001         -2.2493962603674029E-007
  0.12200000000000003         -2.5595116426300442E-007
  0.12310000000000001         -2.9031713211222752E-007
  0.12420000000000003         -3.2824601703393637E-007
  0.12530000000000002         -3.6992344121242089E-007
  0.12640000000000001         -4.1551069784869862E-007
  0.12750000000000003         -4.6514810492222741E-007
  0.12860000000000002         -5.1895665365005249E-007
  0.12970000000000001         -5.7703266520543350E-007
  0.13080000000000003         -6.3943355144141980E-007
  0.13190000000000002         -7.0615720915151366E-007
  0.13300000000000001         -7.7712331858486464E-007
  0.13410000000000000         -8.5216112211121487E-007
  0.13520000000000004         -9.3100766207491436E-007
  0.13630000000000003         -1.0133122714250107E-006
  0.13740000000000002         -1.0986407232848264E-006
  0.13850000000000001         -1.1864732414322981E-006
  0.13960000000000000         -1.2761945527016765E-006
  0.14070000000000005         -1.3670784255735957E-006
  0.14180000000000004         -1.4582745961887363E-006
  0.14290000000000003         -1.5488041071874773E-006
  0.14400000000000002         -1.6375637414965681E-006
  0.14510000000000001         -1.7233383005076026E-006
  0.14620000000000000         -1.8048134506896813E-006
  0.14730000000000004         -1.8805855006574555E-006
  0.14840000000000003         -1.9491671991998511E-006
  0.14950000000000002         -2.0089926238140908E-006
  0.15060000000000001         -2.0584284357026282E-006
  0.15170000000000000         -2.0957913875461572E-006
  0.15280000000000005         -2.1193770862735553E-006
  0.15390000000000004         -2.1274925074974730E-006
  0.15500000000000003         -2.1184894194446215E-006
  0.15610000000000002         -2.0907964426440135E-006
  0.15720000000000001         -2.0429488358784441E-006
  0.15830000000000000         -1.9736194190043502E-006
  0.15940000000000004         -1.8816543843056961E-006
  0.16050000000000003         -1.7661093352215281E-006
  0.16160000000000002         -1.6262852113866964E-006
  0.16270000000000001         -1.4617572787754728E-006
  0.16380000000000000         -1.2723967302007187E-006
  0.16490000000000005         -1.0583862604106530E-006
  0.16600000000000004         -8.2023643699348349E-007
  0.16710000000000003         -5.5880605032135909E-007
  0.16820000000000002         -2.7532763624543861E-007
  0.16930000000000001          2.8568591048412073E-008
  0.17040000000000000          3.5084264027318695E-007
  0.17150000000000004          6.8905319494658170E-007
  0.17260000000000003          1.0403886108178412E-006
  0.17370000000000002          1.4017130069986713E-006
  0.17480000000000001          1.7696150962363981E-006
  0.17590000000000000          2.1404480321505873E-006
  0.17700000000000005          2.5103572625082879E-006
  0.17810000000000004          2.8753047445204663E-006
  0.17920000000000003          3.2311027098328098E-006
  0.18030000000000002          3.5734676657736431E-006
  0.18140000000000001          3.8980983845246074E-006
  0.18250000000000000          4.2007673073381861E-006
  0.18360000000000004          4.4774110392605359E-006
  0.18470000000000003          4.7242069740601026E-006
  0.18580000000000002          4.9376335482516239E-006
  0.18690000000000001          5.1145143515891580E-006
  0.18800000000000000          5.2520631470538225E-006
  0.18910000000000005          5.3479329835676942E-006
  0.19020000000000004          5.4002680371918045E-006
  0.19130000000000003          5.4077568165661977E-006
  0.19240000000000002          5.3696703616874028E-006
  0.19350000000000001          5.2858858907706796E-006
  0.19460000000000005          5.1568858907553204E-006
  0.19570000000000004          4.9837462938735217E-006
  0.19680000000000003          4.7681196519984040E-006
  0.19790000000000002          4.5122142182658729E-006
  0.19900000000000001          4.2187716644544220E-006
  0.20010000000000000          3.8910316106917674E-006
  0.20120000000000005          3.5326820579935964E-006
  0.20230000000000004          3.1477939046450453E-006
  0.20340000000000003          2.7407472771298520E-006
  0.20450000000000002          2.3161564968174610E-006
  0.20560000000000000          1.8788008446788505E-006
  0.20670000000000005          1.4335603282232211E-006
  0.20780000000000004          9.8534871995057587E-007
  0.20890000000000003          5.3904079777557907E-007
