 -0.12000000000000000          0.0000000000000000
 -0.11889999999999999          0.0000000000000000
 -0.11780000000000000          0.0000000000000000
 -0.11670000000000000          0.0000000000000000
 -0.11559999999999999          0.0000000000000000
 -0.11449999999999999          0.0000000000000000
 -0.11340000000000000          0.0000000000000000
 -0.11230000000000000          0.0000000000000000
 -0.11119999999999999          0.0000000000000000
 -0.11009999999999999          0.0000000000000000
 -0.10900000000000000          0.0000000000000000
 -0.10790000000000000          0.0000000000000000
 -0.10679999999999999          0.0000000000000000
 -0.10569999999999999          0.0000000000000000
 -0.10460000000000000          0.0000000000000000
 -0.10349999999999999          0.0000000000000000
 -0.10239999999999999         -4.1101173142038012E-030
 -0.10130000000000000         -1.0813695803564654E-028
 -0.10020000000000000         -9.3677954718724297E-028
  -9.9099999999999994E-002    -3.0969716174004730E-027
  -9.7999999999999990E-002     5.1447763345984775E-027
  -9.6899999999999986E-002     8.6211292650612123E-026
  -9.5799999999999996E-002     3.1896523275199235E-025
  -9.4699999999999993E-002     2.4958733202432660E-025
  -9.3599999999999989E-002    -2.4445401196844652E-024
  -9.2499999999999999E-002    -1.1094060932458841E-023
  -9.1399999999999995E-002    -1.7468540618379517E-023
  -9.0299999999999991E-002     2.5384606763256757E-023
  -8.9200000000000002E-002     1.9315401890388138E-022
  -8.8099999999999984E-002     4.0988796116725817E-022
  -8.6999999999999994E-002     7.6612725921886302E-023
  -8.5899999999999990E-002    -1.8834438066531446E-021
  -8.4799999999999986E-002    -5.2150781097013371E-021
  -8.3699999999999997E-002    -4.6817727968033793E-021
  -8.2599999999999993E-002     1.0055166328722690E-020
  -8.1499999999999989E-002     4.0603969824755323E-020
  -8.0399999999999999E-002     5.2949989433930182E-020
  -7.9299999999999995E-002    -2.3500500086251286E-020
  -7.8199999999999992E-002    -2.0642425310640638E-019
  -7.7100000000000002E-002    -3.0384161111480909E-019
  -7.5999999999999984E-002     5.5511360663049168E-020
  -7.4899999999999994E-002     8.6320820563883337E-019
  -7.3799999999999991E-002     9.2355366796277925E-019
  -7.2699999999999987E-002    -1.6125332864686630E-018
  -7.1599999999999997E-002    -5.6359843502820909E-018
  -7.0499999999999993E-002    -2.6619408302701603E-018
  -6.9399999999999989E-002     1.8805046290802951E-017
  -6.8300000000000000E-002     5.0571734847626028E-017
  -6.7199999999999996E-002     3.7034477445664952E-017
  -6.6099999999999992E-002    -1.0405976442797921E-016
  -6.5000000000000002E-002    -3.5597263704499377E-016
  -6.3899999999999985E-002    -4.2834427025892406E-016
  -6.2799999999999995E-002     2.0261216033758036E-016
  -6.1699999999999991E-002     1.7187877157445199E-015
  -6.0599999999999994E-002     2.9948135222673247E-015
  -5.9499999999999990E-002     1.3585865314081551E-015
  -5.8399999999999994E-002    -5.3099978773274263E-015
  -5.7299999999999990E-002    -1.4125566967742968E-014
  -5.6199999999999986E-002    -1.4369561584463147E-014
  -5.5099999999999996E-002     6.7246822361619312E-015
  -5.3999999999999992E-002     4.6952140797269087E-014
  -5.2899999999999989E-002     7.2665384451796322E-014
  -5.1799999999999985E-002     2.8889742567607055E-014
  -5.0699999999999995E-002    -1.0648169764546425E-013
  -4.9599999999999991E-002    -2.5247669623376656E-013
  -4.8499999999999988E-002    -2.2313070445131866E-013
  -4.7399999999999998E-002     1.2745609689196469E-013
  -4.6299999999999994E-002     6.6179494610102418E-013
  -4.5199999999999990E-002     8.5852662869492780E-013
  -4.4099999999999986E-002     1.4119900994952195E-013
  -4.2999999999999997E-002    -1.3948644756595074E-012
  -4.1899999999999993E-002    -2.4776120825104053E-012
  -4.0799999999999989E-002    -1.2843276789298308E-012
  -3.9699999999999985E-002     2.5996080288415158E-012
  -3.8599999999999995E-002     6.3421238746808051E-012
  -3.7499999999999992E-002     4.7752231856212912E-012
  -3.6399999999999988E-002    -4.6883616780513115E-012
  -3.5299999999999984E-002    -1.6215606982172837E-011
  -3.4199999999999994E-002    -1.5889119880929670E-011
  -3.3099999999999991E-002     6.7426767294542778E-012
  -3.1999999999999987E-002     4.1509740089651359E-011
  -3.0899999999999997E-002     5.2811262307717044E-011
  -2.9799999999999993E-002     4.1657727614663465E-012
  -2.8699999999999989E-002    -9.4955467100366064E-011
  -2.7599999999999986E-002    -1.6189551088618970E-010
  -2.6499999999999996E-002    -8.4200771355291693E-011
  -2.5399999999999992E-002     1.6402652847080645E-010
  -2.4299999999999988E-002     4.2032802238800571E-010
  -2.3199999999999985E-002     3.8375042032967599E-010
  -2.2099999999999995E-002    -1.2926378023525587E-010
  -2.0999999999999991E-002    -8.7911972146414996E-010
  -1.9899999999999987E-002    -1.1768375163256906E-009
  -1.8799999999999983E-002    -3.6636044198345985E-010
  -1.7699999999999994E-002     1.3985280711281689E-009
  -1.6599999999999990E-002     2.7868110041850969E-009
  -1.5499999999999986E-002     2.0258679178652983E-009
  -1.4399999999999996E-002    -1.3912693219708672E-009
  -1.3299999999999992E-002    -5.3556283852174147E-009
  -1.2199999999999989E-002    -5.8939986224970653E-009
  -1.1099999999999985E-002    -4.4594974935030507E-010
  -9.9999999999999950E-003     8.5035480879014358E-009
  -8.8999999999999913E-003     1.3270938126197507E-008
  -7.7999999999999875E-003     6.4514882325283907E-009
  -6.6999999999999837E-003    -1.0865510269297829E-008
  -5.5999999999999939E-003    -2.5669621095403272E-008
  -4.4999999999999901E-003    -2.0744765905078566E-008
  -3.3999999999999864E-003     8.9380254308935037E-009
  -2.2999999999999826E-003     4.4413987154712231E-008
  -1.1999999999999927E-003     5.0698680809091456E-008
  -9.9999999999988987E-005     6.0974709725769571E-009
   1.0000000000000148E-003    -6.7863631159070792E-008
   2.1000000000000185E-003    -1.0764892266479364E-007
   3.2000000000000084E-003    -5.4167173857422313E-008
   4.3000000000000121E-003     8.2788460531446617E-008
   5.4000000000000159E-003     2.0152103274995170E-007
   6.5000000000000058E-003     1.7058785317658476E-007
   7.6000000000000234E-003    -4.9157765857898994E-008
   8.7000000000000133E-003    -3.2196618349189521E-007
   9.8000000000000032E-003    -3.9696075759820815E-007
   1.0900000000000021E-002    -1.1160068424942438E-007
   1.2000000000000011E-002     4.0669056033948436E-007
   1.3100000000000001E-002     7.4591071097529493E-007
   1.4200000000000018E-002     5.0193079914606642E-007
   1.5300000000000008E-002    -3.1929550914355787E-007
   1.6400000000000026E-002    -1.1476639656393672E-006
   1.7500000000000016E-002    -1.1916755511265364E-006
   1.8600000000000005E-002    -1.2652765235543484E-007
   1.9700000000000023E-002     1.4226304756448371E-006
   2.0800000000000013E-002     2.1501944047486177E-006
   2.1900000000000003E-002     1.0943591632894822E-006
   2.3000000000000020E-002    -1.3219024594945950E-006
   2.4100000000000010E-002    -3.2401105727331014E-006
   2.5200000000000000E-002    -2.6844084004551405E-006
   2.6300000000000018E-002     5.8088045307158609E-007
   2.7400000000000008E-002     4.2768674575199839E-006
   2.8500000000000025E-002     5.0095841288566589E-006
   2.9600000000000015E-002     1.1746496966225095E-006
   3.0700000000000005E-002    -4.9606869652052410E-006
   3.1800000000000023E-002    -8.2450051195337437E-006
   3.2900000000000013E-002    -4.6775789996900130E-006
   3.4000000000000002E-002     4.4519656512420624E-006
   3.5100000000000020E-002     1.2219749805808533E-005
   3.6200000000000010E-002     1.0935885256913025E-005
   3.7300000000000028E-002    -8.8596726754985866E-007
   3.8400000000000017E-002    -1.5404426449094899E-005
   3.9500000000000007E-002    -2.0125067749177106E-005
   4.0600000000000025E-002    -8.1051430242951028E-006
   4.1700000000000015E-002     1.4291429579316173E-005
   4.2800000000000005E-002     2.9809829356963746E-005
   4.3900000000000022E-002     2.3158694602898322E-005
   4.5000000000000012E-002    -4.9000195758708287E-006
   4.6100000000000002E-002    -3.4660126402741298E-005
   4.7200000000000020E-002    -4.0831229853210971E-005
   4.8300000000000010E-002    -1.3629250133817550E-005
   4.9400000000000027E-002     2.9637765692314133E-005
   5.0500000000000017E-002     5.4664462368236855E-005
   5.1600000000000007E-002     3.7087094824528322E-005
   5.2700000000000025E-002    -1.4504481441690587E-005
   5.3800000000000014E-002    -6.0558071709237993E-005
   5.4900000000000004E-002    -6.0158672567922622E-005
   5.6000000000000022E-002    -6.7798719101119787E-006
   5.7100000000000012E-002     6.0388458223314956E-005
   5.8200000000000002E-002     8.3610058936756104E-005
   5.9300000000000019E-002     3.4630811569513753E-005
   6.0400000000000009E-002    -5.5354321375489235E-005
   6.1500000000000027E-002    -1.1309653200441971E-004
   6.2600000000000017E-002    -8.0493722634855658E-005
   6.3700000000000007E-002     3.1880779715720564E-005
   6.4800000000000024E-002     1.4190838555805385E-004
   6.5900000000000014E-002     1.5410373453050852E-004
   6.7000000000000004E-002     3.8505153497681022E-005
   6.8100000000000022E-002    -1.3336291885934770E-004
   6.9200000000000012E-002    -2.3164621961768717E-004
   7.0300000000000029E-002    -1.6537892224732786E-004
   7.1400000000000019E-002     3.8992184272501618E-005
   7.2500000000000009E-002     2.4360971292480826E-004
   7.3600000000000027E-002     2.9416641336865723E-004
   7.4700000000000016E-002     1.3735296670347452E-004
   7.5800000000000006E-002    -1.2949822121299803E-004
   7.6900000000000024E-002    -3.2071158057078719E-004
   7.8000000000000014E-002    -2.9622606234624982E-004
   7.9100000000000004E-002    -6.8530578573700041E-005
   8.0200000000000021E-002     2.0096462685614824E-004
   8.1300000000000011E-002     3.1872597173787653E-004
   8.2400000000000029E-002     2.0448108261916786E-004
   8.3500000000000019E-002    -4.5572105591418222E-005
   8.4600000000000009E-002    -2.3040041560307145E-004
   8.5700000000000026E-002    -2.0133197540417314E-004
   8.6800000000000016E-002     1.4266584003053140E-005
   8.7900000000000006E-002     2.2393005201593041E-004
   8.9000000000000024E-002     2.1869796910323203E-004
   9.0100000000000013E-002    -4.6695527998963371E-005
   9.1200000000000003E-002    -3.8536806823685765E-004
   9.2300000000000021E-002    -4.9409334314987063E-004
   9.3400000000000011E-002    -1.8894147069659084E-004
   9.4500000000000028E-002     4.0963219362311065E-004
   9.5600000000000018E-002     9.0128276497125626E-004
   9.6700000000000008E-002     8.6109683616086841E-004
   9.7800000000000026E-002     1.6921253700274974E-004
   9.8900000000000016E-002    -8.2835881039500237E-004
  0.10000000000000001         -1.4836017508059740E-003
  0.10110000000000002         -1.2682174565270543E-003
  0.10220000000000001         -1.7819518689066172E-004
  0.10330000000000003          1.1837586062029004E-003
  0.10440000000000002          1.9540050998330116E-003
  0.10550000000000001          1.5807334566488862E-003
  0.10660000000000003          2.2958137560635805E-004
  0.10770000000000002         -1.2871935032308102E-003
  0.10880000000000001         -2.0392353180795908E-003
  0.10990000000000003         -1.6038391040638089E-003
  0.11100000000000002         -3.3719409839250147E-004
  0.11210000000000001          9.1111118672415614E-004
  0.11320000000000002          1.4251072425395250E-003
  0.11430000000000001          1.1104119475930929E-003
  0.11540000000000003          4.6880173613317311E-004
  0.11650000000000002          9.5365285233128816E-005
  0.11760000000000001          1.2875412357971072E-004
  0.11870000000000003          1.3708262122236192E-004
  0.11980000000000002         -4.3239293154329062E-004
  0.12090000000000001         -1.6026824014261365E-003
  0.12200000000000003         -2.6020009536296129E-003
  0.12310000000000001         -2.3130320478230715E-003
  0.12420000000000003         -1.9295884703751653E-004
  0.12530000000000002          3.0265795066952705E-003
  0.12640000000000001          5.4939384572207928E-003
  0.12750000000000003          5.3084148094058037E-003
  0.12860000000000002          1.8718464998528361E-003
  0.12970000000000001         -3.4203771501779556E-003
  0.13080000000000003         -7.7390777878463268E-003
  0.13190000000000002         -8.4133986383676529E-003
  0.13300000000000001         -4.6090940013527870E-003
  0.13410000000000000          1.9900589250028133E-003
  0.13520000000000004          8.0014420673251152E-003
  0.13630000000000003          1.0227158665657043E-002
  0.13740000000000002          7.4743037112057209E-003
  0.13850000000000001          1.2028479250147939E-003
  0.13960000000000000         -5.3762532770633698E-003
  0.14070000000000005         -9.1547695919871330E-003
  0.14180000000000004         -8.7583102285861969E-003
  0.14290000000000003         -4.9882950261235237E-003
  0.14400000000000002          4.6190227294573560E-005
  0.14510000000000001          4.3429955840110779E-003
  0.14620000000000000          6.9190142676234245E-003
  0.14730000000000004          7.6904702000319958E-003
  0.14840000000000003          6.7042135633528233E-003
  0.14950000000000002          3.6602797918021679E-003
  0.15060000000000001         -1.6309495549649000E-003
  0.15170000000000000         -8.1722689792513847E-003
  0.15280000000000005         -1.3215965591371059E-002
  0.15390000000000004         -1.3222559355199337E-002
  0.15500000000000003         -6.2005738727748394E-003
  0.15610000000000002          6.0775773599743843E-003
  0.15720000000000001          1.7898738384246826E-002
  0.15830000000000000          2.2270854562520981E-002
  0.15940000000000004          1.5190333127975464E-002
  0.16050000000000003         -1.2003518640995026E-003
  0.16160000000000002         -1.8958983942866325E-002
  0.16270000000000001         -2.8454633429646492E-002
  0.16380000000000000         -2.3939792066812515E-002
  0.16490000000000005         -7.1097901090979576E-003
  0.16600000000000004          1.3670491985976696E-002
  0.16710000000000003          2.8040297329425812E-002
  0.16820000000000002          2.9307048767805099E-002
  0.16930000000000001          1.7679832875728607E-002
  0.17040000000000000         -6.0972984647378325E-004
  0.17150000000000004         -1.7280319705605507E-002
  0.17260000000000003         -2.6282319799065590E-002
  0.17370000000000002         -2.5857623666524887E-002
  0.17480000000000001         -1.7763340845704079E-002
  0.17590000000000000         -5.0727315247058868E-003
  0.17700000000000005          9.3716867268085480E-003
  0.17810000000000004          2.2844228893518448E-002
  0.17920000000000003          3.1738150864839554E-002
  0.18030000000000002          3.1532309949398041E-002
  0.18140000000000001          1.8873764201998711E-002
  0.18250000000000000         -5.0599859096109867E-003
  0.18360000000000004         -3.2476317137479782E-002
  0.18470000000000003         -5.0791863352060318E-002
  0.18580000000000002         -4.8632640391588211E-002
  0.18690000000000001         -2.3099852725863457E-002
  0.18800000000000000          1.6392225399613380E-002
  0.18910000000000005          5.1231756806373596E-002
  0.19020000000000004          6.3050642609596252E-002
  0.19130000000000003          4.4456012547016144E-002
  0.19240000000000002          4.2165070772171021E-003
  0.19350000000000001         -3.6854334175586700E-002
  0.19460000000000005         -5.7661004364490509E-002
  0.19570000000000004         -4.8904553055763245E-002
  0.19680000000000003         -1.8013464286923409E-002
  0.19790000000000002          1.6251984983682632E-002
  0.19900000000000001          3.5879537463188171E-002
  0.20010000000000000          3.4017022699117661E-002
  0.20120000000000005          1.7280388623476028E-002
  0.20230000000000004         -9.9968456197530031E-004
  0.20340000000000003         -1.0739595629274845E-002
  0.20450000000000002         -1.1195571161806583E-002
  0.20560000000000000         -8.6669176816940308E-003
  0.20670000000000005         -9.4594117254018784E-003
  0.20780000000000004         -1.3043671846389771E-002
  0.20890000000000003         -1.2658903375267982E-002
