 -0.12000000000000000          0.0000000000000000
 -0.11889999999999999          0.0000000000000000
 -0.11780000000000000          0.0000000000000000
 -0.11670000000000000          0.0000000000000000
 -0.11559999999999999          1.0739454410213511E-006
 -0.11449999999999999          6.3000152294989675E-006
 -0.11340000000000000          1.4827700397290755E-005
 -0.11230000000000000          7.5776410994876642E-006
 -0.11119999999999999         -5.0760871090460569E-005
 -0.11009999999999999         -1.5771666949149221E-004
 -0.10900000000000000         -1.9628758309409022E-004
 -0.10790000000000000          2.9487815481843427E-005
 -0.10679999999999999          5.4621731396764517E-004
 -0.10569999999999999          9.3525572447106242E-004
 -0.10460000000000000          4.8652669647708535E-004
 -0.10349999999999999         -1.0150641901418567E-003
 -0.10239999999999999         -2.5118356570601463E-003
 -0.10130000000000000         -2.0982914138585329E-003
 -0.10020000000000000          1.0108924470841885E-003
  -9.9099999999999994E-002     4.6378336846828461E-003
  -9.7999999999999990E-002     4.5785093680024147E-003
  -9.6899999999999986E-002    -1.1554422089830041E-003
  -9.5799999999999996E-002    -8.4418207406997681E-003
  -9.4699999999999993E-002    -8.8261570781469345E-003
  -9.3599999999999989E-002     2.1616865415126085E-003
  -9.2499999999999999E-002     1.7226690426468849E-002
  -9.1399999999999995E-002     2.0040571689605713E-002
  -9.0299999999999991E-002     2.7575506828725338E-004
  -8.9200000000000002E-002    -3.1356256455183029E-002
  -8.8099999999999984E-002    -4.5689053833484650E-002
  -8.6999999999999994E-002    -1.9612884148955345E-002
  -8.5899999999999990E-002     3.6559808999300003E-002
  -8.4799999999999986E-002     7.7953189611434937E-002
  -8.3699999999999997E-002     6.0086529701948166E-002
  -8.2599999999999993E-002    -1.6206879168748856E-002
  -8.1499999999999989E-002    -9.3998312950134277E-002
  -8.0399999999999999E-002   -0.10319741815328598
  -7.9299999999999995E-002    -2.5595596060156822E-002
  -7.8199999999999992E-002     7.9034388065338135E-002
  -7.7100000000000002E-002    0.11885991692543030
  -7.5999999999999984E-002     5.3749144077301025E-002
  -7.4899999999999994E-002    -6.0861237347126007E-002
  -7.3799999999999991E-002   -0.11859728395938873
  -7.2699999999999987E-002    -6.1211884021759033E-002
  -7.1599999999999997E-002     6.0617554932832718E-002
  -7.0499999999999993E-002    0.12893161177635193
  -6.9399999999999989E-002     7.0170648396015167E-002
  -6.8300000000000000E-002    -6.8713136017322540E-002
  -6.7199999999999996E-002   -0.15824791789054871
  -6.6099999999999992E-002   -0.10846348851919174
  -6.5000000000000002E-002     4.1260488331317902E-002
  -6.3899999999999985E-002    0.15517778694629669
  -6.2799999999999995E-002    0.12930221855640411
  -6.1699999999999991E-002    -9.0509187430143356E-003
  -6.0599999999999994E-002   -0.12903195619583130
  -5.9499999999999990E-002   -0.12455724924802780
  -5.8399999999999994E-002    -1.5114809386432171E-002
  -5.7299999999999990E-002     8.1481233239173889E-002
  -5.6199999999999986E-002     7.4014633893966675E-002
  -5.5099999999999996E-002    -1.0602544993162155E-002
  -5.3999999999999992E-002    -6.4773730933666229E-002
  -5.2899999999999989E-002    -2.4988302960991859E-002
  -5.1799999999999985E-002     5.3110200911760330E-002
  -5.0699999999999995E-002     5.5850971490144730E-002
  -4.9599999999999991E-002    -5.2518721669912338E-002
  -4.8499999999999988E-002   -0.16939412057399750
  -4.7399999999999998E-002   -0.14806060492992401
  -4.6299999999999994E-002     3.9254773408174515E-002
  -4.5199999999999990E-002    0.24200817942619324
  -4.4099999999999986E-002    0.25601112842559814
  -4.2999999999999997E-002     2.5229610502719879E-002
  -4.1899999999999993E-002   -0.27853754162788391
  -4.0799999999999989E-002   -0.39162272214889526
  -3.9699999999999985E-002   -0.19560152292251587
  -3.8599999999999995E-002    0.16457401216030121
  -3.7499999999999992E-002    0.39631983637809753
  -3.6399999999999988E-002    0.30700063705444336
  -3.5299999999999984E-002    -3.8115125149488449E-002
  -3.4199999999999994E-002   -0.37978577613830566
  -3.3099999999999991E-002   -0.47870278358459473
  -3.1999999999999987E-002   -0.28650251030921936
  -3.0899999999999997E-002     5.3864348679780960E-002
  -2.9799999999999993E-002    0.33977371454238892
  -2.8699999999999989E-002    0.43681883811950684
  -2.7599999999999986E-002    0.31587713956832886
  -2.6499999999999996E-002     2.4873597547411919E-002
  -2.5399999999999992E-002   -0.33535844087600708
  -2.4299999999999988E-002   -0.61800837516784668
  -2.3199999999999985E-002   -0.66965055465698242
  -2.2099999999999995E-002   -0.42520180344581604
  -2.0999999999999991E-002     9.1394828632473946E-003
  -1.9899999999999987E-002    0.38789644837379456
  -1.8799999999999983E-002    0.48671647906303406
  -1.7699999999999994E-002    0.26852980256080627
  -1.6599999999999990E-002    -9.6803270280361176E-002
  -1.5499999999999986E-002   -0.38368657231330872
  -1.4399999999999996E-002   -0.49100399017333984
  -1.3299999999999992E-002   -0.48207381367683411
  -1.2199999999999989E-002   -0.46346405148506165
  -1.1099999999999985E-002   -0.44979903101921082
  -9.9999999999999950E-003   -0.36955302953720093
  -8.8999999999999913E-003   -0.19720242917537689
  -7.7999999999999875E-003    -4.4558443129062653E-002
  -6.6999999999999837E-003    -7.8532285988330841E-002
  -5.5999999999999939E-003   -0.33717775344848633
  -4.4999999999999901E-003   -0.65157824754714966
  -3.3999999999999864E-003   -0.78967338800430298
  -2.2999999999999826E-003   -0.69286006689071655
  -1.1999999999999927E-003   -0.54824531078338623
  -9.9999999999988987E-005   -0.59165340662002563
   1.0000000000000148E-003   -0.83370572328567505
   2.1000000000000185E-003    -1.0081181526184082
   3.2000000000000084E-003   -0.84139376878738403
   4.3000000000000121E-003   -0.38376489281654358
   5.4000000000000159E-003    -4.0467403829097748E-002
   6.5000000000000058E-003   -0.22146274149417877
   7.6000000000000234E-003   -0.91996216773986816
   8.7000000000000133E-003    -1.6552997827529907
   9.8000000000000032E-003    -1.8731174468994141
   1.0900000000000021E-002    -1.4412004947662354
   1.2000000000000011E-002   -0.76354962587356567
   1.3100000000000001E-002   -0.38862907886505127
   1.4200000000000018E-002   -0.50231695175170898
   1.5300000000000008E-002   -0.79249042272567749
   1.6400000000000026E-002   -0.81904858350753784
   1.7500000000000016E-002   -0.49668690562248230
   1.8600000000000005E-002   -0.17138504981994629
   1.9700000000000023E-002   -0.23700690269470215
   2.0800000000000013E-002   -0.67593562602996826
   2.1900000000000003E-002    -1.0270507335662842
   2.3000000000000020E-002   -0.83488440513610840
   2.4100000000000010E-002   -0.11504524201154709
   2.5200000000000000E-002    0.63668876886367798
   2.6300000000000018E-002    0.91922509670257568
   2.7400000000000008E-002    0.69583451747894287
   2.8500000000000025E-002    0.40468227863311768
   2.9600000000000015E-002    0.49085474014282227
   3.0700000000000005E-002    0.96655023097991943
   3.1800000000000023E-002     1.4433804750442505
   3.2900000000000013E-002     1.5960377454757690
   3.4000000000000002E-002     1.5309857130050659
   3.5100000000000020E-002     1.6767271757125854
   3.6200000000000010E-002     2.2956242561340332
   3.7300000000000028E-002     3.1410605907440186
   3.8400000000000017E-002     3.6614620685577393
   3.9500000000000007E-002     3.5372512340545654
   4.0600000000000025E-002     3.0300674438476562
   4.1700000000000015E-002     2.7544519901275635
   4.2800000000000005E-002     3.0962743759155273
   4.3900000000000022E-002     3.8525705337524414
   4.5000000000000012E-002     4.4459714889526367
   4.6100000000000002E-002     4.4881124496459961
   4.7200000000000020E-002     4.1305537223815918
   4.8300000000000010E-002     3.8718020915985107
   4.9400000000000027E-002     4.0442223548889160
   5.0500000000000017E-002     4.4988188743591309
   5.1600000000000007E-002     4.7917985916137695
   5.2700000000000025E-002     4.6277422904968262
   5.3800000000000014E-002     4.1321101188659668
   5.4900000000000004E-002     3.6805641651153564
   5.6000000000000022E-002     3.4992053508758545
   5.7100000000000012E-002     3.4790644645690918
   5.8200000000000002E-002     3.3218340873718262
   5.9300000000000019E-002     2.8596484661102295
   6.0400000000000009E-002     2.2112615108489990
   6.1500000000000027E-002     1.6180235147476196
   6.2600000000000017E-002     1.2087606191635132
   6.3700000000000007E-002    0.89350992441177368
   6.4800000000000024E-002    0.46259889006614685
   6.5900000000000014E-002   -0.19289277493953705
   6.7000000000000004E-002    -1.0626076459884644
   6.8100000000000022E-002    -2.0147151947021484
   6.9200000000000012E-002    -2.9649965763092041
   7.0300000000000029E-002    -3.7962012290954590
   7.1400000000000019E-002    -4.4165606498718262
   7.2500000000000009E-002    -4.8465905189514160
   7.3600000000000027E-002    -5.2103815078735352
   7.4700000000000016E-002    -5.7450804710388184
   7.5800000000000006E-002    -6.4967832565307617
   7.6900000000000024E-002    -7.3197999000549316
   7.8000000000000014E-002    -7.9273772239685059
   7.9100000000000004E-002    -8.2311906814575195
   8.0200000000000021E-002    -8.4711351394653320
   8.1300000000000011E-002    -8.9295024871826172
   8.2400000000000029E-002    -9.5808820724487305
   8.3500000000000019E-002    -9.9704284667968750
   8.4600000000000009E-002    -9.6424627304077148
   8.5700000000000026E-002    -8.6652355194091797
   8.6800000000000016E-002    -7.6611890792846680
   8.7900000000000006E-002    -7.3106169700622559
   8.9000000000000024E-002    -7.6350321769714355
   9.0100000000000013E-002    -7.8868994712829590
   9.1200000000000003E-002    -7.2289071083068848
   9.2300000000000021E-002    -5.5949358940124512
   9.3400000000000011E-002    -3.8268249034881592
   9.4500000000000028E-002    -2.8456122875213623
   9.5600000000000018E-002    -2.6996862888336182
   9.6700000000000008E-002    -2.4460997581481934
   9.7800000000000026E-002    -1.1064913272857666
   9.8900000000000016E-002     1.2605282068252563
  0.10000000000000001          3.4756584167480469
  0.10110000000000002          4.3531708717346191
  0.10220000000000001          3.9800353050231934
  0.10330000000000003          3.7009761333465576
  0.10440000000000002          4.7773876190185547
  0.10550000000000001          7.0485749244689941
  0.10660000000000003          9.0215988159179688
  0.10770000000000002          9.2885332107543945
  0.10880000000000001          8.0339250564575195
  0.10990000000000003          6.9327988624572754
  0.11100000000000002          7.5170841217041016
  0.11210000000000001          9.5633363723754883
  0.11320000000000002          11.224480628967285
  0.11430000000000001          10.834699630737305
  0.11540000000000003          8.6063251495361328
  0.11650000000000002          6.4421062469482422
  0.11760000000000001          6.0128493309020996
  0.11870000000000003          7.0446467399597168
  0.11980000000000002          7.6224541664123535
  0.12090000000000001          6.2679915428161621
  0.12200000000000003          3.5132980346679688
  0.12310000000000001          1.4733588695526123
  0.12420000000000003          1.5919818878173828
  0.12530000000000002          3.1133058071136475
  0.12640000000000001          3.7045297622680664
  0.12750000000000003          1.8469533920288086
  0.12860000000000002         -1.5461477041244507
  0.12970000000000001         -3.9783017635345459
  0.13080000000000003         -3.8621597290039062
  0.13190000000000002         -2.1209321022033691
  0.13300000000000001         -1.2251019477844238
  0.13410000000000000         -2.6355724334716797
  0.13520000000000004         -5.2845449447631836
  0.13630000000000003         -6.6622228622436523
  0.13740000000000002         -5.4710073471069336
  0.13850000000000001         -3.0104758739471436
  0.13960000000000000         -1.8612782955169678
  0.14070000000000005         -3.2500483989715576
  0.14180000000000004         -5.7330379486083984
  0.14290000000000003         -6.7279276847839355
  0.14400000000000002         -5.0956888198852539
  0.14510000000000001         -2.3837759494781494
  0.14620000000000000         -1.1496167182922363
  0.14730000000000004         -2.3285098075866699
  0.14840000000000003         -4.2829647064208984
  0.14950000000000002         -4.5140576362609863
  0.15060000000000001         -2.3444755077362061
  0.15170000000000000         0.41794803738594055
  0.15280000000000005          1.3013623952865601
  0.15390000000000004        -0.18148240447044373
  0.15500000000000003         -2.0784320831298828
  0.15610000000000002         -2.0856363773345947
  0.15720000000000001          3.4198481589555740E-002
  0.15830000000000000          2.2068414688110352
  0.15940000000000004          2.2695758342742920
  0.16050000000000003         0.30234172940254211
  0.16160000000000002         -1.4461728334426880
  0.16270000000000001        -0.93901151418685913
  0.16380000000000000          1.4666448831558228
  0.16490000000000005          3.3788948059082031
  0.16600000000000004          2.8864572048187256
  0.16710000000000003         0.58663707971572876
  0.16820000000000002         -1.0697407722473145
  0.16930000000000001        -0.38575968146324158
  0.17040000000000000          1.7703781127929688
  0.17150000000000004          2.9055476188659668
  0.17260000000000003          1.6039998531341553
  0.17370000000000002        -0.89701199531555176
  0.17480000000000001         -1.9785040616989136
  0.17590000000000000        -0.43668308854103088
  0.17700000000000005          2.1764144897460938
  0.17810000000000004          3.1321697235107422
  0.17920000000000003          1.3966257572174072
  0.18030000000000002         -1.2476749420166016
  0.18140000000000001         -2.0625441074371338
  0.18250000000000000        -0.24450905621051788
  0.18360000000000004          2.2038650512695312
  0.18470000000000003          2.5784907341003418
  0.18580000000000002         0.35178837180137634
  0.18690000000000001         -2.2239539623260498
  0.18800000000000000         -2.4711971282958984
  0.18910000000000005        -0.12256412208080292
  0.19020000000000004          2.3676159381866455
  0.19130000000000003          2.3904707431793213
  0.19240000000000002         -5.8884911239147186E-002
  0.19350000000000001         -2.3671596050262451
  0.19460000000000005         -2.0614156723022461
  0.19570000000000004         0.55003702640533447
  0.19680000000000003          2.6709289550781250
  0.19790000000000002          1.9577975273132324
  0.19900000000000001        -0.98017764091491699
  0.20010000000000000         -3.1749184131622314
  0.20120000000000005         -2.3931465148925781
  0.20230000000000004         0.52729088068008423
  0.20340000000000003          2.5601971149444580
  0.20450000000000002          1.6764111518859863
  0.20560000000000000         -1.0332221984863281
  0.20670000000000005         -2.5429000854492188
  0.20780000000000004         -1.1381913423538208
  0.20890000000000003          1.7244769334793091
