 -0.12000000000000000          0.0000000000000000
 -0.11889999999999999          0.0000000000000000
 -0.11780000000000000          0.0000000000000000
 -0.11670000000000000          0.0000000000000000
 -0.11559999999999999          0.0000000000000000
 -0.11449999999999999          0.0000000000000000
 -0.11340000000000000          0.0000000000000000
 -0.11230000000000000          0.0000000000000000
 -0.11119999999999999          0.0000000000000000
 -0.11009999999999999          0.0000000000000000
 -0.10900000000000000          2.2651464445202951E-024
 -0.10790000000000000          4.5372082803931908E-023
 -0.10679999999999999          2.7451263931669966E-022
 -0.10569999999999999          8.4662561734829132E-022
 -0.10460000000000000          1.2953973529491444E-021
 -0.10349999999999999         -2.2649774310719857E-021
 -0.10239999999999999         -2.5025960076298016E-020
 -0.10130000000000000         -8.5342498543786055E-020
 -0.10020000000000000         -9.8724658805387493E-020
  -9.9099999999999994E-002     2.8781405616846986E-019
  -9.7999999999999990E-002     1.2497487236078968E-018
  -9.6899999999999986E-002     9.1807969686129348E-019
  -9.5799999999999996E-002    -5.2254206978676004E-018
  -9.4699999999999993E-002    -1.5314122421424616E-017
  -9.3599999999999989E-002    -3.2345770820261808E-018
  -9.2499999999999999E-002     6.7931519591653337E-017
  -9.1399999999999995E-002     1.4560203872236200E-016
  -9.0299999999999991E-002    -1.3363984570358851E-017
  -8.9200000000000002E-002    -5.9629240132353656E-016
  -8.8099999999999984E-002    -9.6399305655610638E-016
  -8.6999999999999994E-002     6.0182728517801687E-016
  -8.5899999999999990E-002     4.4502124255358059E-015
  -8.4799999999999986E-002     4.8631748686392808E-015
  -8.3699999999999997E-002    -8.6152356339963314E-015
  -8.2599999999999993E-002    -3.2678998667258094E-014
  -8.1499999999999989E-002    -2.4865451765746057E-014
  -8.0399999999999999E-002     7.6120147240589702E-014
  -7.9299999999999995E-002     2.3296533972761445E-013
  -7.8199999999999992E-002     1.7610910017607797E-013
  -7.7100000000000002E-002    -4.5711725420527618E-013
  -7.5999999999999984E-002    -1.4744101122302733E-012
  -7.4899999999999994E-002    -1.4179129875431702E-012
  -7.3799999999999991E-002     1.7952354013088670E-012
  -7.2699999999999987E-002     7.7481849061760760E-012
  -7.1599999999999997E-002     9.8279743718230734E-012
  -7.0499999999999993E-002    -2.8445605246302471E-012
  -6.9399999999999989E-002    -3.2366834906707988E-011
  -6.8300000000000000E-002    -5.4261251741795023E-011
  -6.7199999999999996E-002    -1.9144581753222881E-011
  -6.6099999999999992E-002     1.0093558627800624E-010
  -6.5000000000000002E-002     2.3644111668553649E-010
  -6.3899999999999985E-002     1.9770142467567113E-010
  -6.2799999999999995E-002    -1.8984487593080240E-010
  -6.1699999999999991E-002    -8.0380596623191270E-010
  -6.0599999999999994E-002    -1.0425087459964435E-009
  -5.9499999999999990E-002    -1.2361310586232010E-010
  -5.8399999999999994E-002     2.0264030453633343E-009
  -5.7299999999999990E-002     3.8980103589382519E-009
  -5.6199999999999986E-002     2.7499738042279610E-009
  -5.5099999999999996E-002    -3.0552029794965324E-009
  -5.3999999999999992E-002    -1.0873320022142815E-008
  -5.2899999999999989E-002    -1.3055104552961670E-008
  -5.1799999999999985E-002    -1.8017736191915882E-009
  -5.0699999999999995E-002     2.1554649620726745E-008
  -4.9599999999999991E-002     4.0406494150603560E-008
  -4.8499999999999988E-002     2.9732895256984071E-008
  -4.7399999999999998E-002    -2.1926295445953465E-008
  -4.6299999999999994E-002    -8.9361712696249374E-008
  -4.5199999999999990E-002    -1.1185580461870155E-007
  -4.4099999999999986E-002    -3.4267969795107677E-008
  -4.2999999999999997E-002     1.3031751677772994E-007
  -4.1899999999999993E-002     2.7035045491175816E-007
  -4.0799999999999989E-002     2.3046194996823308E-007
  -3.9699999999999985E-002    -5.5865989168076707E-008
  -3.8599999999999995E-002    -4.4886442651660865E-007
  -3.7499999999999992E-002    -6.2935038158685975E-007
  -3.6399999999999988E-002    -3.1888302487459457E-007
  -3.5299999999999984E-002     4.2999482730012298E-007
  -3.4199999999999994E-002     1.1279385034868267E-006
  -3.3099999999999991E-002     1.1173539178344216E-006
  -3.1999999999999987E-002     1.1979895475632810E-007
  -3.0899999999999997E-002    -1.3493238384399076E-006
  -2.9799999999999993E-002    -2.1523690065805758E-006
  -2.8699999999999989E-002    -1.3530286651075617E-006
  -2.7599999999999986E-002     8.4777940401182574E-007
  -2.6499999999999996E-002     2.9130633265594956E-006
  -2.5399999999999992E-002     2.9561235805885870E-006
  -2.4299999999999988E-002     3.8175946315274355E-007
  -2.3199999999999985E-002    -3.1556826343148689E-006
  -2.2099999999999995E-002    -4.6104828470560442E-006
  -2.0999999999999991E-002    -1.9937265278711982E-006
  -1.9899999999999987E-002     3.4002530355793348E-006
  -1.8799999999999983E-002     7.1692165874992269E-006
  -1.7699999999999994E-002     4.9801910790845556E-006
  -1.6599999999999990E-002    -3.2831278531378797E-006
  -1.5499999999999986E-002    -1.1964074474235799E-005
  -1.4399999999999996E-002    -1.2913925274915558E-005
  -1.3299999999999992E-002    -2.1028915853091193E-006
  -1.2199999999999989E-002     1.5384202924906808E-005
  -1.1099999999999985E-002     2.6854757379624630E-005
  -9.9999999999999950E-003     2.0516732547548969E-005
  -8.8999999999999913E-003    -4.4216849346412617E-006
  -7.7999999999999875E-003    -3.4124415833503536E-005
  -6.6999999999999837E-003    -4.7455345338677121E-005
  -5.5999999999999939E-003    -3.0687802791363889E-005
  -4.4999999999999901E-003     1.0642550478222649E-005
  -3.3999999999999864E-003     5.2509483793983006E-005
  -2.2999999999999826E-003     6.7166416556575556E-005
  -1.1999999999999927E-003     4.2546551412672537E-005
  -9.9999999999988987E-005    -7.8842740549556456E-006
   1.0000000000000148E-003    -5.3252271754897432E-005
   2.1000000000000185E-003    -6.6741617047227729E-005
   3.2000000000000084E-003    -4.4868069380757715E-005
   4.3000000000000121E-003    -9.2406289695705415E-006
   5.4000000000000159E-003     1.1957025890289913E-005
   6.5000000000000058E-003     9.1080528363769344E-006
   7.6000000000000234E-003     1.7528013813715144E-006
   8.7000000000000133E-003     2.2453361452795964E-005
   9.8000000000000032E-003     8.2832404586963564E-005
   1.0900000000000021E-002     1.4874433691149073E-004
   1.2000000000000011E-002     1.5083886682988281E-004
   1.3100000000000001E-002     3.3430816984039214E-005
   1.4200000000000018E-002    -1.8766672292259572E-004
   1.5300000000000008E-002    -4.0447668288836540E-004
   1.6400000000000026E-002    -4.6296408982018884E-004
   1.7500000000000016E-002    -2.6050879387187292E-004
   1.8600000000000005E-002     1.6505605890414839E-004
   1.9700000000000023E-002     6.2287307810039846E-004
   2.0800000000000013E-002     8.5859856335450012E-004
   2.1900000000000003E-002     7.0165487704803599E-004
   2.3000000000000020E-002     1.7764352378439973E-004
   2.4100000000000010E-002    -4.9230665899811018E-004
   2.5200000000000000E-002    -1.0097086196765466E-003
   2.6300000000000018E-002    -1.1568299960345594E-003
   2.7400000000000008E-002    -8.9056347496816065E-004
   2.8500000000000025E-002    -3.2104860292756426E-004
   2.9600000000000015E-002     3.8351627881632867E-004
   3.0700000000000005E-002     1.0704497108235970E-003
   3.1800000000000023E-002     1.5940064331517395E-003
   3.2900000000000013E-002     1.7615696415306564E-003
   3.4000000000000002E-002     1.3419653987513684E-003
   3.5100000000000020E-002     2.0764461078228810E-004
   3.6200000000000010E-002    -1.4503472484647883E-003
   3.7300000000000028E-002    -3.0191338155419697E-003
   3.8400000000000017E-002    -3.6451451014729748E-003
   3.9500000000000007E-002    -2.6917748618874031E-003
   4.0600000000000025E-002    -2.2723816800888574E-004
   4.1700000000000015E-002     2.8108803089707144E-003
   4.2800000000000005E-002     4.9813441000880285E-003
   4.3900000000000022E-002     5.1015815697614195E-003
   4.5000000000000012E-002     2.9640218708669275E-003
   4.6100000000000002E-002    -4.7345767961768677E-004
   4.7200000000000020E-002    -3.5995228681711001E-003
   4.8300000000000010E-002    -5.0742905586959128E-003
   4.9400000000000027E-002    -4.5701791532342610E-003
   5.0500000000000017E-002    -2.8244657441981453E-003
   5.1600000000000007E-002    -9.6563441911799968E-004
   5.2700000000000025E-002     3.9000864489860941E-004
   5.3800000000000014E-002     1.5638632467012915E-003
   5.4900000000000004E-002     3.3664572983982469E-003
   5.6000000000000022E-002     6.0460786335179871E-003
   5.7100000000000012E-002     8.4690013900415931E-003
   5.8200000000000002E-002     8.3655845373890314E-003
   5.9300000000000019E-002     3.8013679441085578E-003
   6.0400000000000009E-002    -4.9355681985603014E-003
   6.1500000000000027E-002    -1.4417012222111279E-002
   6.2600000000000017E-002    -1.9168715924026487E-002
   6.3700000000000007E-002    -1.4605052769187813E-002
   6.4800000000000024E-002    -2.6035110932329627E-004
   6.5900000000000014E-002     1.8792433664197770E-002
   6.7000000000000004E-002     3.3646266907449852E-002
   6.8100000000000022E-002     3.5864200443028092E-002
   6.9200000000000012E-002     2.2102033719422209E-002
   7.0300000000000029E-002    -3.7066549994001102E-003
   7.1400000000000019E-002    -3.2097395509473471E-002
   7.2500000000000009E-002    -5.2934408187856011E-002
   7.3600000000000027E-002    -6.0643427073943997E-002
   7.4700000000000016E-002    -5.6803211569774151E-002
   7.5800000000000006E-002    -4.8663213849056301E-002
   7.6900000000000024E-002    -4.4608626514663061E-002
   7.8000000000000014E-002    -4.9385145306578462E-002
   7.9100000000000004E-002    -6.1947230249635422E-002
   8.0200000000000021E-002    -7.7148318290701914E-002
   8.1300000000000011E-002    -9.0182989835727631E-002
   8.2400000000000029E-002   -0.10109128803013029
   8.3500000000000019E-002   -0.11657927930352505
   8.4600000000000009E-002   -0.14785677194591737
   8.5700000000000026E-002   -0.20533479750151676
   8.6800000000000016E-002   -0.29280591011041496
   8.7900000000000006E-002   -0.40425461530678425
   8.9000000000000024E-002   -0.52549064159385128
   9.0100000000000013E-002   -0.64055275917043675
   9.1200000000000003E-002   -0.74042785167682845
   9.2300000000000021E-002   -0.83005791902528703
   9.3400000000000011E-002   -0.92979460954649995
   9.4500000000000028E-002    -1.0698440074918707
   9.5600000000000018E-002    -1.2795515060422460
   9.6700000000000008E-002    -1.5762165784833009
   9.7800000000000026E-002    -1.9590408802029133
   9.8900000000000016E-002    -2.4115681648250447
  0.10000000000000001         -2.9121193885798569
  0.10110000000000002         -3.4475097656244529
  0.10220000000000001         -4.0232505798333431
  0.10330000000000003         -4.6647615432731762
  0.10440000000000002         -5.4089741706839423
  0.10550000000000001         -6.2900676727284823
  0.10660000000000003         -7.3275222778308660
  0.10770000000000002         -8.5228605270372348
  0.10880000000000001         -9.8670339584335220
  0.10990000000000003         -11.354237556455763
  0.11100000000000002         -12.993276596067334
  0.11210000000000001         -14.809394836423506
  0.11320000000000002         -16.835454940793323
  0.11430000000000001         -19.097339630124051
  0.11540000000000003         -21.603187561031898
  0.11650000000000002         -24.343278884884054
  0.11760000000000001         -27.300931930537939
  0.11870000000000003         -30.464830398555076
  0.11980000000000002         -33.836265563959884
  0.12090000000000001         -37.424682617182050
  0.12200000000000003         -41.235469818109273
  0.12310000000000001         -45.257068634026716
  0.12420000000000003         -49.457786560051566
  0.12530000000000002         -53.789314270011964
  0.12640000000000001         -58.199127197257518
  0.12750000000000003         -62.638549804678860
  0.12860000000000002         -67.062179565420536
  0.12970000000000001         -71.417572021474726
  0.13080000000000003         -75.638076782216473
  0.13190000000000002         -79.630325317372339
  0.13300000000000001         -83.282066345204058
  0.13410000000000000         -86.466949462879612
  0.13520000000000004         -89.056678771961529
  0.13630000000000003         -90.931427001941998
  0.13740000000000002         -91.975517272938248
  0.13850000000000001         -92.068283081044029
  0.13960000000000000         -91.079292297353106
  0.14070000000000005         -88.855499267568632
  0.14180000000000004         -85.239547729483590
  0.14290000000000003         -80.078964233390948
  0.14400000000000002         -73.229827880853236
  0.14510000000000001         -64.574081420893890
  0.14620000000000000         -54.018444061276604
  0.14730000000000004         -41.481662750243558
  0.14840000000000003         -26.904489517213708
  0.14950000000000002         -10.243988990788120
  0.15060000000000001          8.5260267257617297
  0.15170000000000000          29.400949478138980
  0.15280000000000005          52.352146148667870
  0.15390000000000004          77.311279296857705
  0.15500000000000003          104.16328430173684
  0.15610000000000002          132.74868774411584
  0.15720000000000001          162.84124755856510
  0.15830000000000000          194.16032409664714
  0.15940000000000004          226.36787414547140
  0.16050000000000003          259.09384155269419
  0.16160000000000002          291.94515991206549
  0.16270000000000001          324.52334594721833
  0.16380000000000000          356.41870117182447
  0.16490000000000005          387.19717407221225
  0.16600000000000004          416.38903808588168
  0.16710000000000003          443.47610473627032
  0.16820000000000002          467.90307617181577
  0.16930000000000001          489.10437011712736
  0.17040000000000000          506.53414916986151
  0.17150000000000004          519.69995117181497
  0.17260000000000003          528.18170166009736
  0.17370000000000002          531.63146972650543
  0.17480000000000001          529.76184082025793
  0.17590000000000000          522.32476806635498
  0.17700000000000005          509.09771728510901
  0.17810000000000004          489.89547729487930
  0.17920000000000003          464.60684204097839
  0.18030000000000002          433.22424316403124
  0.18140000000000001          395.86758422849090
  0.18250000000000000          352.79174804685726
  0.18360000000000004          304.37878417967721
  0.18470000000000003          251.08641052245835
  0.18580000000000002          193.44259643555222
  0.18690000000000001          132.02377319337276
  0.18800000000000000          67.460594177267510
  0.18910000000000005         0.44649586084439113
  0.19020000000000004         -68.251060485802810
  0.19130000000000003         -137.79003906245561
  0.19240000000000002         -207.27027893061273
  0.19350000000000001         -275.78948974603605
  0.19460000000000005         -342.44653320306151
  0.19570000000000004         -406.37329101555645
  0.19680000000000003         -466.75039672844281
  0.19790000000000002         -522.78027343742372
  0.19900000000000001         -573.72717285148360
  0.20010000000000000         -618.91278076163815
  0.20120000000000005         -657.74591064444985
  0.20230000000000004         -689.75305175773121
  0.20340000000000003         -714.57128906241974
  0.20450000000000002         -731.94512939445281
  0.20560000000000000         -741.70495605461178
  0.20670000000000005         -743.77227783195895
  0.20780000000000004         -738.17041015618190
  0.20890000000000003         -725.04016113274906
