 -0.12000000000000000          0.0000000000000000
 -0.11889999999999999         -6.6123577724397364E-009
 -0.11780000000000000         -1.5863593105791551E-008
 -0.11670000000000000         -2.2591995829657208E-008
 -0.11559999999999999         -2.5659378621867290E-008
 -0.11449999999999999         -2.8825573039625851E-008
 -0.11340000000000000         -3.6550908077970234E-008
 -0.11230000000000000         -4.9302247617788453E-008
 -0.11119999999999999         -6.3386451643054897E-008
 -0.11009999999999999         -7.5483889361294132E-008
 -0.10900000000000000         -8.7040916696423665E-008
 -0.10790000000000000         -1.0379614678868165E-007
 -0.10679999999999999         -1.3084067518320808E-007
 -0.10569999999999999         -1.6834619032124465E-007
 -0.10460000000000000         -2.1244657943952916E-007
 -0.10349999999999999         -2.6039919021059177E-007
 -0.10239999999999999         -3.1469960504182382E-007
 -0.10130000000000000         -3.8194806961655559E-007
 -0.10020000000000000         -4.6777216766713536E-007
  -9.9099999999999994E-002    -5.7322137081428082E-007
  -9.7999999999999990E-002    -6.9646580413973425E-007
  -9.6899999999999986E-002    -8.3803934103343636E-007
  -9.5799999999999996E-002    -1.0041462701337878E-006
  -9.4699999999999993E-002    -1.2045964012941113E-006
  -9.3599999999999989E-002    -1.4475708667305298E-006
  -9.2499999999999999E-002    -1.7367410691804253E-006
  -9.1399999999999995E-002    -2.0737861632369459E-006
  -9.0299999999999991E-002    -2.4637170099595096E-006
  -8.9200000000000002E-002    -2.9175121198932175E-006
  -8.8099999999999984E-002    -3.4494364626880269E-006
  -8.6999999999999994E-002    -4.0719737626204733E-006
  -8.5899999999999990E-002    -4.7937687668309081E-006
  -8.4799999999999986E-002    -5.6227681852760725E-006
  -8.3699999999999997E-002    -6.5712797550077084E-006
  -8.2599999999999993E-002    -7.6576980063691735E-006
  -8.1499999999999989E-002    -8.9031464085564949E-006
  -8.0399999999999999E-002    -1.0326602932764217E-005
  -7.9299999999999995E-002    -1.1943534445890691E-005
  -7.8199999999999992E-002    -1.3769349607173353E-005
  -7.7100000000000002E-002    -1.5823872672626749E-005
  -7.5999999999999984E-002    -1.8132026525563560E-005
  -7.4899999999999994E-002    -2.0719928215839900E-005
  -7.3799999999999991E-002    -2.3610382413608022E-005
  -7.2699999999999987E-002    -2.6822275685844943E-005
  -7.1599999999999997E-002    -3.0374181733350269E-005
  -7.0499999999999993E-002    -3.4287986636627465E-005
  -6.9399999999999989E-002    -3.8588328607147560E-005
  -6.8300000000000000E-002    -4.3297997763147578E-005
  -6.7199999999999996E-002    -4.8433688789373264E-005
  -6.6099999999999992E-002    -5.4005882702767849E-005
  -6.5000000000000002E-002    -6.0022332036169246E-005
  -6.3899999999999985E-002    -6.6490705648902804E-005
  -6.2799999999999995E-002    -7.3416900704614818E-005
  -6.1699999999999991E-002    -8.0800033174455166E-005
  -6.0599999999999994E-002    -8.8628701632842422E-005
  -5.9499999999999990E-002    -9.6881638455670327E-005
  -5.8399999999999994E-002    -1.0553114407230169E-004
  -5.7299999999999990E-002    -1.1454495688667521E-004
  -5.6199999999999986E-002    -1.2388391769491136E-004
  -5.5099999999999996E-002    -1.3349705841392279E-004
  -5.3999999999999992E-002    -1.4331906277220696E-004
  -5.2899999999999989E-002    -1.5327175788115710E-004
  -5.1799999999999985E-002    -1.6326813783962280E-004
  -5.0699999999999995E-002    -1.7321418272331357E-004
  -4.9599999999999991E-002    -1.8300647207070142E-004
  -4.8499999999999988E-002    -1.9252850324846804E-004
  -4.7399999999999998E-002    -2.0164976012893021E-004
  -4.6299999999999994E-002    -2.1022916189394891E-004
  -4.5199999999999990E-002    -2.1812015620525926E-004
  -4.4099999999999986E-002    -2.2517322213388979E-004
  -4.2999999999999997E-002    -2.3123461869545281E-004
  -4.1899999999999993E-002    -2.3614433303009719E-004
  -4.0799999999999989E-002    -2.3973762290552258E-004
  -3.9699999999999985E-002    -2.4185021175071597E-004
  -3.8599999999999995E-002    -2.4232448777183890E-004
  -3.7499999999999992E-002    -2.4101258895825595E-004
  -3.6399999999999988E-002    -2.3777596652507782E-004
  -3.5299999999999984E-002    -2.3248502111528069E-004
  -3.4199999999999994E-002    -2.2502196952700615E-004
  -3.3099999999999991E-002    -2.1528718934860080E-004
  -3.1999999999999987E-002    -2.0320503972470760E-004
  -3.0899999999999997E-002    -1.8872645159717649E-004
  -2.9799999999999993E-002    -1.7182820010930300E-004
  -2.8699999999999989E-002    -1.5251227887347341E-004
  -2.7599999999999986E-002    -1.3080831558909267E-004
  -2.6499999999999996E-002    -1.0677838145056739E-004
  -2.5399999999999992E-002    -8.0520592746324837E-005
  -2.4299999999999988E-002    -5.2168816182529554E-005
  -2.3199999999999985E-002    -2.1889381969231181E-005
  -2.2099999999999995E-002     1.0121785635419656E-005
  -2.0999999999999991E-002     4.3639232899295166E-005
  -1.9899999999999987E-002     7.8406548709608614E-005
  -1.8799999999999983E-002     1.1413681204430759E-004
  -1.7699999999999994E-002     1.5051690570544451E-004
  -1.6599999999999990E-002     1.8721414380706847E-004
  -1.5499999999999986E-002     2.2388204524759203E-004
  -1.4399999999999996E-002     2.6016315678134561E-004
  -1.3299999999999992E-002     2.9569093021564186E-004
  -1.2199999999999989E-002     3.3009346225298941E-004
  -1.1099999999999985E-002     3.6300087231211364E-004
  -9.9999999999999950E-003     3.9405334973707795E-004
  -8.8999999999999913E-003     4.2290767305530608E-004
  -7.7999999999999875E-003     4.4924076064489782E-004
  -6.6999999999999837E-003     4.7275217366404831E-004
  -5.5999999999999939E-003     4.9316807417199016E-004
  -4.4999999999999901E-003     5.1024788990616798E-004
  -3.3999999999999864E-003     5.2379019325599074E-004
  -2.2999999999999826E-003     5.3363700862973928E-004
  -1.1999999999999927E-003     5.3967430721968412E-004
  -9.9999999999988987E-005     5.4183125030249357E-004
   1.0000000000000148E-003     5.4008129518479109E-004
   2.1000000000000185E-003     5.3444475634023547E-004
   3.2000000000000084E-003     5.2499060984700918E-004
   4.3000000000000121E-003     5.1183538744226098E-004
   5.4000000000000159E-003     4.9513875273987651E-004
   6.5000000000000058E-003     4.7509893192909658E-004
   7.6000000000000234E-003     4.5194986159913242E-004
   8.7000000000000133E-003     4.2595944250933826E-004
   9.8000000000000032E-003     3.9742683293297887E-004
   1.0900000000000021E-002     3.6667723907157779E-004
   1.2000000000000011E-002     3.3405460999347270E-004
   1.3100000000000001E-002     2.9991474002599716E-004
   1.4200000000000018E-002     2.6462052483111620E-004
   1.5300000000000008E-002     2.2853862901683897E-004
   1.6400000000000026E-002     1.9203551346436143E-004
   1.7500000000000016E-002     1.5547141083516181E-004
   1.8600000000000005E-002     1.1919372627744451E-004
   1.9700000000000023E-002     8.3531325799413025E-005
   2.0800000000000013E-002     4.8791531298775226E-005
   2.1900000000000003E-002     1.5258527128025889E-005
   2.3000000000000020E-002    -1.6808655345812440E-005
   2.4100000000000010E-002    -4.7179477405734360E-005
   2.5200000000000000E-002    -7.5655443652067333E-005
   2.6300000000000018E-002    -1.0207199375145137E-004
   2.7400000000000008E-002    -1.2629808043129742E-004
   2.8500000000000025E-002    -1.4823462697677314E-004
   2.9600000000000015E-002    -1.6781347221694887E-004
   3.0700000000000005E-002    -1.8499750876799226E-004
   3.1800000000000023E-002    -1.9978046475443989E-004
   3.2900000000000013E-002    -2.1218562324065715E-004
   3.4000000000000002E-002    -2.2226232977118343E-004
   3.5100000000000020E-002    -2.3008241259958595E-004
   3.6200000000000010E-002    -2.3573731596115977E-004
   3.7300000000000028E-002    -2.3933641205076128E-004
   3.8400000000000017E-002    -2.4100515292957425E-004
   3.9500000000000007E-002    -2.4088220379780978E-004
   4.0600000000000025E-002    -2.3911552852950990E-004
   4.1700000000000015E-002    -2.3585870803799480E-004
   4.2800000000000005E-002    -2.3126856831368059E-004
   4.3900000000000022E-002    -2.2550346329808235E-004
   4.5000000000000012E-002    -2.1872190700378269E-004
   4.6100000000000002E-002    -2.1108009968884289E-004
   4.7200000000000020E-002    -2.0272917754482478E-004
   4.8300000000000010E-002    -1.9381310266908258E-004
   4.9400000000000027E-002    -1.8446771719027311E-004
   5.0500000000000017E-002    -1.7482036491855979E-004
   5.1600000000000007E-002    -1.6498957120347768E-004
   5.2700000000000025E-002    -1.5508386422879994E-004
   5.3800000000000014E-002    -1.4520080003421754E-004
   5.4900000000000004E-002    -1.3542643864639103E-004
   5.6000000000000022E-002    -1.2583582429215312E-004
   5.7100000000000012E-002    -1.1649394582491368E-004
   5.8200000000000002E-002    -1.0745621693786234E-004
   5.9300000000000019E-002    -9.8768359748646617E-005
   6.0400000000000009E-002    -9.0466375695541501E-005
   6.1500000000000027E-002    -8.2577142165973783E-005
   6.2600000000000017E-002    -7.5119576649740338E-005
   6.3700000000000007E-002    -6.8105844547972083E-005
   6.4800000000000024E-002    -6.1542043113149703E-005
   6.5900000000000014E-002    -5.5428430641768500E-005
   6.7000000000000004E-002    -4.9759815738070756E-005
   6.8100000000000022E-002    -4.4526444980874658E-005
   6.9200000000000012E-002    -3.9715185266686603E-005
   7.0300000000000029E-002    -3.5310396924614906E-005
   7.1400000000000019E-002    -3.1294344807974994E-005
   7.2500000000000009E-002    -2.7647403840092011E-005
   7.3600000000000027E-002    -2.4348428269149736E-005
   7.4700000000000016E-002    -2.1375448341132142E-005
   7.5800000000000006E-002    -1.8706341506913304E-005
   7.6900000000000024E-002    -1.6319170754286461E-005
   7.8000000000000014E-002    -1.4192201888363343E-005
   7.9100000000000004E-002    -1.2303955372772180E-005
   8.0200000000000021E-002    -1.0633492820488755E-005
   8.1300000000000011E-002    -9.1608671937137842E-006
   8.2400000000000029E-002    -7.8673629104741849E-006
   8.3500000000000019E-002    -6.7353953454585280E-006
   8.4600000000000009E-002    -5.7482975535094738E-006
   8.5700000000000026E-002    -4.8903521019383334E-006
   8.6800000000000016E-002    -4.1470921132713556E-006
   8.7900000000000006E-002    -3.5055445550824516E-006
   8.9000000000000024E-002    -2.9540879040723667E-006
   9.0100000000000013E-002    -2.4820255930535495E-006
   9.1200000000000003E-002    -2.0792981558770407E-006
   9.2300000000000021E-002    -1.7366248812322738E-006
   9.3400000000000011E-002    -1.4458826171903638E-006
   9.4500000000000028E-002    -1.2002341236438951E-006
   9.5600000000000018E-002    -9.9376984508126043E-007
   9.6700000000000008E-002    -8.2097113818235812E-007
   9.7800000000000026E-002    -6.7653212454388267E-007
   9.8900000000000016E-002    -5.5570944823557511E-007
  0.10000000000000001         -4.5478239485419181E-007
  0.10110000000000002         -3.7105178307683673E-007
  0.10220000000000001         -3.0228341074689524E-007
  0.10330000000000003         -2.4611514959360647E-007
  0.10440000000000002         -2.0001682798920228E-007
  0.10550000000000001         -1.6181478201815480E-007
  0.10660000000000003         -1.3017559297168191E-007
  0.10770000000000002         -1.0446808573760791E-007
  0.10880000000000001         -8.4091311691736337E-008
  0.10990000000000003         -6.7956086979847896E-008
  0.11100000000000002         -5.4674657690156891E-008
  0.11210000000000001         -4.3261415783035773E-008
  0.11320000000000002         -3.3578182012661273E-008
  0.11430000000000001         -2.6004673969737269E-008
  0.11540000000000003         -2.0639438602643168E-008
  0.11650000000000002         -1.6860253637673850E-008
  0.11760000000000001         -1.3712892155126610E-008
  0.11870000000000003         -1.0714781950582619E-008
  0.11980000000000002         -8.1986017974600145E-009
  0.12090000000000001         -6.7967329542284460E-009
  0.12200000000000003         -6.5929510739692887E-009
  0.12310000000000001         -6.8509669048921751E-009
  0.12420000000000003         -6.6369407747401965E-009
  0.12530000000000002         -5.6963558314748752E-009
  0.12640000000000001         -4.6502277584181684E-009
  0.12750000000000003         -4.2805305966453489E-009
  0.12860000000000002         -4.6479211590622072E-009
  0.12970000000000001         -4.9834429916018053E-009
  0.13080000000000003         -4.4857175751644718E-009
  0.13190000000000002         -3.1830305058377917E-009
  0.13300000000000001         -1.9283117325130661E-009
  0.13410000000000000         -1.5046114354433371E-009
  0.13520000000000004         -1.7759496095948180E-009
  0.13630000000000003         -1.7965126053454128E-009
  0.13740000000000002         -7.9005324504777263E-010
  0.13850000000000001          1.0191755217547893E-009
  0.13960000000000000          2.6065545277731417E-009
  0.14070000000000005          3.1823381707596354E-009
  0.14180000000000004          2.9779476662383786E-009
  0.14290000000000003          2.9506697085679434E-009
  0.14400000000000002          3.7147396270142963E-009
  0.14510000000000001          4.8346326941839379E-009
  0.14620000000000000          5.2454054433326291E-009
  0.14730000000000004          4.3733652255184552E-009
  0.14840000000000003          2.7752704578887233E-009
  0.14950000000000002          1.6053220974754367E-009
  0.15060000000000001          1.4513421575657048E-009
  0.15170000000000000          1.7562478138444249E-009
  0.15280000000000005          1.4362172562343289E-009
  0.15390000000000004          5.0056115502572496E-011
  0.15500000000000003         -1.7106550620482608E-009
  0.15610000000000002         -2.7300588456569130E-009
  0.15720000000000001         -2.6305790878922153E-009
  0.15830000000000000         -2.1609727340887730E-009
  0.15940000000000004         -2.3935780024686437E-009
  0.16050000000000003         -3.5713763057998449E-009
  0.16160000000000002         -4.8210067049581085E-009
  0.16270000000000001         -5.0411905760938680E-009
  0.16380000000000000         -4.0389593891632103E-009
  0.16490000000000005         -2.7226954024683891E-009
  0.16600000000000004         -2.1514392489763168E-009
  0.16710000000000003         -2.4424213762586078E-009
  0.16820000000000002         -2.6862527757742782E-009
  0.16930000000000001         -1.9556858354974338E-009
  0.17040000000000000         -3.3985206315811922E-010
  0.17150000000000004          1.0924114945964902E-009
  0.17260000000000003          1.3692039724233496E-009
  0.17370000000000002          6.0569255166953440E-010
  0.17480000000000001         -1.2944699478989463E-010
  0.17590000000000000          7.0380840044848014E-011
  0.17700000000000005          1.0211297363227345E-009
  0.17810000000000004          1.6730752339100263E-009
  0.17920000000000003          1.2409426819459668E-009
  0.18030000000000002          4.3856144410492348E-011
  0.18140000000000001         -8.2657874989067182E-010
  0.18250000000000000         -6.5392269377184675E-010
  0.18360000000000004          1.5241947981525783E-010
  0.18470000000000003          4.9387627321095806E-010
  0.18580000000000002         -2.5346114096436168E-010
  0.18690000000000001         -1.5693657484661117E-009
  0.18800000000000000         -2.3122037617895330E-009
  0.18910000000000005         -1.8807124746444970E-009
  0.19020000000000004         -7.9951667508737501E-010
  0.19130000000000003         -1.2819063865965319E-010
  0.19240000000000002         -3.3025457368829336E-010
  0.19350000000000001         -7.9563633459400762E-010
  0.19460000000000005         -5.1117177157777860E-010
  0.19570000000000004          8.3635515180091602E-010
  0.19680000000000003          2.4884809768366267E-009
  0.19790000000000002          3.3631026852276591E-009
  0.19900000000000001          3.1360154473247803E-009
  0.20010000000000000          2.5291211347422404E-009
  0.20120000000000005          2.5188182650737190E-009
  0.20230000000000004          3.3066827054284431E-009
  0.20340000000000003          4.1282328666625290E-009
  0.20450000000000002          4.0823473490547713E-009
  0.20560000000000000          3.0931766037411990E-009
  0.20670000000000005          1.9907047121847654E-009
  0.20780000000000004          1.6340719888319200E-009
  0.20890000000000003          2.0075920925677337E-009
