 -0.12000000000000000          0.0000000000000000
 -0.11889999999999999          0.0000000000000000
 -0.11780000000000000          0.0000000000000000
 -0.11670000000000000         -3.2872535249417467E-010
 -0.11559999999999999         -1.2955777561884929E-009
 -0.11449999999999999         -1.2602727750277154E-009
 -0.11340000000000000          3.9882714908401340E-009
 -0.11230000000000000          1.4773950951507686E-008
 -0.11119999999999999          1.7351185377378897E-008
 -0.11009999999999999         -1.0401024042039353E-008
 -0.10900000000000000         -6.4991183990059653E-008
 -0.10790000000000000         -8.7704989937265054E-008
 -0.10679999999999999         -3.4077209942751097E-009
 -0.10569999999999999          1.6804304436845996E-007
 -0.10460000000000000          2.5066520947802928E-007
 -0.10349999999999999          5.0921435956752248E-008
 -0.10239999999999999         -3.5801542708213674E-007
 -0.10130000000000000         -5.3636870234186063E-007
 -0.10020000000000000         -5.3617132067529383E-008
  -9.9099999999999994E-002     8.7843386609165464E-007
  -9.7999999999999990E-002     1.2564381677293568E-006
  -9.6899999999999986E-002     1.4255411429076048E-007
  -9.5799999999999996E-002    -2.0306115402490832E-006
  -9.4699999999999993E-002    -3.1883328119874932E-006
  -9.3599999999999989E-002    -1.2931801620652550E-006
  -9.2499999999999999E-002     3.1465924621443264E-006
  -9.1399999999999995E-002     6.4349687818321399E-006
  -9.0299999999999991E-002     4.5210435928311199E-006
  -8.9200000000000002E-002    -2.5872936930682044E-006
  -8.8099999999999984E-002    -9.3232101789908484E-006
  -8.6999999999999994E-002    -8.7238086052821018E-006
  -8.5899999999999990E-002     5.2811924433626700E-007
  -8.4799999999999986E-002     1.1090680345660076E-005
  -8.3699999999999997E-002     1.2437938494258560E-005
  -8.2599999999999993E-002     1.1589251016630442E-006
  -8.1499999999999989E-002    -1.3799474800180178E-005
  -8.0399999999999999E-002    -1.7741169358487241E-005
  -7.9299999999999995E-002    -4.2777769522217568E-006
  -7.8199999999999992E-002     1.6456468074466102E-005
  -7.7100000000000002E-002     2.5168699721689336E-005
  -7.5999999999999984E-002     1.1471639481897000E-005
  -7.4899999999999994E-002    -1.4293917047325522E-005
  -7.3799999999999991E-002    -2.8635035050683655E-005
  -7.2699999999999987E-002    -1.6847856386448257E-005
  -7.1599999999999997E-002     1.1283504136372358E-005
  -7.0499999999999993E-002     2.8846356144640595E-005
  -6.9399999999999989E-002     1.7286743968725204E-005
  -6.8300000000000000E-002    -1.4095926417212468E-005
  -6.7199999999999996E-002    -3.5100729292025790E-005
  -6.6099999999999992E-002    -2.3319647880271077E-005
  -6.5000000000000002E-002     1.2797013368981425E-005
  -6.3899999999999985E-002     4.0323251596419141E-005
  -6.2799999999999995E-002     3.3175849239341915E-005
  -6.1699999999999991E-002    -1.8911006236521644E-006
  -6.0599999999999994E-002    -3.1215986382449046E-005
  -5.9499999999999990E-002    -2.7435096853878349E-005
  -5.8399999999999994E-002     2.8744111659761984E-006
  -5.7299999999999990E-002     2.5673314667074010E-005
  -5.6199999999999986E-002     1.4557232134393416E-005
  -5.5099999999999996E-002    -2.0964776922482997E-005
  -5.3999999999999992E-002    -4.3832773371832445E-005
  -5.2899999999999989E-002    -2.7263733500149101E-005
  -5.1799999999999985E-002     1.6276742826448753E-005
  -5.0699999999999995E-002     4.5690743718296289E-005
  -4.9599999999999991E-002     3.2094852940645069E-005
  -4.8499999999999988E-002    -1.1429596270318143E-005
  -4.7399999999999998E-002    -4.2511954234214500E-005
  -4.6299999999999994E-002    -3.2762065529823303E-005
  -4.5199999999999990E-002     2.5617573555791751E-006
  -4.4099999999999986E-002     1.9935156160499901E-005
  -4.2999999999999997E-002    -6.6624315877561457E-006
  -4.1899999999999993E-002    -5.6604661949677393E-005
  -4.0799999999999989E-002    -8.1412479630671442E-005
  -3.9699999999999985E-002    -5.3915886383038014E-005
  -3.8599999999999995E-002     1.9220738067815546E-006
  -3.7499999999999992E-002     3.1827825296204537E-005
  -3.6399999999999988E-002     2.9779464512103004E-006
  -3.5299999999999984E-002    -6.4684216340538114E-005
  -3.4199999999999994E-002    -1.1864088446600363E-004
  -3.3099999999999991E-002    -1.2485739716794342E-004
  -3.1999999999999987E-002    -9.8740900284610689E-005
  -3.0899999999999997E-002    -8.6582062067463994E-005
  -2.9799999999999993E-002    -1.1845414701383561E-004
  -2.8699999999999989E-002    -1.8084672046825290E-004
  -2.7599999999999986E-002    -2.3465974663849920E-004
  -2.6499999999999996E-002    -2.5694462237879634E-004
  -2.5399999999999992E-002    -2.6250333758071065E-004
  -2.4299999999999988E-002    -2.8553869924508035E-004
  -2.3199999999999985E-002    -3.4410911030136049E-004
  -2.2099999999999995E-002    -4.2558374116197228E-004
  -2.0999999999999991E-002    -5.0536647904664278E-004
  -1.9899999999999987E-002    -5.7459686649963260E-004
  -1.8799999999999983E-002    -6.4574735006317496E-004
  -1.7699999999999994E-002    -7.3322979733347893E-004
  -1.6599999999999990E-002    -8.3526654634624720E-004
  -1.5499999999999986E-002    -9.3973893672227859E-004
  -1.4399999999999996E-002    -1.0455992305651307E-003
  -1.3299999999999992E-002    -1.1705539654940367E-003
  -1.2199999999999989E-002    -1.3315615942701697E-003
  -1.1099999999999985E-002    -1.5195437008515000E-003
  -9.9999999999999950E-003    -1.7016055062413216E-003
  -8.8999999999999913E-003    -1.8549327505752444E-003
  -7.7999999999999875E-003    -1.9973160233348608E-003
  -6.6999999999999837E-003    -2.1757127251476049E-003
  -5.5999999999999939E-003    -2.4179231841117144E-003
  -4.4999999999999901E-003    -2.6963371783494949E-003
  -3.3999999999999864E-003    -2.9471251182258129E-003
  -2.2999999999999826E-003    -3.1322559807449579E-003
  -1.1999999999999927E-003    -3.2810894772410393E-003
  -9.9999999999988987E-005    -3.4638731740415096E-003
   1.0000000000000148E-003    -3.7179638165980577E-003
   2.1000000000000185E-003    -4.0012807585299015E-003
   3.2000000000000084E-003    -4.2257825843989849E-003
   4.3000000000000121E-003    -4.3413080275058746E-003
   5.4000000000000159E-003    -4.3839821591973305E-003
   6.5000000000000058E-003    -4.4355699792504311E-003
   7.6000000000000234E-003    -4.5310216955840588E-003
   8.7000000000000133E-003    -4.6105463989078999E-003
   9.8000000000000032E-003    -4.5701870694756508E-003
   1.0900000000000021E-002    -4.3631470762193203E-003
   1.2000000000000011E-002    -4.0466012433171272E-003
   1.3100000000000001E-002    -3.7191438023000956E-003
   1.4200000000000018E-002    -3.4103619400411844E-003
   1.5300000000000008E-002    -3.0341774690896273E-003
   1.6400000000000026E-002    -2.4629083927720785E-003
   1.7500000000000016E-002    -1.6485819360241294E-003
   1.8600000000000005E-002    -6.6790718119591475E-004
   1.9700000000000023E-002     3.5953047336079180E-004
   2.0800000000000013E-002     1.3986108824610710E-003
   2.1900000000000003E-002     2.5414964184165001E-003
   2.3000000000000020E-002     3.9157802239060402E-003
   2.4100000000000010E-002     5.5530085228383541E-003
   2.5200000000000000E-002     7.3505272157490253E-003
   2.6300000000000018E-002     9.1728540137410164E-003
   2.7400000000000008E-002     1.0987842455506325E-002
   2.8500000000000025E-002     1.2899788096547127E-002
   2.9600000000000015E-002     1.5037579461932182E-002
   3.0700000000000005E-002     1.7409363761544228E-002
   3.1800000000000023E-002     1.9873812794685364E-002
   3.2900000000000013E-002     2.2260362282395363E-002
   3.4000000000000002E-002     2.4518901482224464E-002
   3.5100000000000020E-002     2.6746146380901337E-002
   3.6200000000000010E-002     2.9060821980237961E-002
   3.7300000000000028E-002     3.1453609466552734E-002
   3.8400000000000017E-002     3.3763192594051361E-002
   3.9500000000000007E-002     3.5804942250251770E-002
   4.0600000000000025E-002     3.7520237267017365E-002
   4.1700000000000015E-002     3.8996040821075439E-002
   4.2800000000000005E-002     4.0334284305572510E-002
   4.3900000000000022E-002     4.1505649685859680E-002
   4.5000000000000012E-002     4.2335636913776398E-002
   4.6100000000000002E-002     4.2639043182134628E-002
   4.7200000000000020E-002     4.2363803833723068E-002
   4.8300000000000010E-002     4.1600883007049561E-002
   4.9400000000000027E-002     4.0450341999530792E-002
   5.0500000000000017E-002     3.8880348205566406E-002
   5.1600000000000007E-002     3.6721553653478622E-002
   5.2700000000000025E-002     3.3802237361669540E-002
   5.3800000000000014E-002     3.0090229585766792E-002
   5.4900000000000004E-002     2.5700300931930542E-002
   5.6000000000000022E-002     2.0765377208590508E-002
   5.7100000000000012E-002     1.5300634317100048E-002
   5.8200000000000002E-002     9.1915205121040344E-003
   5.9300000000000019E-002     2.3168977349996567E-003
   6.0400000000000009E-002    -5.3219175897538662E-003
   6.1500000000000027E-002    -1.3580785132944584E-002
   6.2600000000000017E-002    -2.2282665595412254E-002
   6.3700000000000007E-002    -3.1341299414634705E-002
   6.4800000000000024E-002    -4.0782213211059570E-002
   6.5900000000000014E-002    -5.0635538995265961E-002
   6.7000000000000004E-002    -6.0831431299448013E-002
   6.8100000000000022E-002    -7.1165040135383606E-002
   6.9200000000000012E-002    -8.1401653587818146E-002
   7.0300000000000029E-002    -9.1369144618511200E-002
   7.1400000000000019E-002   -0.10098811239004135
   7.2500000000000009E-002   -0.11021929234266281
   7.3600000000000027E-002   -0.11895436048507690
   7.4700000000000016E-002   -0.12697479128837585
   7.5800000000000006E-002   -0.13399852812290192
   7.6900000000000024E-002   -0.13978563249111176
   7.8000000000000014E-002   -0.14420531690120697
   7.9100000000000004E-002   -0.14721065759658813
   8.0200000000000021E-002   -0.14875316619873047
   8.1300000000000011E-002   -0.14870370924472809
   8.2400000000000029E-002   -0.14685265719890594
   8.3500000000000019E-002   -0.14299568533897400
   8.4600000000000009E-002   -0.13704280555248260
   8.5700000000000026E-002   -0.12904372811317444
   8.6800000000000016E-002   -0.11911509186029434
   8.7900000000000006E-002   -0.10732816904783249
   8.9000000000000024E-002    -9.3661099672317505E-002
   9.0100000000000013E-002    -7.8069202601909637E-002
   9.1200000000000003E-002    -6.0625366866588593E-002
   9.2300000000000021E-002    -4.1592009365558624E-002
   9.3400000000000011E-002    -2.1349823102355003E-002
   9.4500000000000028E-002    -2.2977427579462528E-004
   9.5600000000000018E-002     2.1588105708360672E-002
   9.6700000000000008E-002     4.4009167701005936E-002
   9.7800000000000026E-002     6.6840790212154388E-002
   9.8900000000000016E-002     8.9670158922672272E-002
  0.10000000000000001         0.11193091422319412
  0.10110000000000002         0.13312266767024994
  0.10220000000000001         0.15297879278659821
  0.10330000000000003         0.17140969634056091
  0.10440000000000002         0.18826867640018463
  0.10550000000000001         0.20316947996616364
  0.10660000000000003         0.21558310091495514
  0.10770000000000002         0.22508245706558228
  0.10880000000000001         0.23156721889972687
  0.10990000000000003         0.23518677055835724
  0.11100000000000002         0.23606222867965698
  0.11210000000000001         0.23406197130680084
  0.11320000000000002         0.22887714207172394
  0.11430000000000001         0.22035595774650574
  0.11540000000000003         0.20873354375362396
  0.11650000000000002         0.19453522562980652
  0.11760000000000001         0.17821659147739410
  0.11870000000000003         0.15991716086864471
  0.11980000000000002         0.13956233859062195
  0.12090000000000001         0.11723965406417847
  0.12200000000000003          9.3453459441661835E-002
  0.12310000000000001          6.8976290524005890E-002
  0.12420000000000003          4.4452510774135590E-002
  0.12530000000000002          2.0118949934840202E-002
  0.12640000000000001         -4.0502599440515041E-003
  0.12750000000000003         -2.7930956333875656E-002
  0.12860000000000002         -5.0991892814636230E-002
  0.12970000000000001         -7.2478175163269043E-002
  0.13080000000000003         -9.1858409345149994E-002
  0.13190000000000002        -0.10908728092908859
  0.13300000000000001        -0.12440640479326248
  0.13410000000000000        -0.13789115846157074
  0.13520000000000004        -0.14919802546501160
  0.13630000000000003        -0.15779151022434235
  0.13740000000000002        -0.16342578828334808
  0.13850000000000001        -0.16637499630451202
  0.13960000000000000        -0.16718022525310516
  0.14070000000000005        -0.16615539789199829
  0.14180000000000004        -0.16316804289817810
  0.14290000000000003        -0.15792034566402435
  0.14400000000000002        -0.15042139589786530
  0.14510000000000001        -0.14119292795658112
  0.14620000000000000        -0.13094384968280792
  0.14730000000000004        -0.12008165568113327
  0.14840000000000003        -0.10853434354066849
  0.14950000000000002         -9.6080213785171509E-002
  0.15060000000000001         -8.2836441695690155E-002
  0.15170000000000000         -6.9380216300487518E-002
  0.15280000000000005         -5.6390572339296341E-002
  0.15390000000000004         -4.4149849563837051E-002
  0.15500000000000003         -3.2450977712869644E-002
  0.15610000000000002         -2.0996177569031715E-002
  0.15720000000000001         -9.8621658980846405E-003
  0.15830000000000000          4.4803234050050378E-004
  0.15940000000000004          9.4295125454664230E-003
  0.16050000000000003          1.7026921734213829E-002
  0.16160000000000002          2.3632997646927834E-002
  0.16270000000000001          2.9636360704898834E-002
  0.16380000000000000          3.4994605928659439E-002
  0.16490000000000005          3.9284657686948776E-002
  0.16600000000000004          4.2181041091680527E-002
  0.16710000000000003          4.3849162757396698E-002
  0.16820000000000002          4.4832576066255569E-002
  0.16930000000000001          4.5547187328338623E-002
  0.17040000000000000          4.5910649001598358E-002
  0.17150000000000004          4.5506846159696579E-002
  0.17260000000000003          4.4111222028732300E-002
  0.17370000000000002          4.2020007967948914E-002
  0.17480000000000001          3.9825215935707092E-002
  0.17590000000000000          3.7867046892642975E-002
  0.17700000000000005          3.5942398011684418E-002
  0.17810000000000004          3.3584311604499817E-002
  0.17920000000000003          3.0623570084571838E-002
  0.18030000000000002          2.7435537427663803E-002
  0.18140000000000001          2.4601945653557777E-002
  0.18250000000000000          2.2339064627885818E-002
  0.18360000000000004          2.0298307761549950E-002
  0.18470000000000003          1.7960600554943085E-002
  0.18580000000000002          1.5215500257909298E-002
  0.18690000000000001          1.2511916458606720E-002
  0.18800000000000000          1.0410339571535587E-002
  0.18910000000000005          9.0023567900061607E-003
  0.19020000000000004          7.8121870756149292E-003
  0.19130000000000003          6.2930006533861160E-003
  0.19240000000000002          4.4036526232957840E-003
  0.19350000000000001          2.6542884297668934E-003
  0.19460000000000005          1.5684242825955153E-003
  0.19570000000000004          1.1228532530367374E-003
  0.19680000000000003          7.6111103408038616E-004
  0.19790000000000002         -2.7970374503638595E-005
  0.19900000000000001         -1.1716162553057075E-003
  0.20010000000000000         -2.0884328987449408E-003
  0.20120000000000005         -2.3062415421009064E-003
  0.20230000000000004         -1.9750485662370920E-003
  0.20340000000000003         -1.7285995418205857E-003
  0.20450000000000002         -2.0311258267611265E-003
  0.20560000000000000         -2.6949625462293625E-003
  0.20670000000000005         -3.0815172940492630E-003
  0.20780000000000004         -2.7824698481708765E-003
  0.20890000000000003         -2.0656259730458260E-003
