 -0.12000000000000000          0.0000000000000000
 -0.11889999999999999          0.0000000000000000
 -0.11780000000000000          0.0000000000000000
 -0.11670000000000000          0.0000000000000000
 -0.11559999999999999          0.0000000000000000
 -0.11449999999999999          1.0142388040533143E-009
 -0.11340000000000000          1.0891023194402901E-008
 -0.11230000000000000          4.4430773726843716E-008
 -0.11119999999999999          7.9140150432980817E-008
 -0.11009999999999999         -2.4377813545567348E-008
 -0.10900000000000000         -4.6318331214931147E-007
 -0.10790000000000000         -1.0982312232954337E-006
 -0.10679999999999999         -1.0127637324331591E-006
 -0.10569999999999999          1.0459374379932215E-006
 -0.10460000000000000          4.8478582357345080E-006
 -0.10349999999999999          7.0541586865146636E-006
 -0.10239999999999999          2.9125885703255937E-006
 -0.10130000000000000         -8.0384988905270698E-006
 -0.10020000000000000         -1.7665401173871010E-005
  -9.9099999999999994E-002    -1.4330662452266480E-005
  -9.7999999999999990E-002     2.9943639674442501E-006
  -9.6899999999999986E-002     1.6667856471028472E-005
  -9.5799999999999996E-002     5.7459069466840298E-006
  -9.4699999999999993E-002    -2.1335008568711612E-005
  -9.3599999999999989E-002    -1.5200806046773854E-005
  -9.2499999999999999E-002     6.8383480538618418E-005
  -9.1399999999999995E-002     1.8703439855016725E-004
  -9.0299999999999991E-002     1.8761337560135023E-004
  -8.9200000000000002E-002    -7.7890988904995965E-005
  -8.8099999999999984E-002    -5.4506532615051324E-004
  -8.6999999999999994E-002    -8.4193790098650899E-004
  -8.5899999999999990E-002    -5.0184514839198512E-004
  -8.4799999999999986E-002     5.7453534100209065E-004
  -8.3699999999999997E-002     1.7919600941240967E-003
  -8.2599999999999993E-002     2.0989147014915575E-003
  -8.1499999999999989E-002     8.0625753616904786E-004
  -8.0399999999999999E-002    -1.6112609300763545E-003
  -7.9299999999999995E-002    -3.5431499127299279E-003
  -7.8199999999999992E-002    -3.3532802481203976E-003
  -7.7100000000000002E-002    -8.1870052963481713E-004
  -7.5999999999999984E-002     2.3960846010597520E-003
  -7.4899999999999994E-002     3.9058092515917436E-003
  -7.3799999999999991E-002     2.6384189259261825E-003
  -7.2699999999999987E-002    -5.2973984566086661E-005
  -7.1599999999999997E-002    -1.4433400938289106E-003
  -7.0499999999999993E-002    -2.1659425926361518E-007
  -6.9399999999999989E-002     2.8166191186752374E-003
  -6.8300000000000000E-002     3.4658000804480859E-003
  -6.7199999999999996E-002    -4.3278929661038284E-004
  -6.6099999999999992E-002    -7.2771105915305752E-003
  -6.5000000000000002E-002    -1.1936369352042127E-002
  -6.3899999999999985E-002    -9.6772955730550607E-003
  -6.2799999999999995E-002    -4.9100001342544555E-004
  -6.1699999999999991E-002     1.0100979357957894E-002
  -6.0599999999999994E-002     1.4981563203036367E-002
  -5.9499999999999990E-002     1.1176177300512154E-002
  -5.8399999999999994E-002     2.5285787414754558E-003
  -5.7299999999999990E-002    -3.2718549482525471E-003
  -5.6199999999999986E-002    -1.1277020676059813E-003
  -5.5099999999999996E-002     6.9058309309185488E-003
  -5.3999999999999992E-002     1.2928159907459906E-002
  -5.2899999999999989E-002     9.4810128211967916E-003
  -5.1799999999999985E-002    -4.3461956083781957E-003
  -5.0699999999999995E-002    -2.2118398919701771E-002
  -4.9599999999999991E-002    -3.5304125398396696E-002
  -4.8499999999999988E-002    -4.0268849581478382E-002
  -4.7399999999999998E-002    -4.1246071457860786E-002
  -4.6299999999999994E-002    -4.6831384301183707E-002
  -4.5199999999999990E-002    -6.2854565680025676E-002
  -4.4099999999999986E-002    -8.7445460259913677E-002
  -4.2999999999999997E-002   -0.11237465590238527
  -4.1899999999999993E-002   -0.12977074086666049
  -4.0799999999999989E-002   -0.13904260098934076
  -3.9699999999999985E-002   -0.14859351515769814
  -3.8599999999999995E-002   -0.17088234424590867
  -3.7499999999999992E-002   -0.21454280614852628
  -3.6399999999999988E-002   -0.27964240312575878
  -3.5299999999999984E-002   -0.35981753468512856
  -3.4199999999999994E-002   -0.44959101080893565
  -3.3099999999999991E-002   -0.55087995529173661
  -3.1999999999999987E-002   -0.67314273118971490
  -3.0899999999999997E-002   -0.82684689760206831
  -2.9799999999999993E-002    -1.0158751010894649
  -2.8699999999999989E-002    -1.2359913587570057
  -2.7599999999999986E-002    -1.4816780090331869
  -2.6499999999999996E-002    -1.7562000751495137
  -2.5399999999999992E-002    -2.0761694908141788
  -2.4299999999999988E-002    -2.4659006595611173
  -2.3199999999999985E-002    -2.9455728530883296
  -2.2099999999999995E-002    -3.5229845046996484
  -2.0999999999999991E-002    -4.1959633827208807
  -1.9899999999999987E-002    -4.9632863998412322
  -1.8799999999999983E-002    -5.8345475196837508
  -1.7699999999999994E-002    -6.8307185173033655
  -1.6599999999999990E-002    -7.9759931564329873
  -1.5499999999999986E-002    -9.2895612716673419
  -1.4399999999999996E-002    -10.785126686096028
  -1.3299999999999992E-002    -12.477498054504203
  -1.2199999999999989E-002    -14.388091087341085
  -1.1099999999999985E-002    -16.542619705199936
  -9.9999999999999950E-003    -18.962978363036807
  -8.8999999999999913E-003    -21.662439346313136
  -7.7999999999999875E-003    -24.650094985961530
  -6.6999999999999837E-003    -27.940389633178274
  -5.5999999999999939E-003    -31.556989669799307
  -4.4999999999999901E-003    -35.525260925292407
  -3.3999999999999864E-003    -39.859626770018899
  -2.2999999999999826E-003    -44.558544158934836
  -1.1999999999999927E-003    -49.612503051757024
  -9.9999999999988987E-005    -55.016521453856541
   1.0000000000000148E-003    -60.772220611571285
   2.1000000000000185E-003    -66.874702453612187
   3.2000000000000084E-003    -73.296333312987088
   4.3000000000000121E-003    -79.984527587889332
   5.4000000000000159E-003    -86.878067016600141
   6.5000000000000058E-003    -93.925254821775795
   7.6000000000000234E-003    -101.08368682861162
   8.7000000000000133E-003    -108.29703521728337
   9.8000000000000032E-003    -115.47016906738088
   1.0900000000000021E-002    -122.46895599365030
   1.2000000000000011E-002    -129.14797973632594
   1.3100000000000001E-002    -135.38098144531020
   1.4200000000000018E-002    -141.06159973144293
   1.5300000000000008E-002    -146.07128906249750
   1.6400000000000026E-002    -150.24397277831773
   1.7500000000000016E-002    -153.36495971679423
   1.8600000000000005E-002    -155.21385192870824
   1.9700000000000023E-002    -155.60993957519258
   2.0800000000000013E-002    -154.42118835448946
   2.1900000000000003E-002    -151.52365112304417
   2.3000000000000020E-002    -146.75424194335670
   2.4100000000000010E-002    -139.90686035155994
   2.5200000000000000E-002    -130.78318786620849
   2.6300000000000018E-002    -119.25424957275165
   2.7400000000000008E-002    -105.27390289306435
   2.8500000000000025E-002    -88.830558776853664
   2.9600000000000015E-002    -69.888061523435979
   3.0700000000000005E-002    -48.376163482664843
   3.1800000000000023E-002    -24.250593185424016
   3.2900000000000013E-002     2.4291756153110224
   3.4000000000000002E-002     31.477834701537965
   3.5100000000000020E-002     62.640579223632173
   3.6200000000000010E-002     95.672035217283963
   3.7300000000000028E-002     130.35604858398261
   3.8400000000000017E-002     166.44955444335699
   3.9500000000000007E-002     203.60154724120792
   4.0600000000000025E-002     241.33361816405883
   4.1700000000000015E-002     279.10925292968312
   4.2800000000000005E-002     316.42800903319807
   4.3900000000000022E-002     352.85983276366619
   4.5000000000000012E-002     387.98205566405619
   4.6100000000000002E-002     421.28936767577426
   4.7200000000000020E-002     452.16470336913312
   4.8300000000000010E-002     479.95498657225761
   4.9400000000000027E-002     504.08331298827272
   5.0500000000000017E-002     524.10064697264727
   5.1600000000000007E-002     539.63653564452204
   5.2700000000000025E-002     550.31115722655295
   5.3800000000000014E-002     555.70629882811522
   5.4900000000000004E-002     555.43713378905261
   5.6000000000000022E-002     549.25927734374022
   5.7100000000000012E-002     537.11059570311534
   5.8200000000000002E-002     519.04980468749056
   5.9300000000000019E-002     495.15344238280346
   6.0400000000000009E-002     465.48245239256948
   6.1500000000000027E-002     430.14776611327318
   6.2600000000000017E-002     389.41604614257068
   6.3700000000000007E-002     343.74581909179017
   6.4800000000000024E-002     293.71942138671290
   6.5900000000000014E-002     239.93214416503409
   6.7000000000000004E-002     182.95166015624596
   6.8100000000000022E-002     123.37242126464542
   6.9200000000000012E-002     61.907310485837883
   7.0300000000000029E-002   -0.59929776191798800
   7.1400000000000019E-002    -63.258586883544695
   7.2500000000000009E-002    -125.25233459472523
   7.3600000000000027E-002    -185.87472534179443
   7.4700000000000016E-002    -244.46476745605119
   7.5800000000000006E-002    -300.31671142577676
   7.6900000000000024E-002    -352.66561889647886
   7.8000000000000014E-002    -400.77798461913420
   7.9100000000000004E-002    -444.07189941405522
   8.0200000000000021E-002    -482.13967895507011
   8.1300000000000011E-002    -514.67663574217897
   8.2400000000000029E-002    -541.37200927733454
   8.3500000000000019E-002    -561.89990234374045
   8.4600000000000009E-002    -576.01300048827136
   8.5700000000000026E-002    -583.65789794920852
   8.6800000000000016E-002    -584.98590087889602
   8.7900000000000006E-002    -580.26397705077090
   8.9000000000000024E-002    -569.74108886717727
   9.0100000000000013E-002    -553.62835693358386
   9.1200000000000003E-002    -532.18731689452159
   9.2300000000000021E-002    -505.83813476561573
   9.3400000000000011E-002    -475.17028808592875
   9.4500000000000028E-002    -440.83993530272613
   9.5600000000000018E-002    -403.43823242186738
   9.6700000000000008E-002    -363.45663452147744
   9.7800000000000026E-002    -321.37573242186880
   9.8900000000000016E-002    -277.77392578124449
  0.10000000000000001         -233.35021972655781
  0.10110000000000002         -188.81893920898045
  0.10220000000000001         -144.77868652343435
  0.10330000000000003         -101.67108917236089
  0.10440000000000002         -59.860492706297208
  0.10550000000000001         -19.752229690550873
  0.10660000000000003          18.177055358886911
  0.10770000000000002          53.457946777343288
  0.10880000000000001          85.749427795409090
  0.10990000000000003          114.88259124755697
  0.11100000000000002          140.78619384765415
  0.11210000000000001          163.38111877441150
  0.11320000000000002          182.53588867187207
  0.11430000000000001          198.12242126464520
  0.11540000000000003          210.11320495605122
  0.11650000000000002          218.63923645019162
  0.11760000000000001          223.91812133788679
  0.11870000000000003          226.15966796874608
  0.11980000000000002          225.52606201171480
  0.12090000000000001          222.16763305663670
  0.12200000000000003          216.28585815429304
  0.12310000000000001          208.19461059569940
  0.12420000000000003          198.24865722655892
  0.12530000000000002          186.79165649413719
  0.12640000000000001          174.10227966308273
  0.12750000000000003          160.41209411620798
  0.12860000000000002          145.97875976562224
  0.12970000000000001          131.09005737304437
  0.13080000000000003          116.06448364257588
  0.13190000000000002          101.17283630370895
  0.13300000000000001          86.633850097654516
  0.13410000000000000          72.619239807127428
  0.13520000000000004          59.288547515867897
  0.13630000000000003          46.806934356688444
  0.13740000000000002          35.325622558592947
  0.13850000000000001          24.944982528685909
  0.13960000000000000          15.707246780395074
  0.14070000000000005          7.6172723770138866
  0.14180000000000004         0.66958403587327908
  0.14290000000000003         -5.1406569480896174
  0.14400000000000002         -9.8308277130126207
  0.14510000000000001         -13.446965217590185
  0.14620000000000000         -16.068546295165806
  0.14730000000000004         -17.789756774902088
  0.14840000000000003         -18.703773498534868
  0.14950000000000002         -18.897216796874698
  0.15060000000000001         -18.457443237304386
  0.15170000000000000         -17.490814208984080
  0.15280000000000005         -16.119157791137415
  0.15390000000000004         -14.472776412963604
  0.15500000000000003         -12.658031463622809
  0.15610000000000002         -10.757615089416298
  0.15720000000000001         -8.8284072875974857
  0.15830000000000000         -6.9232945442198357
  0.15940000000000004         -5.0973687171934978
  0.16050000000000003         -3.4116368293761385
  0.16160000000000002         -1.9186950922011730
  0.16270000000000001        -0.65024834871288506
  0.16380000000000000         0.39260339736939714
  0.16490000000000005          1.2302578687667778
  0.16600000000000004          1.8699123859405333
  0.16710000000000003          2.3015899658202885
  0.16820000000000002          2.5003583431243617
  0.16930000000000001          2.4630172252654705
  0.17040000000000000          2.2197022438048966
  0.17150000000000004          1.8360168933868091
  0.17260000000000003          1.3763604164123311
  0.17370000000000002         0.87101376056670132
  0.17480000000000001         0.30977836251258889
  0.17590000000000000        -0.32570162415503712
  0.17700000000000005         -1.0183289051055773
  0.17810000000000004         -1.7101503610610735
  0.17920000000000003         -2.3384437561034805
  0.18030000000000002         -2.8773691654204838
  0.18140000000000001         -3.3592607975005517
  0.18250000000000000         -3.8360452651976886
  0.18360000000000004         -4.3206062316893821
  0.18470000000000003         -4.7671194076537304
  0.18580000000000002         -5.1008262634276491
  0.18690000000000001         -5.2813525199889240
  0.18800000000000000         -5.3362050056456640
  0.18910000000000005         -5.3338356018065562
  0.19020000000000004         -5.3203630447386887
  0.19130000000000003         -5.2805161476134428
  0.19240000000000002         -5.1582937240599716
  0.19350000000000001         -4.9171638488768652
  0.19460000000000005         -4.5830678939818501
  0.19570000000000004         -4.2270150184630602
  0.19680000000000003         -3.9052078723906796
  0.19790000000000002         -3.6126344203948331
  0.19900000000000001         -3.2950267791747425
  0.20010000000000000         -2.9044694900512131
  0.20120000000000005         -2.4484791755675812
  0.20230000000000004         -1.9853367805480611
  0.20340000000000003         -1.5736356973647785
  0.20450000000000002         -1.2260165214538283
  0.20560000000000000        -0.90723627805706719
  0.20670000000000005        -0.57822746038433992
  0.20780000000000004        -0.23767909407613602
  0.20890000000000003          7.3583677411089746E-002
