 -0.12000000000000000          0.0000000000000000
 -0.11889999999999999          0.0000000000000000
 -0.11780000000000000          0.0000000000000000
 -0.11670000000000000          0.0000000000000000
 -0.11559999999999999          0.0000000000000000
 -0.11449999999999999          0.0000000000000000
 -0.11340000000000000          0.0000000000000000
 -0.11230000000000000          0.0000000000000000
 -0.11119999999999999          0.0000000000000000
 -0.11009999999999999          0.0000000000000000
 -0.10900000000000000         -2.0132879079933449E-025
 -0.10790000000000000         -3.1544326956340065E-024
 -0.10679999999999999         -7.4440693660390683E-024
 -0.10569999999999999          6.1588781629530747E-023
 -0.10460000000000000          3.9469301076331242E-022
 -0.10349999999999999          4.9332069253736772E-022
 -0.10239999999999999         -3.0318677649093833E-021
 -0.10130000000000000         -1.4097781351409033E-020
 -0.10020000000000000         -1.5256241336941013E-020
  -9.9099999999999994E-002     6.2274305340751760E-020
  -9.7999999999999990E-002     2.6648861619375202E-019
  -9.6899999999999986E-002     3.0778263559513556E-019
  -9.5799999999999996E-002    -7.1287790037830638E-019
  -9.4699999999999993E-002    -3.3224724667394265E-018
  -9.3599999999999989E-002    -4.4791635782302499E-018
  -9.2499999999999999E-002     4.5849761085977269E-018
  -9.1399999999999995E-002     2.9686598977131905E-017
  -9.0299999999999991E-002     4.8445043566584843E-017
  -8.9200000000000002E-002    -6.8257417999645683E-018
  -8.8099999999999984E-002    -1.9341996027062968E-016
  -8.6999999999999994E-002    -3.9433597683600271E-016
  -8.5899999999999990E-002    -1.8812116038062319E-016
  -8.4799999999999986E-002     8.8457725912487357E-016
  -8.3699999999999997E-002     2.4317761109090511E-015
  -8.2599999999999993E-002     2.3390310853823888E-015
  -8.1499999999999989E-002    -2.3260054127195121E-015
  -8.0399999999999999E-002    -1.1282677910169885E-014
  -7.9299999999999995E-002    -1.6134342871606221E-014
  -7.8199999999999992E-002    -1.9394703975694847E-015
  -7.7100000000000002E-002     3.7695368338254778E-014
  -7.5999999999999984E-002     7.7710197489162108E-014
  -7.4899999999999994E-002     5.7192897878581561E-014
  -7.3799999999999991E-002    -7.5213035940439182E-014
  -7.2699999999999987E-002    -2.7272788519737412E-013
  -7.1599999999999997E-002    -3.3843853284101777E-013
  -7.0499999999999993E-002    -2.7589391139509409E-014
  -6.9399999999999989E-002     6.6991773456717696E-013
  -6.8300000000000000E-002     1.2663345849359131E-012
  -6.7199999999999996E-002     9.0718724849933596E-013
  -6.6099999999999992E-002    -8.9418549604688979E-013
  -6.5000000000000002E-002    -3.3094514542003628E-012
  -6.3899999999999985E-002    -4.0484048405287076E-012
  -6.2799999999999995E-002    -8.7343294489367063E-013
  -6.1699999999999991E-002     5.7326881956754061E-012
  -6.0599999999999994E-002     1.1065921616537633E-011
  -5.9499999999999990E-002     8.5087830878349813E-012
  -5.8399999999999994E-002    -4.3735640109510143E-012
  -5.7299999999999990E-002    -2.0463639463508265E-011
  -5.6199999999999986E-002    -2.5083187263352791E-011
  -5.5099999999999996E-002    -7.6060581444270525E-012
  -5.3999999999999992E-002     2.4828621797423622E-011
  -5.2899999999999989E-002     4.5907087159458015E-011
  -5.1799999999999985E-002     2.9483894492532414E-011
  -5.0699999999999995E-002    -2.1220577378633365E-011
  -4.9599999999999991E-002    -6.3078597900556588E-011
  -4.8499999999999988E-002    -4.3669252242084511E-011
  -4.7399999999999998E-002     4.0492324770990962E-011
  -4.6299999999999994E-002     1.1213648065666604E-010
  -4.5199999999999990E-002     6.1438167053839976E-011
  -4.4099999999999986E-002    -1.3617755534323095E-010
  -4.2999999999999997E-002    -3.3154043399541422E-010
  -4.1899999999999993E-002    -2.6529911600903233E-010
  -4.0799999999999989E-002     1.9784426874558392E-010
  -3.9699999999999985E-002     8.2918377719565228E-010
  -3.8599999999999995E-002     1.0548428797108045E-009
  -3.7499999999999992E-002     3.5954206278887568E-010
  -3.6399999999999988E-002    -1.1445374648033635E-009
  -3.5299999999999984E-002    -2.4879154292278827E-009
  -3.4199999999999994E-002    -2.3508259783255880E-009
  -3.3099999999999991E-002    -1.4310901075287319E-010
  -3.1999999999999987E-002     3.1437461522898502E-009
  -3.0899999999999997E-002     5.2114201842812236E-009
  -2.9799999999999993E-002     4.0093000031049542E-009
  -2.8699999999999989E-002    -4.3845557740063157E-010
  -2.7599999999999986E-002    -5.5171516244456598E-009
  -2.6499999999999996E-002    -7.6397581594278563E-009
  -2.5399999999999992E-002    -5.0504378457105759E-009
  -2.4299999999999988E-002     4.8715770306628770E-010
  -2.3199999999999985E-002     4.9063766383028451E-009
  -2.2099999999999995E-002     5.3594821913804935E-009
  -2.0999999999999991E-002     3.0324676103532511E-009
  -1.9899999999999987E-002     2.2134292176900772E-009
  -1.8799999999999983E-002     5.6386153524101701E-009
  -1.7699999999999994E-002     1.0082615631290537E-008
  -1.6599999999999990E-002     7.2241044257737030E-009
  -1.5499999999999986E-002    -8.9786968970884118E-009
  -1.4399999999999996E-002    -3.3538174903924300E-008
  -1.3299999999999992E-002    -4.8848718847693817E-008
  -1.2199999999999989E-002    -3.4934110715312272E-008
  -1.1099999999999985E-002     1.3443516522215759E-008
  -9.9999999999999950E-003     7.5837427004898927E-008
  -8.8999999999999913E-003     1.1292892310166280E-007
  -7.7999999999999875E-003     9.0623011317347846E-008
  -6.6999999999999837E-003     6.3804050931537404E-009
  -5.5999999999999939E-003    -1.0224307800399401E-007
  -4.4999999999999901E-003    -1.7625851000957482E-007
  -3.3999999999999864E-003    -1.7070864544166398E-007
  -2.2999999999999826E-003    -8.2751071772690921E-008
  -1.1999999999999927E-003     4.7584659768062920E-008
  -9.9999999999988987E-005     1.6363046029255202E-007
   1.0000000000000148E-003     2.2445846070695552E-007
   2.1000000000000185E-003     2.1907135305809788E-007
   3.2000000000000084E-003     1.5530949326603150E-007
   4.3000000000000121E-003     3.9972103849095220E-008
   5.4000000000000159E-003    -1.2474659172312386E-007
   6.5000000000000058E-003    -3.1953771895132377E-007
   7.6000000000000234E-003    -4.8078550207719672E-007
   8.7000000000000133E-003    -5.0328191036896897E-007
   9.8000000000000032E-003    -2.9235528131721367E-007
   1.0900000000000021E-002     1.5553796117728780E-007
   1.2000000000000011E-002     6.9967387616998167E-007
   1.3100000000000001E-002     1.0833771284524119E-006
   1.4200000000000018E-002     1.0519773923078901E-006
   1.5300000000000008E-002     5.0543519591883523E-007
   1.6400000000000026E-002    -4.0588798810858862E-007
   1.7500000000000016E-002    -1.3133917491359171E-006
   1.8600000000000005E-002    -1.7907260598803987E-006
   1.9700000000000023E-002    -1.5642904145352077E-006
   2.0800000000000013E-002    -6.5965019757641130E-007
   2.1900000000000003E-002     5.9772804661406553E-007
   2.3000000000000020E-002     1.7267941530008102E-006
   2.4100000000000010E-002     2.2992362573859282E-006
   2.5200000000000000E-002     2.1029045456089079E-006
   2.6300000000000018E-002     1.1914441984117730E-006
   2.7400000000000008E-002    -1.7239858607354108E-007
   2.8500000000000025E-002    -1.6159101505763829E-006
   2.9600000000000015E-002    -2.7371709165890934E-006
   3.0700000000000005E-002    -3.1599713565810816E-006
   3.1800000000000023E-002    -2.6057739432872040E-006
   3.2900000000000013E-002    -1.0181785228269291E-006
   3.4000000000000002E-002     1.2963445215063985E-006
   3.5100000000000020E-002     3.6254739370633615E-006
   3.6200000000000010E-002     5.0211360758112278E-006
   3.7300000000000028E-002     4.6868731260474306E-006
   3.8400000000000017E-002     2.4200739972002339E-006
   3.9500000000000007E-002    -1.1519668987602927E-006
   4.0600000000000025E-002    -4.7348016778414603E-006
   4.1700000000000015E-002    -6.9000329858681653E-006
   4.2800000000000005E-002    -6.7245719037600793E-006
   4.3900000000000022E-002    -4.1897324081219267E-006
   4.5000000000000012E-002    -1.3670403120613628E-007
   4.6100000000000002E-002     4.1510556911816821E-006
   4.7200000000000020E-002     7.4581162152753677E-006
   4.8300000000000010E-002     8.9617242338135839E-006
   4.9400000000000027E-002     8.2883716459036805E-006
   5.0500000000000017E-002     5.4379688663175330E-006
   5.1600000000000007E-002     7.6791036462964257E-007
   5.2700000000000025E-002    -4.9160821617988404E-006
   5.3800000000000014E-002    -1.0321283298253547E-005
   5.4900000000000004E-002    -1.3901046258979477E-005
   5.6000000000000022E-002    -1.4405657566385344E-005
   5.7100000000000012E-002    -1.1507881026773248E-005
   5.8200000000000002E-002    -6.0984766605542973E-006
   5.9300000000000019E-002     1.7341452718255823E-008
   6.0400000000000009E-002     4.9155146371049341E-006
   6.1500000000000027E-002     7.3805581450869795E-006
   6.2600000000000017E-002     7.2509101300965995E-006
   6.3700000000000007E-002     5.0867574827861972E-006
   6.4800000000000024E-002     1.4482588994724210E-006
   6.5900000000000014E-002    -3.6318840557214571E-006
   6.7000000000000004E-002    -1.0529065548325889E-005
   6.8100000000000022E-002    -1.9305918613099493E-005
   6.9200000000000012E-002    -2.8954909794265404E-005
   7.0300000000000029E-002    -3.7312758649932221E-005
   7.1400000000000019E-002    -4.1960047383327037E-005
   7.2500000000000009E-002    -4.1710827645147219E-005
   7.3600000000000027E-002    -3.7757647078251466E-005
   7.4700000000000016E-002    -3.3600579627091065E-005
   7.5800000000000006E-002    -3.3589953090995550E-005
   7.6900000000000024E-002    -4.0839760913513601E-005
   7.8000000000000014E-002    -5.5766515288269147E-005
   7.9100000000000004E-002    -7.6194381108507514E-005
   8.0200000000000021E-002    -9.8964228527620435E-005
   8.1300000000000011E-002    -1.2197442265460268E-004
   8.2400000000000029E-002    -1.4528018073178828E-004
   8.3500000000000019E-002    -1.7055116768460721E-004
   8.4600000000000009E-002    -1.9938162586186081E-004
   8.5700000000000026E-002    -2.3179230629466474E-004
   8.6800000000000016E-002    -2.6614166563376784E-004
   8.7900000000000006E-002    -3.0057950061745942E-004
   8.9000000000000024E-002    -3.3498479751870036E-004
   9.0100000000000013E-002    -3.7187919951975346E-004
   9.1200000000000003E-002    -4.1552382754161954E-004
   9.2300000000000021E-002    -4.6968870447017252E-004
   9.3400000000000011E-002    -5.3559429943561554E-004
   9.4500000000000028E-002    -6.1139627359807491E-004
   9.5600000000000018E-002    -6.9350434932857752E-004
   9.6700000000000008E-002    -7.7869452070444822E-004
   9.7800000000000026E-002    -8.6558290058746934E-004
   9.8900000000000016E-002    -9.5447286730632186E-004
  0.10000000000000001         -1.0459366021677852E-003
  0.10110000000000002         -1.1393439490348101E-003
  0.10220000000000001         -1.2325618881732225E-003
  0.10330000000000003         -1.3230503536760807E-003
  0.10440000000000002         -1.4095054939389229E-003
  0.10550000000000001         -1.4926004223525524E-003
  0.10660000000000003         -1.5741017414256930E-003
  0.10770000000000002         -1.6545888502150774E-003
  0.10880000000000001         -1.7313596326857805E-003
  0.10990000000000003         -1.7978823743760586E-003
  0.11100000000000002         -1.8453715601935983E-003
  0.11210000000000001         -1.8658061744645238E-003
  0.11320000000000002         -1.8544817576184869E-003
  0.11430000000000001         -1.8106438219547272E-003
  0.11540000000000003         -1.7356702592223883E-003
  0.11650000000000002         -1.6301112482324243E-003
  0.11760000000000001         -1.4912028564140201E-003
  0.11870000000000003         -1.3127289712429047E-003
  0.11980000000000002         -1.0867726523429155E-003
  0.12090000000000001         -8.0659013474360108E-004
  0.12200000000000003         -4.6862338786013424E-004
  0.12310000000000001         -7.2575690865051001E-005
  0.12420000000000003          3.8003592635504901E-004
  0.12530000000000002          8.8757183402776718E-004
  0.12640000000000001          1.4489908935502172E-003
  0.12750000000000003          2.0633277017623186E-003
  0.12860000000000002          2.7285190299153328E-003
  0.12970000000000001          3.4403251484036446E-003
  0.13080000000000003          4.1920361109077930E-003
  0.13190000000000002          4.9747438170015812E-003
  0.13300000000000001          5.7778880000114441E-003
  0.13410000000000000          6.5897079184651375E-003
  0.13520000000000004          7.3979496955871582E-003
  0.13630000000000003          8.1903077661991119E-003
  0.13740000000000002          8.9547252282500267E-003
  0.13850000000000001          9.6789812669157982E-003
  0.13960000000000000          1.0349215008318424E-002
  0.14070000000000005          1.0948698967695236E-002
  0.14180000000000004          1.1457409709692001E-002
  0.14290000000000003          1.1853424832224846E-002
  0.14400000000000002          1.2115662917494774E-002
  0.14510000000000001          1.2226337566971779E-002
  0.14620000000000000          1.2172448448836803E-002
  0.14730000000000004          1.1945113539695740E-002
  0.14840000000000003          1.1537625454366207E-002
  0.14950000000000002          1.0943870991468430E-002
  0.15060000000000001          1.0158381424844265E-002
  0.15170000000000000          9.1773346066474915E-003
  0.15280000000000005          8.0006998032331467E-003
  0.15390000000000004          6.6337371245026588E-003
  0.15500000000000003          5.0869132392108440E-003
  0.15610000000000002          3.3747754059731960E-003
  0.15720000000000001          1.5144314384087920E-003
  0.15830000000000000         -4.7525099944323301E-004
  0.15940000000000004         -2.5727099273353815E-003
  0.16050000000000003         -4.7518406063318253E-003
  0.16160000000000002         -6.9804373197257519E-003
  0.16270000000000001         -9.2208767309784889E-003
  0.16380000000000000         -1.1432914063334465E-002
  0.16490000000000005         -1.3577541336417198E-002
  0.16600000000000004         -1.5620136633515358E-002
  0.16710000000000003         -1.7530817538499832E-002
  0.16820000000000002         -1.9281646236777306E-002
  0.16930000000000001         -2.0843604579567909E-002
  0.17040000000000000         -2.2184113040566444E-002
  0.17150000000000004         -2.3270355537533760E-002
  0.17260000000000003         -2.4072544649243355E-002
  0.17370000000000002         -2.4568561464548111E-002
  0.17480000000000001         -2.4745201691985130E-002
  0.17590000000000000         -2.4596722796559334E-002
  0.17700000000000005         -2.4122642353177071E-002
  0.17810000000000004         -2.3326406255364418E-002
  0.17920000000000003         -2.2216340526938438E-002
  0.18030000000000002         -2.0806597545742989E-002
  0.18140000000000001         -1.9118342548608780E-002
  0.18250000000000000         -1.7178330570459366E-002
  0.18360000000000004         -1.5016561374068260E-002
  0.18470000000000003         -1.2664116919040680E-002
  0.18580000000000002         -1.0152837261557579E-002
  0.18690000000000001         -7.5177438557147980E-003
  0.18800000000000000         -4.7985753044486046E-003
  0.18910000000000005         -2.0402648951858282E-003
  0.19020000000000004          7.0866267196834087E-004
  0.19130000000000003          3.4003006294369698E-003
  0.19240000000000002          5.9913787990808487E-003
  0.19350000000000001          8.4458617493510246E-003
  0.19460000000000005          1.0734669864177704E-002
  0.19570000000000004          1.2832890264689922E-002
  0.19680000000000003          1.4716351404786110E-002
  0.19790000000000002          1.6359519213438034E-002
  0.19900000000000001          1.7737228423357010E-002
  0.20010000000000000          1.8829008564352989E-002
  0.20120000000000005          1.9624387845396996E-002
  0.20230000000000004          2.0125180482864380E-002
  0.20340000000000003          2.0343247801065445E-002
  0.20450000000000002          2.0295137539505959E-002
  0.20560000000000000          1.9996576011180878E-002
  0.20670000000000005          1.9460026174783707E-002
  0.20780000000000004          1.8696157261729240E-002
  0.20890000000000003          1.7718575894832611E-002
