 -0.12000000000000000          0.0000000000000000
 -0.11889999999999999          0.0000000000000000
 -0.11780000000000000          0.0000000000000000
 -0.11670000000000000          0.0000000000000000
 -0.11559999999999999          0.0000000000000000
 -0.11449999999999999          0.0000000000000000
 -0.11340000000000000          0.0000000000000000
 -0.11230000000000000          0.0000000000000000
 -0.11119999999999999          0.0000000000000000
 -0.11009999999999999          0.0000000000000000
 -0.10900000000000000          3.1687305628828658E-023
 -0.10790000000000000          5.5820767005719131E-022
 -0.10679999999999999          3.9200303294183222E-021
 -0.10569999999999999          1.3488550713360224E-020
 -0.10460000000000000          1.1822095202969849E-020
 -0.10349999999999999         -1.0308158065043613E-019
 -0.10239999999999999         -5.2837495455562384E-019
 -0.10130000000000000         -1.1244515403214159E-018
 -0.10020000000000000         -1.6642761479702398E-019
  -9.9099999999999994E-002     6.4518925590375522E-018
  -9.7999999999999990E-002     2.0722919134927574E-017
  -9.6899999999999986E-002     2.7746810809858302E-017
  -9.5799999999999996E-002    -1.9294047344803474E-017
  -9.4699999999999993E-002    -1.7248429689959837E-016
  -9.3599999999999989E-002    -3.7099325758711149E-016
  -9.2499999999999999E-002    -2.8037896990904692E-016
  -9.1399999999999995E-002     6.3997304338046725E-016
  -9.0299999999999991E-002     2.4647487742050561E-015
  -8.9200000000000002E-002     3.6395070273232809E-015
  -8.8099999999999984E-002     6.7358362836487311E-016
  -8.6999999999999994E-002    -9.1012199404487404E-015
  -8.5899999999999990E-002    -2.1348418502821834E-014
  -8.4799999999999986E-002    -2.0380334383009527E-014
  -8.3699999999999997E-002     1.2980181064378444E-014
  -8.2599999999999993E-002     7.6126550809657578E-014
  -8.1499999999999989E-002     1.1807423799543165E-013
  -8.0399999999999999E-002     5.1511495535640911E-014
  -7.9299999999999995E-002    -1.6546432193148553E-013
  -7.8199999999999992E-002    -4.1505918168573130E-013
  -7.7100000000000002E-002    -4.0208296219444717E-013
  -7.5999999999999984E-002     1.3449552344231563E-013
  -7.4899999999999994E-002     1.0341228741383990E-012
  -7.3799999999999991E-002     1.5066865940646657E-012
  -7.2699999999999987E-002     5.6151481034327766E-013
  -7.1599999999999997E-002    -1.9013670846113051E-012
  -7.0499999999999993E-002    -4.1743214787559602E-012
  -6.9399999999999989E-002    -3.3370994769604811E-012
  -6.8300000000000000E-002     2.1353420334019324E-012
  -6.7199999999999996E-002     9.4166141897944478E-012
  -6.6099999999999992E-002     1.1412853301306924E-011
  -6.5000000000000002E-002     2.0158076596832331E-012
  -6.3899999999999985E-002    -1.6158971730129146E-011
  -6.2799999999999995E-002    -2.9049802494074406E-011
  -6.1699999999999991E-002    -1.9801908376915200E-011
  -6.0599999999999994E-002     1.4368380617246768E-011
  -5.9499999999999990E-002     5.1735775385974847E-011
  -5.8399999999999994E-002     5.7358132132812045E-011
  -5.7299999999999990E-002     1.4247690700852633E-011
  -5.6199999999999986E-002    -5.1596425049149630E-011
  -5.5099999999999996E-002    -8.3989024068920060E-011
  -5.3999999999999992E-002    -4.9192736689684935E-011
  -5.2899999999999989E-002     1.7153523393376169E-011
  -5.1799999999999985E-002     3.0404120193727735E-011
  -5.0699999999999995E-002    -4.6643626461229104E-011
  -4.9599999999999991E-002    -1.1628059626289655E-010
  -4.8499999999999988E-002     7.6243135069264945E-012
  -4.7399999999999998E-002     3.9020034425796268E-010
  -4.6299999999999994E-002     7.6677220128829049E-010
  -4.5199999999999990E-002     6.0655219735750165E-010
  -4.4099999999999986E-002    -4.3720879694397752E-010
  -4.2999999999999997E-002    -1.9676380524913384E-009
  -4.1899999999999993E-002    -2.7513593625627664E-009
  -4.0799999999999989E-002    -1.4825073391122601E-009
  -3.9699999999999985E-002     1.9253818539510803E-009
  -3.8599999999999995E-002     5.5818958344389102E-009
  -3.7499999999999992E-002     6.4255507581378879E-009
  -3.6399999999999988E-002     2.5094928357560775E-009
  -3.5299999999999984E-002    -4.8151802545248756E-009
  -3.4199999999999994E-002    -1.0912470926882634E-008
  -3.3099999999999991E-002    -1.0803885786003775E-008
  -3.1999999999999987E-002    -3.2398146387890847E-009
  -3.0899999999999997E-002     7.4851866926906041E-009
  -2.9799999999999993E-002     1.4144113436032058E-008
  -2.8699999999999989E-002     1.2161920359687883E-008
  -2.7599999999999986E-002     3.5943112930425514E-009
  -2.6499999999999996E-002    -4.4807659804746436E-009
  -2.5399999999999992E-002    -6.4776148889222895E-009
  -2.4299999999999988E-002    -3.9883021329956136E-009
  -2.3199999999999985E-002    -4.5047894303706926E-009
  -2.2099999999999995E-002    -1.2912876989901179E-008
  -2.0999999999999991E-002    -2.3235081414441083E-008
  -1.9899999999999987E-002    -2.0172866044276816E-008
  -1.8799999999999983E-002     7.4003794203747475E-009
  -1.7699999999999994E-002     5.0877442703267661E-008
  -1.6599999999999990E-002     7.9906911309990392E-008
  -1.5499999999999986E-002     6.1340003298937518E-008
  -1.4399999999999996E-002    -1.1526426035857185E-008
  -1.3299999999999992E-002    -1.0318446896917521E-007
  -1.2199999999999989E-002    -1.5180150114701974E-007
  -1.1099999999999985E-002    -1.1133307253885505E-007
  -9.9999999999999950E-003     9.5573549074856601E-009
  -8.8999999999999913E-003     1.4415124383049260E-007
  -7.7999999999999875E-003     2.0796612432150141E-007
  -6.6999999999999837E-003     1.5627858829247998E-007
  -5.5999999999999939E-003     1.6212020170769392E-008
  -4.4999999999999901E-003    -1.3168845214295288E-007
  -3.3999999999999864E-003    -2.0841766001922224E-007
  -2.2999999999999826E-003    -1.8548108471350133E-007
  -1.1999999999999927E-003    -9.1906862564883340E-008
  -9.9999999999988987E-005     2.0152411295271122E-008
   1.0000000000000148E-003     1.1604840466361566E-007
   2.1000000000000185E-003     1.8853771166504885E-007
   3.2000000000000084E-003     2.3281559435872623E-007
   4.3000000000000121E-003     2.1952706674710498E-007
   5.4000000000000159E-003     1.0392195548547534E-007
   6.5000000000000058E-003    -1.2497312695813889E-007
   7.6000000000000234E-003    -3.9587888522873982E-007
   8.7000000000000133E-003    -5.6106529200405930E-007
   9.8000000000000032E-003    -4.7408528303094499E-007
   1.0900000000000021E-002    -9.7587317782199534E-008
   1.2000000000000011E-002     4.3559438722695631E-007
   1.3100000000000001E-002     8.6382419794972520E-007
   1.4200000000000018E-002     9.3071525952836964E-007
   1.5300000000000008E-002     5.3765512575409957E-007
   1.6400000000000026E-002    -1.7781023586849187E-007
   1.7500000000000016E-002    -8.9068447550744168E-007
   1.8600000000000005E-002    -1.2452326245693257E-006
   1.9700000000000023E-002    -1.0392260492153582E-006
   2.0800000000000013E-002    -3.3779747354856227E-007
   2.1900000000000003E-002     5.4647284741804469E-007
   2.3000000000000020E-002     1.2016949995086179E-006
   2.4100000000000010E-002     1.3184851468395209E-006
   2.5200000000000000E-002     8.3930837035950390E-007
   2.6300000000000018E-002    -2.2892098883176004E-008
   2.7400000000000008E-002    -8.9894086841013632E-007
   2.8500000000000025E-002    -1.4348649983730866E-006
   2.9600000000000015E-002    -1.4206204923539190E-006
   3.0700000000000005E-002    -8.2521296462800819E-007
   3.1800000000000023E-002     2.3110561642170069E-007
   3.2900000000000013E-002     1.4977590581111144E-006
   3.4000000000000002E-002     2.5837962311925367E-006
   3.5100000000000020E-002     2.9822190299455542E-006
   3.6200000000000010E-002     2.2263122900767485E-006
   3.7300000000000028E-002     1.8320400840821094E-007
   3.8400000000000017E-002    -2.6780046482599573E-006
   3.9500000000000007E-002    -5.2971013246860821E-006
   4.0600000000000025E-002    -6.4510018091823440E-006
   4.1700000000000015E-002    -5.4458409977087285E-006
   4.2800000000000005E-002    -2.6563291157799540E-006
   4.3900000000000022E-002     5.0375410864944570E-007
   4.5000000000000012E-002     2.2708948108629556E-006
   4.6100000000000002E-002     1.5199939298327081E-006
   4.7200000000000020E-002    -1.5585997061862145E-006
   4.8300000000000010E-002    -5.5434347814298235E-006
   4.9400000000000027E-002    -8.5980445874156430E-006
   5.0500000000000017E-002    -9.5215782494051382E-006
   5.1600000000000007E-002    -8.4031407823204063E-006
   5.2700000000000025E-002    -6.5276190071017481E-006
   5.3800000000000014E-002    -5.6557428251835518E-006
   5.4900000000000004E-002    -7.1471886258223094E-006
   5.6000000000000022E-002    -1.1414167602197267E-005
   5.7100000000000012E-002    -1.7925038264365867E-005
   5.8200000000000002E-002    -2.5640047169872560E-005
   5.9300000000000019E-002    -3.3557378628756851E-005
   6.0400000000000009E-002    -4.1070783481700346E-005
   6.1500000000000027E-002    -4.8022058763308451E-005
   6.2600000000000017E-002    -5.4548108892049640E-005
   6.3700000000000007E-002    -6.0947862948523834E-005
   6.4800000000000024E-002    -6.7745851993095130E-005
   6.5900000000000014E-002    -7.5909272709395736E-005
   6.7000000000000004E-002    -8.6970328993629664E-005
   6.8100000000000022E-002    -1.0272858344251290E-004
   6.9200000000000012E-002    -1.2447264452930540E-004
   7.0300000000000029E-002    -1.5207896649371833E-004
   7.1400000000000019E-002    -1.8367350276093930E-004
   7.2500000000000009E-002    -2.1634151926264167E-004
   7.3600000000000027E-002    -2.4773538461886346E-004
   7.4700000000000016E-002    -2.7768354630097747E-004
   7.5800000000000006E-002    -3.0870657064951956E-004
   7.6900000000000024E-002    -3.4490320831537247E-004
   7.8000000000000014E-002    -3.8976402720436454E-004
   7.9100000000000004E-002    -4.4425670057535172E-004
   8.0200000000000021E-002    -5.0645275041460991E-004
   8.1300000000000011E-002    -5.7292572455480695E-004
   8.2400000000000029E-002    -6.4095004927366972E-004
   8.3500000000000019E-002    -7.1006343932822347E-004
   8.4600000000000009E-002    -7.8195350943133235E-004
   8.5700000000000026E-002    -8.5884198779240251E-004
   8.6800000000000016E-002    -9.4156776322051883E-004
   8.7900000000000006E-002    -1.0285853641107678E-003
   8.9000000000000024E-002    -1.1165325995534658E-003
   9.0100000000000013E-002    -1.2020124122500420E-003
   9.1200000000000003E-002    -1.2833029031753540E-003
   9.2300000000000021E-002    -1.3611330650746822E-003
   9.3400000000000011E-002    -1.4374817255884409E-003
   9.4500000000000028E-002    -1.5134965069591999E-003
   9.5600000000000018E-002    -1.5872244257479906E-003
   9.6700000000000008E-002    -1.6529042040929198E-003
   9.7800000000000026E-002    -1.7025884008035064E-003
   9.8900000000000016E-002    -1.7292724223807454E-003
  0.10000000000000001         -1.7297306330874562E-003
  0.10110000000000002         -1.7053503543138504E-003
  0.10220000000000001         -1.6598567599430680E-003
  0.10330000000000003         -1.5951343812048435E-003
  0.10440000000000002         -1.5082024037837982E-003
  0.10550000000000001         -1.3909715926274657E-003
  0.10660000000000003         -1.2335678329691291E-003
  0.10770000000000002         -1.0288923513144255E-003
  0.10880000000000001         -7.7539979247376323E-004
  0.10990000000000003         -4.7712956438772380E-004
  0.11100000000000002         -1.3990642037242651E-004
  0.11210000000000001          2.3225048789754510E-004
  0.11320000000000002          6.3908472657203674E-004
  0.11430000000000001          1.0832817060872912E-003
  0.11540000000000003          1.5673197340220213E-003
  0.11650000000000002          2.0911355968564749E-003
  0.11760000000000001          2.6500558014959097E-003
  0.11870000000000003          3.2358914613723755E-003
  0.11980000000000002          3.8387111853808165E-003
  0.12090000000000001          4.4485996477305889E-003
  0.12200000000000003          5.0573176704347134E-003
  0.12310000000000001          5.6578558869659901E-003
  0.12420000000000003          6.2422896735370159E-003
  0.12530000000000002          6.7998208105564117E-003
  0.12640000000000001          7.3162824846804142E-003
  0.12750000000000003          7.7757947146892548E-003
  0.12860000000000002          8.1653622910380363E-003
  0.12970000000000001          8.4762284532189369E-003
  0.13080000000000003          8.7029524147510529E-003
  0.13190000000000002          8.8393846526741982E-003
  0.13300000000000001          8.8761989027261734E-003
  0.13410000000000000          8.8000223040580750E-003
  0.13520000000000004          8.5977893322706223E-003
  0.13630000000000003          8.2606738433241844E-003
  0.13740000000000002          7.7872383408248425E-003
  0.13850000000000001          7.1817850694060326E-003
  0.13960000000000000          6.4505059272050858E-003
  0.14070000000000005          5.5988579988479614E-003
  0.14180000000000004          4.6310899779200554E-003
  0.14290000000000003          3.5530654713511467E-003
  0.14400000000000002          2.3748974781483412E-003
  0.14510000000000001          1.1113868094980717E-003
  0.14620000000000000         -2.1932025265414268E-004
  0.14730000000000004         -1.5982860932126641E-003
  0.14840000000000003         -3.0077872797846794E-003
  0.14950000000000002         -4.4297864660620689E-003
  0.15060000000000001         -5.8454591780900955E-003
  0.15170000000000000         -7.2333859279751778E-003
  0.15280000000000005         -8.5680028423666954E-003
  0.15390000000000004         -9.8198866471648216E-003
  0.15500000000000003         -1.0960167273879051E-002
  0.15610000000000002         -1.1964943259954453E-002
  0.15720000000000001         -1.2820854783058167E-002
  0.15830000000000000         -1.3525542803108692E-002
  0.15940000000000004         -1.4081286266446114E-002
  0.16050000000000003         -1.4485129155218601E-002
  0.16160000000000002         -1.4722101390361786E-002
  0.16270000000000001         -1.4766335487365723E-002
  0.16380000000000000         -1.4593158848583698E-002
  0.16490000000000005         -1.4192584902048111E-002
  0.16600000000000004         -1.3578622601926327E-002
  0.16710000000000003         -1.2784125283360481E-002
  0.16820000000000002         -1.1847442947328091E-002
  0.16930000000000001         -1.0798293165862560E-002
  0.17040000000000000         -9.6500124782323837E-003
  0.17150000000000004         -8.4037464112043381E-003
  0.17260000000000003         -7.0576216094195843E-003
  0.17370000000000002         -5.6175412610173225E-003
  0.17480000000000001         -4.1017369367182255E-003
  0.17590000000000000         -2.5403022300451994E-003
  0.17700000000000005         -9.7148184431716800E-004
  0.17810000000000004          5.6393817067146301E-004
  0.17920000000000003          2.0290496759116650E-003
  0.18030000000000002          3.3976912964135408E-003
  0.18140000000000001          4.6576708555221558E-003
  0.18250000000000000          5.8081471361219883E-003
  0.18360000000000004          6.8513411097228527E-003
  0.18470000000000003          7.7847572974860668E-003
  0.18580000000000002          8.5990298539400101E-003
  0.18690000000000001          9.2827314510941505E-003
  0.18800000000000000          9.8285842686891556E-003
  0.18910000000000005          1.0233617387712002E-002
  0.19020000000000004          1.0495305992662907E-002
  0.19130000000000003          1.0606690309941769E-002
  0.19240000000000002          1.0561641305685043E-002
  0.19350000000000001          1.0364742018282413E-002
  0.19460000000000005          1.0040384717285633E-002
  0.19570000000000004          9.6290130168199539E-003
  0.19680000000000003          9.1697219759225845E-003
  0.19790000000000002          8.6832521483302116E-003
  0.19900000000000001          8.1674689427018166E-003
  0.20010000000000000          7.6090609654784203E-003
  0.20120000000000005          7.0010740309953690E-003
  0.20230000000000004          6.3531827181577682E-003
  0.20340000000000003          5.6876414455473423E-003
  0.20450000000000002          5.0280378200113773E-003
  0.20560000000000000          4.3932367116212845E-003
  0.20670000000000005          3.8000203203409910E-003
  0.20780000000000004          3.2675564289093018E-003
  0.20890000000000003          2.8151725418865681E-003
