 -0.12000000000000000          0.0000000000000000
 -0.11889999999999999          0.0000000000000000
 -0.11780000000000000          0.0000000000000000
 -0.11670000000000000          0.0000000000000000
 -0.11559999999999999          0.0000000000000000
 -0.11449999999999999          0.0000000000000000
 -0.11340000000000000          0.0000000000000000
 -0.11230000000000000          0.0000000000000000
 -0.11119999999999999          0.0000000000000000
 -0.11009999999999999          0.0000000000000000
 -0.10900000000000000          0.0000000000000000
 -0.10790000000000000          0.0000000000000000
 -0.10679999999999999          0.0000000000000000
 -0.10569999999999999          0.0000000000000000
 -0.10460000000000000          0.0000000000000000
 -0.10349999999999999          2.0599087425574811E-043
 -0.10239999999999999          1.3322199431235837E-037
 -0.10130000000000000          1.1361200612107522E-036
 -0.10020000000000000         -3.4981679448604313E-036
  -9.9099999999999994E-002    -1.0035352541257039E-034
  -9.7999999999999990E-002    -6.6129620390316344E-034
  -9.6899999999999986E-002    -1.9747386738852850E-033
  -9.5799999999999996E-002     3.4784138283016256E-034
  -9.4699999999999993E-002     2.8917463720023609E-032
  -9.3599999999999989E-002     1.2590258022377648E-031
  -9.2499999999999999E-002     2.3173991856686983E-031
  -9.1399999999999995E-002    -2.2883049951892362E-031
  -9.0299999999999991E-002    -2.7510368887774347E-030
  -8.9200000000000002E-002    -8.1291599592132374E-030
  -8.8099999999999984E-002    -9.0443543456222066E-030
  -8.6999999999999994E-002     2.1718865455397302E-029
  -8.5899999999999990E-002     1.2310555037879149E-028
  -8.4799999999999986E-002     2.6142358805406026E-028
  -8.3699999999999997E-002     1.4411799977691524E-028
  -8.2599999999999993E-002    -8.7249932417738571E-028
  -8.1499999999999989E-002    -3.1845047481868840E-027
  -8.0399999999999999E-002    -5.0260882054736920E-027
  -7.9299999999999995E-002    -1.6205987887939166E-028
  -7.8199999999999992E-002     2.0209245129641919E-026
  -7.7100000000000002E-002     5.4095828426739783E-026
  -7.5999999999999984E-002     6.3907193490788786E-026
  -7.4899999999999994E-002    -3.4473027424419822E-026
  -7.3799999999999991E-002    -3.1217738048540500E-025
  -7.2699999999999987E-002    -6.5533446270639039E-025
  -7.1599999999999997E-002    -5.6814457577689996E-025
  -7.0499999999999993E-002     7.3029414598417372E-025
  -6.9399999999999989E-002     3.4974996258446671E-024
  -6.8300000000000000E-002     5.9926228872784877E-024
  -6.7199999999999996E-002     3.6135485591812775E-024
  -6.6099999999999992E-002    -8.8335981523488516E-024
  -6.5000000000000002E-002    -3.0009411105198049E-023
  -6.3899999999999985E-002    -4.3176323184121787E-023
  -6.2799999999999995E-002    -1.6264893493749676E-023
  -6.1699999999999991E-002     7.5663732563792666E-023
  -6.0599999999999994E-002     2.0501775485548535E-022
  -5.9499999999999990E-002     2.5435765970682150E-022
  -5.8399999999999994E-002     4.8584920788828951E-023
  -5.7299999999999990E-002    -4.9579814492009414E-022
  -5.6199999999999986E-002    -1.1501915115549131E-021
  -5.5099999999999996E-002    -1.2723094011154348E-021
  -5.3999999999999992E-002    -8.3302720782041889E-023
  -5.2899999999999989E-002     2.5869417325322797E-021
  -5.1799999999999985E-002     5.4483971646102763E-021
  -5.0699999999999995E-002     5.6375060814970271E-021
  -4.9599999999999991E-002     1.8323258471867637E-022
  -4.8499999999999988E-002    -1.1018666144665743E-020
  -4.7399999999999998E-002    -2.2415634941429518E-020
  -4.6299999999999994E-002    -2.3123299264578570E-020
  -4.5199999999999990E-002    -2.6449608996330236E-021
  -4.4099999999999986E-002     3.9011618065022335E-020
  -4.2999999999999997E-002     8.2542524482031065E-020
  -4.1899999999999993E-002     9.0643834466147385E-020
  -4.0799999999999989E-002     2.5956867845190054E-020
  -3.9699999999999985E-002    -1.1676570707208330E-019
  -3.8599999999999995E-002    -2.8004553774682501E-019
  -3.7499999999999992E-002    -3.4119496792738415E-019
  -3.6399999999999988E-002    -1.6286306089298570E-019
  -3.5299999999999984E-002     3.0173710854010933E-019
  -3.4199999999999994E-002     8.9259477917675709E-019
  -3.3099999999999991E-002     1.2082250840383364E-018
  -3.1999999999999987E-002     7.5532932640241060E-019
  -3.0899999999999997E-002    -6.9216488424967229E-019
  -2.9799999999999993E-002    -2.6749840209640496E-018
  -2.8699999999999989E-002    -3.9100285752080396E-018
  -2.7599999999999986E-002    -2.7902652878034211E-018
  -2.6499999999999996E-002     1.4369038172695665E-018
  -2.5399999999999992E-002     7.3901689045304330E-018
  -2.4299999999999988E-002     1.1280036193078411E-017
  -2.3199999999999985E-002     8.5870595462252616E-018
  -2.2099999999999995E-002    -2.5420023297869621E-018
  -2.0999999999999991E-002    -1.8147217673780355E-017
  -1.9899999999999987E-002    -2.8472694884598086E-017
  -1.8799999999999983E-002    -2.2849904892266828E-017
  -1.7699999999999994E-002     2.2684077926916791E-018
  -1.6599999999999990E-002     3.7384579985566796E-017
  -1.5499999999999986E-002     6.1850008318819089E-017
  -1.4399999999999996E-002     5.4901826830994115E-017
  -1.3299999999999992E-002     1.0106975797650623E-017
  -1.2199999999999989E-002    -5.6760121164318994E-017
  -1.1099999999999985E-002    -1.1316139152657778E-016
  -9.9999999999999950E-003    -1.2585641693755982E-016
  -8.8999999999999913E-003    -7.6920431751257402E-017
  -7.7999999999999875E-003     2.9365226074265253E-017
  -6.6999999999999837E-003     1.6736349304252349E-016
  -5.5999999999999939E-003     2.8958770035335886E-016
  -4.4999999999999901E-003     3.2335760694118733E-016
  -3.3999999999999864E-003     1.8280422869158954E-016
  -2.2999999999999826E-003    -1.7796055019205463E-016
  -1.1999999999999927E-003    -6.7518616176151904E-016
  -9.9999999999988987E-005    -1.0359333647115077E-015
   1.0000000000000148E-003    -8.7309175705790128E-016
   2.1000000000000185E-003     5.6927105768936299E-017
   3.2000000000000084E-003     1.5259149255229267E-015
   4.3000000000000121E-003     2.7073019526072453E-015
   5.4000000000000159E-003     2.5099034653484724E-015
   6.5000000000000058E-003     3.4680864052820870E-016
   7.6000000000000234E-003    -3.1106960997811855E-015
   8.7000000000000133E-003    -5.8678474236420041E-015
   9.8000000000000032E-003    -5.6092249714392167E-015
   1.0900000000000021E-002    -1.3750502049248185E-015
   1.2000000000000011E-002     5.2235751057190700E-015
   1.3100000000000001E-002     1.0399743471446211E-014
   1.4200000000000018E-002     1.0361499086844733E-014
   1.5300000000000008E-002     3.9984236861951346E-015
   1.6400000000000026E-002    -5.8996933213599240E-015
   1.7500000000000016E-002    -1.4066280590665798E-014
   1.8600000000000005E-002    -1.6017403196974186E-014
   1.9700000000000023E-002    -1.0738447383097736E-014
   2.0800000000000013E-002    -7.2169245279095720E-016
   2.1900000000000003E-002     1.0418309586617078E-014
   2.3000000000000020E-002     2.0178938747272661E-014
   2.4100000000000010E-002     2.6745819168877590E-014
   2.5200000000000000E-002     2.6426851971930038E-014
   2.6300000000000018E-002     1.2879531527388004E-014
   2.7400000000000008E-002    -1.8074354946745474E-014
   2.8500000000000025E-002    -5.9472480380077380E-014
   2.9600000000000015E-002    -8.8203275521066271E-014
   3.0700000000000005E-002    -7.3337345853248526E-014
   3.1800000000000023E-002     1.3163654329984356E-015
   3.2900000000000013E-002     1.1372519137346770E-013
   3.4000000000000002E-002     2.0069593231232530E-013
   3.5100000000000020E-002     1.8841952466579909E-013
   3.6200000000000010E-002     4.5246114797545256E-014
   3.7300000000000028E-002    -1.7819593186012977E-013
   3.8400000000000017E-002    -3.5821123628085316E-013
   3.9500000000000007E-002    -3.6464941851645227E-013
   4.0600000000000025E-002    -1.4966065225215791E-013
   4.1700000000000015E-002     2.0221006130378277E-013
   4.2800000000000005E-002     5.0614617748759305E-013
   4.3900000000000022E-002     5.8068155318891090E-013
   4.5000000000000012E-002     3.5849841433129026E-013
   4.6100000000000002E-002    -6.9925165104792880E-014
   4.7200000000000020E-002    -5.0833572377492753E-013
   4.8300000000000010E-002    -7.6244034957068108E-013
   4.9400000000000027E-002    -7.2734358683504419E-013
   5.0500000000000017E-002    -4.0569012992736075E-013
   5.1600000000000007E-002     1.2643921012186338E-013
   5.2700000000000025E-002     7.4604124961075158E-013
   5.3800000000000014E-002     1.2680633452999412E-012
   5.4900000000000004E-002     1.4293074102750269E-012
   5.6000000000000022E-002     9.5832293923320266E-013
   5.7100000000000012E-002    -2.3224266476953859E-013
   5.8200000000000002E-002    -1.8270038260048693E-012
   5.9300000000000019E-002    -3.0652646219875290E-012
   6.0400000000000009E-002    -3.0328079457520030E-012
   6.1500000000000027E-002    -1.2285654264754253E-012
   6.2600000000000017E-002     1.9142970628799327E-012
   6.3700000000000007E-002     4.9653293629492445E-012
   6.4800000000000024E-002     6.0964046311173803E-012
   6.5900000000000014E-002     4.1227559560708116E-012
   6.7000000000000004E-002    -6.0493195739100281E-013
   6.8100000000000022E-002    -6.0732252560313782E-012
   6.9200000000000012E-002    -9.4627162008920074E-012
   7.0300000000000029E-002    -8.6084056549751153E-012
   7.1400000000000019E-002    -3.2677009969422910E-012
   7.2500000000000009E-002     4.5424354382095355E-012
   7.3600000000000027E-002     1.1367671561013371E-011
   7.4700000000000016E-002     1.3885860343509915E-011
   7.5800000000000006E-002     1.0437892737635845E-011
   7.6900000000000024E-002     1.8212892131941327E-012
   7.8000000000000014E-002    -8.9253361645891260E-012
   7.9100000000000004E-002    -1.7567345148017388E-011
   8.0200000000000021E-002    -2.0141516926530656E-011
   8.1300000000000011E-002    -1.4442988471863316E-011
   8.2400000000000029E-002    -1.1828437534999736E-012
   8.3500000000000019E-002     1.5575891271213393E-011
   8.4600000000000009E-002     2.9157912195820757E-011
   8.5700000000000026E-002     3.2455912957196631E-011
   8.6800000000000016E-002     2.1186401591433146E-011
   8.7900000000000006E-002    -3.0354497127654811E-012
   8.9000000000000024E-002    -3.1627932911559853E-011
   9.0100000000000013E-002    -5.1406635892536912E-011
   9.1200000000000003E-002    -5.0251258015832079E-011
   9.2300000000000021E-002    -2.3863556963821253E-011
   9.3400000000000011E-002     1.9968514688994965E-011
   9.4500000000000028E-002     6.2708054027194038E-011
   9.5600000000000018E-002     8.2584897254101008E-011
   9.6700000000000008E-002     6.5393572501459829E-011
   9.7800000000000026E-002     1.3225295858454444E-011
   9.8900000000000016E-002    -5.3960537427233390E-011
  0.10000000000000001         -1.0579725290282838E-010
  0.10110000000000002         -1.1520558812483372E-010
  0.10220000000000001         -7.1950820301758256E-011
  0.10330000000000003          1.0702700878328919E-011
  0.10440000000000002          9.9890068439023594E-011
  0.10550000000000001          1.5626641647337181E-010
  0.10660000000000003          1.5077318560319242E-010
  0.10770000000000002          7.7970470357957566E-011
  0.10880000000000001         -3.9541869778503269E-011
  0.10990000000000003         -1.5755183269128281E-010
  0.11100000000000002         -2.2564460022689303E-010
  0.11210000000000001         -2.0679205570139914E-010
  0.11320000000000002         -9.4616106616207674E-011
  0.11430000000000001          7.8503127609597101E-011
  0.11540000000000003          2.4770799300632973E-010
  0.11650000000000002          3.3736571869447118E-010
  0.11760000000000001          2.9270194601416222E-010
  0.11870000000000003          1.0929111782242984E-010
  0.11980000000000002         -1.5444558132404751E-010
  0.12090000000000001         -3.9221395575772533E-010
  0.12200000000000003         -4.9121284817488231E-010
  0.12310000000000001         -3.8465586271740904E-010
  0.12420000000000003         -9.1060339824089453E-011
  0.12530000000000002          2.8178825939306762E-010
  0.12640000000000001          5.7560611832485620E-010
  0.12750000000000003          6.4961752643810655E-010
  0.12860000000000002          4.4780604224747833E-010
  0.12970000000000001          3.2736473254413312E-011
  0.13080000000000003         -4.3295567131451662E-010
  0.13190000000000002         -7.5217204686950367E-010
  0.13300000000000001         -7.7817047250405835E-010
  0.13410000000000000         -4.8090548210311113E-010
  0.13520000000000004          3.4944363375144505E-011
  0.13630000000000003          5.6867305309182825E-010
  0.13740000000000002          9.0286755849433575E-010
  0.13850000000000001          8.9080842702315977E-010
  0.13960000000000000          5.1734244665979645E-010
  0.14070000000000005         -8.9874094277853089E-011
  0.14180000000000004         -7.0298972199012155E-010
  0.14290000000000003         -1.0759595436837799E-009
  0.14400000000000002         -1.0384059168089266E-009
  0.14510000000000001         -5.6886506616393717E-010
  0.14620000000000000          1.8114586219919460E-010
  0.14730000000000004          9.2782870275698315E-010
  0.14840000000000003          1.3550610633572546E-009
  0.14950000000000002          1.2433051255200667E-009
  0.15060000000000001          5.7788424046023579E-010
  0.15170000000000000         -4.1522893456935606E-010
  0.15280000000000005         -1.3359319206429632E-009
  0.15390000000000004         -1.7661780926658821E-009
  0.15500000000000003         -1.4573242612669901E-009
  0.15610000000000002         -4.6464060377005012E-010
  0.15720000000000001          8.4234236252811456E-010
  0.15830000000000000          1.9141479512541082E-009
  0.15940000000000004          2.2528812149147370E-009
  0.16050000000000003          1.6415999670726933E-009
  0.16160000000000002          2.6438043421173063E-010
  0.16270000000000001         -1.3461454173580023E-009
  0.16380000000000000         -2.5200785902512735E-009
  0.16490000000000005         -2.7329145613208539E-009
  0.16600000000000004         -1.8366420606596989E-009
  0.16710000000000003         -1.3671098975098772E-010
  0.16820000000000002          1.7207550939701832E-009
  0.16930000000000001          3.0049300825396585E-009
  0.17040000000000000          3.1923432786129524E-009
  0.17150000000000004          2.1751740408859632E-009
  0.17260000000000003          3.0423563668335873E-010
  0.17370000000000002         -1.7450331180057788E-009
  0.17480000000000001         -3.2254641180173849E-009
  0.17590000000000000         -3.5906200235302776E-009
  0.17700000000000005         -2.6878381742534430E-009
  0.17810000000000004         -8.0875017793857751E-010
  0.17920000000000003          1.4124206249022109E-009
  0.18030000000000002          3.2130267335617191E-009
  0.18140000000000001          3.9576986132772163E-009
  0.18250000000000000          3.3554399259116963E-009
  0.18360000000000004          1.5699167521532331E-009
  0.18470000000000003         -8.1582146593817129E-010
  0.18580000000000002         -2.9800408807290069E-009
  0.18690000000000001         -4.1395660232979026E-009
  0.18800000000000000         -3.8361753773585860E-009
  0.18910000000000005         -2.1292059226851734E-009
  0.19020000000000004          3.9177316946137353E-010
  0.19130000000000003          2.8002640206636897E-009
  0.19240000000000002          4.1750527479678112E-009
  0.19350000000000001          3.9664880269185687E-009
  0.19460000000000005          2.2373878305614880E-009
  0.19570000000000004         -3.3535949017782229E-010
  0.19680000000000003         -2.7212685438371409E-009
  0.19790000000000002         -3.9605985158175372E-009
  0.19900000000000001         -3.5703862089064842E-009
  0.20010000000000000         -1.7545028763166215E-009
  0.20120000000000005          6.8925121166074632E-010
  0.20230000000000004          2.7201336738613691E-009
  0.20340000000000003          3.5077698523622303E-009
  0.20450000000000002          2.7802480317973277E-009
  0.20560000000000000          9.0757679149788828E-010
  0.20670000000000005         -1.2902197088493494E-009
  0.20780000000000004         -2.9119913147468424E-009
  0.20890000000000003         -3.3492006945579078E-009
