 -0.12000000000000000          0.0000000000000000
 -0.11889999999999999         -6.6123577724397364E-009
 -0.11780000000000000         -1.5863593105791551E-008
 -0.11670000000000000         -2.2591997606014047E-008
 -0.11559999999999999         -2.5659380398224130E-008
 -0.11449999999999999         -2.8825571263269012E-008
 -0.11340000000000000         -3.6550904525256556E-008
 -0.11230000000000000         -4.9302247617788453E-008
 -0.11119999999999999         -6.3386451643054897E-008
 -0.11009999999999999         -7.5483896466721490E-008
 -0.10900000000000000         -8.7040916696423665E-008
 -0.10790000000000000         -1.0379613968325430E-007
 -0.10679999999999999         -1.3084067518320808E-007
 -0.10569999999999999         -1.6834619032124465E-007
 -0.10460000000000000         -2.1244659365038387E-007
 -0.10349999999999999         -2.6039921863230120E-007
 -0.10239999999999999         -3.1469957662011439E-007
 -0.10130000000000000         -3.8194804119484616E-007
 -0.10020000000000000         -4.6777216766713536E-007
  -9.9099999999999994E-002    -5.7322148450111854E-007
  -9.7999999999999990E-002    -6.9646591782657197E-007
  -9.6899999999999986E-002    -8.3803928419001750E-007
  -9.5799999999999996E-002    -1.0041460427601123E-006
  -9.4699999999999993E-002    -1.2045961739204358E-006
  -9.3599999999999989E-002    -1.4475708667305298E-006
  -9.2499999999999999E-002    -1.7367412965541007E-006
  -9.1399999999999995E-002    -2.0737861632369459E-006
  -9.0299999999999991E-002    -2.4637167825858342E-006
  -8.9200000000000002E-002    -2.9175121198932175E-006
  -8.8099999999999984E-002    -3.4494364626880269E-006
  -8.6999999999999994E-002    -4.0719737626204733E-006
  -8.5899999999999990E-002    -4.7937687668309081E-006
  -8.4799999999999986E-002    -5.6227686400234234E-006
  -8.3699999999999997E-002    -6.5712802097550593E-006
  -8.2599999999999993E-002    -7.6576980063691735E-006
  -8.1499999999999989E-002    -8.9031464085564949E-006
  -8.0399999999999999E-002    -1.0326602932764217E-005
  -7.9299999999999995E-002    -1.1943534445890691E-005
  -7.8199999999999992E-002    -1.3769349607173353E-005
  -7.7100000000000002E-002    -1.5823872672626749E-005
  -7.5999999999999984E-002    -1.8132024706574157E-005
  -7.4899999999999994E-002    -2.0719928215839900E-005
  -7.3799999999999991E-002    -2.3610384232597426E-005
  -7.2699999999999987E-002    -2.6822277504834346E-005
  -7.1599999999999997E-002    -3.0374183552339673E-005
  -7.0499999999999993E-002    -3.4287986636627465E-005
  -6.9399999999999989E-002    -3.8588324969168752E-005
  -6.8300000000000000E-002    -4.3297994125168771E-005
  -6.7199999999999996E-002    -4.8433688789373264E-005
  -6.6099999999999992E-002    -5.4005882702767849E-005
  -6.5000000000000002E-002    -6.0022332036169246E-005
  -6.3899999999999985E-002    -6.6490705648902804E-005
  -6.2799999999999995E-002    -7.3416900704614818E-005
  -6.1699999999999991E-002    -8.0800033174455166E-005
  -6.0599999999999994E-002    -8.8628708908800036E-005
  -5.9499999999999990E-002    -9.6881645731627941E-005
  -5.8399999999999994E-002    -1.0553113679634407E-004
  -5.7299999999999990E-002    -1.1454494961071759E-004
  -5.6199999999999986E-002    -1.2388388859108090E-004
  -5.5099999999999996E-002    -1.3349705841392279E-004
  -5.3999999999999992E-002    -1.4331906277220696E-004
  -5.2899999999999989E-002    -1.5327174332924187E-004
  -5.1799999999999985E-002    -1.6326815239153802E-004
  -5.0699999999999995E-002    -1.7321419727522880E-004
  -4.9599999999999991E-002    -1.8300647207070142E-004
  -4.8499999999999988E-002    -1.9252847414463758E-004
  -4.7399999999999998E-002    -2.0164974557701498E-004
  -4.6299999999999994E-002    -2.1022916189394891E-004
  -4.5199999999999990E-002    -2.1812018530908972E-004
  -4.4099999999999986E-002    -2.2517326578963548E-004
  -4.2999999999999997E-002    -2.3123463324736804E-004
  -4.1899999999999993E-002    -2.3614433303009719E-004
  -4.0799999999999989E-002    -2.3973759380169213E-004
  -3.9699999999999985E-002    -2.4185019719880074E-004
  -3.8599999999999995E-002    -2.4232453142758459E-004
  -3.7499999999999992E-002    -2.4101264716591686E-004
  -3.6399999999999988E-002    -2.3777599562890828E-004
  -3.5299999999999984E-002    -2.3248499201145023E-004
  -3.4199999999999994E-002    -2.2502194042317569E-004
  -3.3099999999999991E-002    -2.1528716024477035E-004
  -3.1999999999999987E-002    -2.0320503972470760E-004
  -3.0899999999999997E-002    -1.8872648070100695E-004
  -2.9799999999999993E-002    -1.7182821466121823E-004
  -2.8699999999999989E-002    -1.5251226432155818E-004
  -2.7599999999999986E-002    -1.3080830103717744E-004
  -2.6499999999999996E-002    -1.0677838872652501E-004
  -2.5399999999999992E-002    -8.0520636402070522E-005
  -2.4299999999999988E-002    -5.2168870752211660E-005
  -2.3199999999999985E-002    -2.1889412892051041E-005
  -2.2099999999999995E-002     1.0121796549356077E-005
  -2.0999999999999991E-002     4.3639269279083237E-005
  -1.9899999999999987E-002     7.8406577813439071E-005
  -1.8799999999999983E-002     1.1413681932026520E-004
  -1.7699999999999994E-002     1.5051689115352929E-004
  -1.6599999999999990E-002     1.8721414380706847E-004
  -1.5499999999999986E-002     2.2388205979950726E-004
  -1.4399999999999996E-002     2.6016312767751515E-004
  -1.3299999999999992E-002     2.9569090111181140E-004
  -1.2199999999999989E-002     3.3009346225298941E-004
  -1.1099999999999985E-002     3.6300087231211364E-004
  -9.9999999999999950E-003     3.9405332063324749E-004
  -8.8999999999999913E-003     4.2290761484764516E-004
  -7.7999999999999875E-003     4.4924073154106736E-004
  -6.6999999999999837E-003     4.7275217366404831E-004
  -5.5999999999999939E-003     4.9316813237965107E-004
  -4.4999999999999901E-003     5.1024788990616798E-004
  -3.3999999999999864E-003     5.2379025146365166E-004
  -2.2999999999999826E-003     5.3363706683740020E-004
  -1.1999999999999927E-003     5.3967430721968412E-004
  -9.9999999999988987E-005     5.4183113388717175E-004
   1.0000000000000148E-003     5.4008117876946926E-004
   2.1000000000000185E-003     5.3444481454789639E-004
   3.2000000000000084E-003     5.2499078446999192E-004
   4.3000000000000121E-003     5.1183556206524372E-004
   5.4000000000000159E-003     4.9513869453221560E-004
   6.5000000000000058E-003     4.7509872820228338E-004
   7.6000000000000234E-003     4.5194971607998013E-004
   8.7000000000000133E-003     4.2595947161316872E-004
   9.8000000000000032E-003     3.9742700755596161E-004
   1.0900000000000021E-002     3.6667735548689961E-004
   1.2000000000000011E-002     3.3405458088964224E-004
   1.3100000000000001E-002     2.9991459450684488E-004
   1.4200000000000018E-002     2.6462043751962483E-004
   1.5300000000000008E-002     2.2853870177641511E-004
   1.6400000000000026E-002     1.9203568808734417E-004
   1.7500000000000016E-002     1.5547155635431409E-004
   1.8600000000000005E-002     1.1919372627744451E-004
   1.9700000000000023E-002     8.3531223936006427E-005
   2.0800000000000013E-002     4.8791454901220277E-005
   2.1900000000000003E-002     1.5258572602760978E-005
   2.3000000000000020E-002    -1.6808528016554192E-005
   2.4100000000000010E-002    -4.7179393732221797E-005
   2.5200000000000000E-002    -7.5655480031855404E-005
   2.6300000000000018E-002    -1.0207208833890036E-004
   2.7400000000000008E-002    -1.2629812408704311E-004
   2.8500000000000025E-002    -1.4823456876911223E-004
   2.9600000000000015E-002    -1.6781337035354227E-004
   3.0700000000000005E-002    -1.8499745056033134E-004
   3.1800000000000023E-002    -1.9978052296210080E-004
   3.2900000000000013E-002    -2.1218572510406375E-004
   3.4000000000000002E-002    -2.2226237342692912E-004
   3.5100000000000020E-002    -2.3008236894384027E-004
   3.6200000000000010E-002    -2.3573727230541408E-004
   3.7300000000000028E-002    -2.3933644115459174E-004
   3.8400000000000017E-002    -2.4100524024106562E-004
   3.9500000000000007E-002    -2.4088226200547069E-004
   4.0600000000000025E-002    -2.3911549942567945E-004
   4.1700000000000015E-002    -2.3585863527841866E-004
   4.2800000000000005E-002    -2.3126852465793490E-004
   4.3900000000000022E-002    -2.2550353605765849E-004
   4.5000000000000012E-002    -2.1872203797101974E-004
   4.6100000000000002E-002    -2.1108015789650381E-004
   4.7200000000000020E-002    -2.0272910478524864E-004
   4.8300000000000010E-002    -1.9381298625376076E-004
   4.9400000000000027E-002    -1.8446764443069696E-004
   5.0500000000000017E-002    -1.7482040857430547E-004
   5.1600000000000007E-002    -1.6498964396305382E-004
   5.2700000000000025E-002    -1.5508387878071517E-004
   5.3800000000000014E-002    -1.4520071272272617E-004
   5.4900000000000004E-002    -1.3542630767915398E-004
   5.6000000000000022E-002    -1.2583579518832266E-004
   5.7100000000000012E-002    -1.1649406224023551E-004
   5.8200000000000002E-002    -1.0745637700892985E-004
   5.9300000000000019E-002    -9.8768396128434688E-005
   6.0400000000000009E-002    -9.0466244728304446E-005
   6.1500000000000027E-002    -8.2576960267033428E-005
   6.2600000000000017E-002    -7.5119503890164196E-005
   6.3700000000000007E-002    -6.8105939135421067E-005
   6.4800000000000024E-002    -6.1542188632301986E-005
   6.5900000000000014E-002    -5.5428481573471799E-005
   6.7000000000000004E-002    -4.9759732064558193E-005
   6.8100000000000022E-002    -4.4526332203531638E-005
   6.9200000000000012E-002    -3.9715167076792568E-005
   7.0300000000000029E-002    -3.5310487874085084E-005
   7.1400000000000019E-002    -3.1294446671381593E-005
   7.2500000000000009E-002    -2.7647411116049625E-005
   7.3600000000000027E-002    -2.4348337319679558E-005
   7.4700000000000016E-002    -2.1375350115704350E-005
   7.5800000000000006E-002    -1.8706330592976883E-005
   7.6900000000000024E-002    -1.6319245332852006E-005
   7.8000000000000014E-002    -1.4192275557434186E-005
   7.9100000000000004E-002    -1.2303949915803969E-005
   8.0200000000000021E-002    -1.0633421879902016E-005
   8.1300000000000011E-002    -9.1608144430210814E-006
   8.2400000000000029E-002    -7.8673892858205363E-006
   8.3500000000000019E-002    -6.7354681050346699E-006
   8.4600000000000009E-002    -5.7483330238028429E-006
   8.5700000000000026E-002    -4.8903089009399991E-006
   8.6800000000000016E-002    -4.1470202631899156E-006
   8.7900000000000006E-002    -3.5055281841778196E-006
   8.9000000000000024E-002    -2.9541508865804644E-006
   9.0100000000000013E-002    -2.4821006263664458E-006
   9.1200000000000003E-002    -2.0792961095139617E-006
   9.2300000000000021E-002    -1.7365339317620965E-006
   9.3400000000000011E-002    -1.4457863244388136E-006
   9.4500000000000028E-002    -1.2002277571809827E-006
   9.5600000000000018E-002    -9.9385999874357367E-007
   9.6700000000000008E-002    -8.2106583931818022E-007
   9.7800000000000026E-002    -6.7653417090696166E-007
   9.8900000000000016E-002    -5.5561730505360174E-007
  0.10000000000000001         -4.5469289489119546E-007
  0.10110000000000002         -3.7106065065017901E-007
  0.10220000000000001         -3.0238555837058811E-007
  0.10330000000000003         -2.4620828753540991E-007
  0.10440000000000002         -2.0000526035346411E-007
  0.10550000000000001         -1.6170669425719097E-007
  0.10660000000000003         -1.3007408483645122E-007
  0.10770000000000002         -1.0446637332961473E-007
  0.10880000000000001         -8.4180328485672362E-008
  0.10990000000000003         -6.8038090716981969E-008
  0.11100000000000002         -5.4666074333908909E-008
  0.11210000000000001         -4.3177166730856698E-008
  0.11320000000000002         -3.3512137065372372E-008
  0.11430000000000001         -2.6029699284890739E-008
  0.11540000000000003         -2.0732434435899449E-008
  0.11650000000000002         -1.6928314749975470E-008
  0.11760000000000001         -1.3690081956951872E-008
  0.11870000000000003         -1.0627488222780812E-008
  0.11980000000000002         -8.1337905299960767E-009
  0.12090000000000001         -6.8103194195145988E-009
  0.12200000000000003         -6.6556271605122674E-009
  0.12310000000000001         -6.8856893520319318E-009
  0.12420000000000003         -6.6041279112027951E-009
  0.12530000000000002         -5.6346625143532947E-009
  0.12640000000000001         -4.6312162993444872E-009
  0.12750000000000003         -4.3286147999310742E-009
  0.12860000000000002         -4.7126920144080486E-009
  0.12970000000000001         -4.9936499380009991E-009
  0.13080000000000003         -4.4261239118270623E-009
  0.13190000000000002         -3.1113669418658674E-009
  0.13300000000000001         -1.9142631924040643E-009
  0.13410000000000000         -1.5561697486177195E-009
  0.13520000000000004         -1.8316765881820629E-009
  0.13630000000000003         -1.7917324290905867E-009
  0.13740000000000002         -7.2633105085984084E-010
  0.13850000000000001          1.0752384538292858E-009
  0.13960000000000000          2.5941251369232532E-009
  0.14070000000000005          3.1119402610357838E-009
  0.14180000000000004          2.9224176412157021E-009
  0.14290000000000003          2.9704638748739853E-009
  0.14400000000000002          3.7952831988263824E-009
  0.14510000000000001          4.9006430025144709E-009
  0.14620000000000000          5.2370205949614501E-009
  0.14730000000000004          4.3054182441437661E-009
  0.14840000000000003          2.7197202268069987E-009
  0.14950000000000002          1.6167742700190502E-009
  0.15060000000000001          1.5131240704846505E-009
  0.15170000000000000          1.8009874702684670E-009
  0.15280000000000005          1.4169438955491387E-009
  0.15390000000000004         -1.2740596772031765E-011
  0.15500000000000003         -1.7528658524668117E-009
  0.15610000000000002         -2.7109869904506922E-009
  0.15720000000000001         -2.5725612751159588E-009
  0.15830000000000000         -2.1225559088122736E-009
  0.15940000000000004         -2.4074360283066198E-009
  0.16050000000000003         -3.6128045000083375E-009
  0.16160000000000002         -4.8377262196197535E-009
  0.16270000000000001         -5.0100044113321474E-009
  0.16380000000000000         -3.9886951519463310E-009
  0.16490000000000005         -2.7012343473131750E-009
  0.16600000000000004         -2.1743891132075532E-009
  0.16710000000000003         -2.4785136165661470E-009
  0.16820000000000002         -2.6932118757372336E-009
  0.16930000000000001         -1.9261412464999239E-009
  0.17040000000000000         -3.0771338255242142E-010
  0.17150000000000004          1.0906970882018641E-009
  0.17260000000000003          1.3354398697984493E-009
  0.17370000000000002          5.7842092227033959E-010
  0.17480000000000001         -1.1677904476758982E-010
  0.17590000000000000          1.1461093879505668E-010
  0.17700000000000005          1.0547328566090641E-009
  0.17810000000000004          1.6643270095428875E-009
  0.17920000000000003          1.2019920614392277E-009
  0.18030000000000002          1.7876377461645276E-011
  0.18140000000000001         -8.1079432057151735E-010
  0.18250000000000000         -6.1204713519558140E-010
  0.18360000000000004          1.7685522490928918E-010
  0.18470000000000003          4.7503689870609378E-010
  0.18580000000000002         -2.9683752678089093E-010
  0.18690000000000001         -1.5932744013014144E-009
  0.18800000000000000         -2.2922157505433916E-009
  0.18910000000000005         -1.8359872511197750E-009
  0.19020000000000004         -7.7221218308665129E-010
  0.19130000000000003         -1.4069105602754206E-010
  0.19240000000000002         -3.6425898408687374E-010
  0.19350000000000001         -8.1307888200043976E-010
  0.19460000000000005         -4.9370396659753624E-010
  0.19570000000000004          8.7009816018834840E-010
  0.19680000000000003          2.5038713324931905E-009
  0.19790000000000002          3.3453153580609296E-009
  0.19900000000000001          3.1038078773804045E-009
  0.20010000000000000          2.5143986892572912E-009
  0.20120000000000005          2.5349147225739443E-009
  0.20230000000000004          3.3376039709764882E-009
  0.20340000000000003          4.1473335876673900E-009
  0.20450000000000002          4.0787950794651806E-009
  0.20560000000000000          3.0792377536670301E-009
  0.20670000000000005          1.9853061417052231E-009
  0.20780000000000004          1.6425815152487644E-009
  0.20890000000000003          2.0189467875297851E-009
