 -0.12000000000000000          0.0000000000000000
 -0.11889999999999999          0.0000000000000000
 -0.11780000000000000          0.0000000000000000
 -0.11670000000000000          0.0000000000000000
 -0.11559999999999999          0.0000000000000000
 -0.11449999999999999          0.0000000000000000
 -0.11340000000000000          0.0000000000000000
 -0.11230000000000000          0.0000000000000000
 -0.11119999999999999          0.0000000000000000
 -0.11009999999999999          0.0000000000000000
 -0.10900000000000000          0.0000000000000000
 -0.10790000000000000          0.0000000000000000
 -0.10679999999999999          0.0000000000000000
 -0.10569999999999999          0.0000000000000000
 -0.10460000000000000          0.0000000000000000
 -0.10349999999999999          3.7448580420309276E-040
 -0.10239999999999999          2.4222105727462031E-034
 -0.10130000000000000          1.5812300013330237E-033
 -0.10020000000000000         -1.0007208221844728E-032
  -9.9099999999999994E-002    -1.6609344912994449E-031
  -9.7999999999999990E-002    -8.5380236016608797E-031
  -9.6899999999999986E-002    -1.5342748809587954E-030
  -9.5799999999999996E-002     5.7571477762030759E-030
  -9.4699999999999993E-002     4.6187618824373771E-029
  -9.3599999999999989E-002     1.3014896507490727E-028
  -9.2499999999999999E-002     6.2282582267696982E-029
  -9.1399999999999995E-002    -8.9968334385992545E-028
  -9.0299999999999991E-002    -3.6861463281975830E-027
  -8.9200000000000002E-002    -6.0922595263411442E-027
  -8.8099999999999984E-002     4.4282695359001831E-027
  -8.6999999999999994E-002     5.1504857924372124E-026
  -8.5899999999999990E-002     1.3283457452288765E-025
  -8.4799999999999986E-002     1.1865277829547033E-025
  -8.3699999999999997E-002    -3.3193565910373294E-025
  -8.2599999999999993E-002    -1.5164595627958519E-024
  -8.1499999999999989E-002    -2.6871866343823014E-024
  -8.0399999999999999E-002    -6.6114738150173773E-025
  -7.9299999999999995E-002     9.5048351634359793E-024
  -7.8199999999999992E-002     2.7533902475742096E-023
  -7.7100000000000002E-002     3.4078065353514907E-023
  -7.5999999999999984E-002    -1.6239219226728353E-023
  -7.4899999999999994E-002    -1.6263391187041773E-022
  -7.3799999999999991E-002    -3.4228308646079680E-022
  -7.2699999999999987E-002    -2.8163886794651596E-022
  -7.1599999999999997E-002     4.4016590683548069E-022
  -7.0499999999999993E-002     1.9206317951978687E-021
  -6.9399999999999989E-002     3.1106508617516988E-021
  -6.8300000000000000E-002     1.4259373992128108E-021
  -6.7199999999999996E-002    -5.7515277590586336E-021
  -6.6099999999999992E-002    -1.6879647912561685E-020
  -6.5000000000000002E-002    -2.1621833974649846E-020
  -6.3899999999999985E-002    -2.3180072612050691E-021
  -6.2799999999999995E-002     5.1247877915494796E-020
  -6.1699999999999991E-002     1.1589507362797709E-019
  -6.0599999999999994E-002     1.1929406216253405E-019
  -5.9499999999999990E-002    -2.9585151814898994E-020
  -5.8399999999999994E-002    -3.4454709151036115E-019
  -5.7299999999999990E-002    -6.4524032396682271E-019
  -5.6199999999999986E-002    -5.4456577427543053E-019
  -5.5099999999999996E-002     3.2253317877212258E-019
  -5.3999999999999992E-002     1.8392970965818328E-018
  -5.2899999999999989E-002     3.0156926842394350E-018
  -5.1799999999999985E-002     2.1869534566172042E-018
  -5.0699999999999995E-002    -1.8431192913972872E-018
  -4.9599999999999991E-002    -8.0737418637575170E-018
  -4.8499999999999988E-002    -1.2293346505526284E-017
  -4.7399999999999998E-002    -8.4284145765437164E-018
  -4.6299999999999994E-002     7.1417525045103454E-018
  -4.5199999999999990E-002     3.0091589913760317E-017
  -4.4099999999999986E-002     4.5647647775106062E-017
  -4.2999999999999997E-002     3.3499451614748133E-017
  -4.1899999999999993E-002    -1.8769791853095941E-017
  -4.0799999999999989E-002    -9.8842868653505273E-017
  -3.9699999999999985E-002    -1.6065271569922369E-016
  -3.8599999999999995E-002    -1.3621969299364877E-016
  -3.7499999999999992E-002     2.5038917615018983E-017
  -3.6399999999999988E-002     2.9920094196954393E-016
  -3.5299999999999984E-002     5.4552664630012622E-016
  -3.4199999999999994E-002     5.2876005262570097E-016
  -3.3099999999999991E-002     4.5113391669792763E-017
  -3.1999999999999987E-002    -8.6856013079009077E-016
  -3.0899999999999997E-002    -1.7632475222338325E-015
  -2.9799999999999993E-002    -1.8418782260021596E-015
  -2.8699999999999989E-002    -4.0365770676943429E-016
  -2.7599999999999986E-002     2.4395906251221825E-015
  -2.6499999999999996E-002     5.2461714036529730E-015
  -2.5399999999999992E-002     5.5779474328289044E-015
  -2.4299999999999988E-002     1.4945376487830752E-015
  -2.3199999999999985E-002    -6.3908597753854334E-015
  -2.2099999999999995E-002    -1.3843798069707036E-014
  -2.0999999999999991E-002    -1.4529320468644781E-014
  -1.9899999999999987E-002    -4.2442754226521689E-015
  -1.8799999999999983E-002     1.4467526027010791E-014
  -1.7699999999999994E-002     3.1202132349215927E-014
  -1.6599999999999990E-002     3.2645452774414732E-014
  -1.5499999999999986E-002     1.1837148218541392E-014
  -1.4399999999999996E-002    -2.4470210945970287E-014
  -1.3299999999999992E-002    -5.6974973241911975E-014
  -1.2199999999999989E-002    -6.4601569807563181E-014
  -1.1099999999999985E-002    -3.7946201898991089E-014
  -9.9999999999999950E-003     1.4864342328074591E-014
  -8.8999999999999913E-003     7.4110178714323349E-014
  -7.7999999999999875E-003     1.1913647152139717E-013
  -6.6999999999999837E-003     1.3176947326245386E-013
  -5.5999999999999939E-003     9.0456369608235554E-014
  -4.4999999999999901E-003    -2.9056564012502895E-014
  -3.3999999999999864E-003    -2.2649505155517696E-013
  -2.2999999999999826E-003    -4.2944090666331702E-013
  -1.1999999999999927E-003    -4.7460565208781724E-013
  -9.9999999999988987E-005    -1.8129837637669705E-013
   1.0000000000000148E-003     4.7737399970493311E-013
   2.1000000000000185E-003     1.2135693925469093E-012
   3.2000000000000084E-003     1.4573176649809727E-012
   4.3000000000000121E-003     6.9065879317736778E-013
   5.4000000000000159E-003    -1.0495649488406755E-012
   6.5000000000000058E-003    -2.8833346300827234E-012
   7.6000000000000234E-003    -3.4030376173249666E-012
   8.7000000000000133E-003    -1.6099645488293346E-012
   9.8000000000000032E-003     2.0801871510045533E-012
   1.0900000000000021E-002     5.6183122390529583E-012
   1.2000000000000011E-002     6.3791884101493945E-012
   1.3100000000000001E-002     3.0320266696665099E-012
   1.4200000000000018E-002    -3.1015619759988677E-012
   1.5300000000000008E-002    -8.4676658046456410E-012
   1.6400000000000026E-002    -9.5289106466500684E-012
   1.7500000000000016E-002    -5.3194302261638793E-012
   1.8600000000000005E-002     1.7719329692758579E-012
   1.9700000000000023E-002     7.8261667979528937E-012
   2.0800000000000013E-002     1.0386114711324890E-011
   2.1900000000000003E-002     9.8684341948152010E-012
   2.3000000000000020E-002     7.8781633994218225E-012
   2.4100000000000010E-002     4.0616173618834850E-012
   2.5200000000000000E-002    -4.6415566702651123E-012
   2.6300000000000018E-002    -1.9989936789199803E-011
   2.7400000000000008E-002    -3.6289856536475540E-011
   2.8500000000000025E-002    -3.8979462019250732E-011
   2.9600000000000015E-002    -1.3258356218459610E-011
   3.0700000000000005E-002     4.0287308211706119E-011
   3.1800000000000023E-002     9.5446713033187081E-011
   3.2900000000000013E-002     1.0893298069136748E-010
   3.4000000000000002E-002     4.9195654494571528E-011
   3.5100000000000020E-002    -7.1516403910010240E-011
   3.6200000000000010E-002    -1.8879887930811634E-010
   3.7300000000000028E-002    -2.1745938383332941E-010
   3.8400000000000017E-002    -1.0984115700329866E-010
   3.9500000000000007E-002     9.8135381765285246E-011
   4.0600000000000025E-002     2.9275329382905113E-010
   4.1700000000000015E-002     3.4701164164374632E-010
   4.2800000000000005E-002     2.0559945412834679E-010
   4.3900000000000022E-002    -7.0080552472262525E-011
   4.5000000000000012E-002    -3.3388880549267697E-010
   4.6100000000000002E-002    -4.4506315299841503E-010
   4.7200000000000020E-002    -3.5204697490520687E-010
   4.8300000000000010E-002    -1.0996142191244118E-010
   4.9400000000000027E-002     1.7377371763771521E-010
   5.0500000000000017E-002     4.1105069348290613E-010
   5.1600000000000007E-002     5.5645721364072642E-010
   5.2700000000000025E-002     5.7009191811729920E-010
   5.3800000000000014E-002     3.7903918892467914E-010
   5.4900000000000004E-002    -8.5868305521596966E-011
   5.6000000000000022E-002    -7.7046713453654547E-010
   5.7100000000000012E-002    -1.3941976462206185E-009
   5.8200000000000002E-002    -1.5053683855015265E-009
   5.9300000000000019E-002    -7.4601502753068871E-010
   6.0400000000000009E-002     8.0502737809240443E-010
   6.1500000000000027E-002     2.4754136518367886E-009
   6.2600000000000017E-002     3.2388818294037947E-009
   6.3700000000000007E-002     2.3084489875202507E-009
   6.4800000000000024E-002    -2.5194901720482221E-010
   6.5900000000000014E-002    -3.3365032958698748E-009
   6.7000000000000004E-002    -5.2592930011030603E-009
   6.8100000000000022E-002    -4.6830583855239638E-009
   6.9200000000000012E-002    -1.4796531777605537E-009
   7.0300000000000029E-002     3.0329443401200251E-009
   7.1400000000000019E-002     6.6774279439130169E-009
   7.2500000000000009E-002     7.5228205886901378E-009
   7.3600000000000027E-002     4.8867003776820184E-009
   7.4700000000000016E-002    -3.0817504104163618E-010
   7.5800000000000006E-002    -5.9608566971292021E-009
   7.6900000000000024E-002    -9.7056949144302962E-009
   7.8000000000000014E-002    -9.8336245812902234E-009
   7.9100000000000004E-002    -5.8791203016994587E-009
   8.0200000000000021E-002     1.1988059434031584E-009
   8.1300000000000011E-002     9.1621537023911515E-009
   8.2400000000000029E-002     1.4947200810411232E-008
   8.3500000000000019E-002     1.5523227148150909E-008
   8.4600000000000009E-002     9.1713578953545039E-009
   8.5700000000000026E-002    -3.1749938234071351E-009
   8.6800000000000016E-002    -1.7315027633912905E-008
   8.7900000000000006E-002    -2.6724702451019766E-008
   8.9000000000000024E-002    -2.5261632785600341E-008
   9.0100000000000013E-002    -1.0699648278489349E-008
   9.1200000000000003E-002     1.2800336790519395E-008
   9.2300000000000021E-002     3.5177304624767203E-008
   9.3400000000000011E-002     4.4517371122765326E-008
   9.4500000000000028E-002     3.3190875825539479E-008
   9.5600000000000018E-002     2.9488358421758676E-009
   9.6700000000000008E-002    -3.4205797305730812E-008
   9.7800000000000026E-002    -6.0645618304988602E-008
   9.8900000000000016E-002    -6.1510441184964293E-008
  0.10000000000000001         -3.2738125099740500E-008
  0.10110000000000002          1.5632059202630444E-008
  0.10220000000000001          6.3012976170284674E-008
  0.10330000000000003          8.7266151638232259E-008
  0.10440000000000002          7.4892689383432298E-008
  0.10550000000000001          2.7609761588109905E-008
  0.10660000000000003         -3.7597445157189213E-008
  0.10770000000000002         -9.4771117176151165E-008
  0.10880000000000001         -1.1888768369772151E-007
  0.10990000000000003         -9.5675893874158646E-008
  0.11100000000000002         -2.8129139906241107E-008
  0.11210000000000001          6.2406506629031355E-008
  0.11320000000000002          1.4154977634461829E-007
  0.11430000000000001          1.7321247014479013E-007
  0.11540000000000003          1.3443273871871497E-007
  0.11650000000000002          2.8581347066847229E-008
  0.11760000000000001         -1.0978818210105601E-007
  0.11870000000000003         -2.2368604390976543E-007
  0.11980000000000002         -2.5583523211025749E-007
  0.12090000000000001         -1.7647089123329351E-007
  0.12200000000000003         -3.5270768528050667E-009
  0.12310000000000001          1.9726707023437484E-007
  0.12420000000000003          3.3654299613772309E-007
  0.12530000000000002          3.4136357385250449E-007
  0.12640000000000001          1.9285066343854851E-007
  0.12750000000000003         -5.8284449266921001E-008
  0.12860000000000002         -3.0864549671605346E-007
  0.12970000000000001         -4.4602646198654838E-007
  0.13080000000000003         -4.0068653106573038E-007
  0.13190000000000002         -1.7970681653878273E-007
  0.13300000000000001          1.3243700891507615E-007
  0.13410000000000000          4.0804476952871482E-007
  0.13520000000000004          5.2986405307819950E-007
  0.13630000000000003          4.4055178705093567E-007
  0.13740000000000002          1.6707467409560195E-007
  0.13850000000000001         -1.8900034604030225E-007
  0.13960000000000000         -4.9002869673131499E-007
  0.14070000000000005         -6.1400140793921310E-007
  0.14180000000000004         -5.0075425406248542E-007
  0.14290000000000003         -1.7737264101924666E-007
  0.14400000000000002          2.4565207468185690E-007
  0.14510000000000001          6.0805859902757220E-007
  0.14620000000000000          7.5559762535704067E-007
  0.14730000000000004          6.0200750340300146E-007
  0.14840000000000003          1.7477867686466197E-007
  0.14950000000000002         -3.7797116192450630E-007
  0.15060000000000001         -8.3188501776021440E-007
  0.15170000000000000         -9.7377528618380893E-007
  0.15280000000000005         -7.0023008902353467E-007
  0.15390000000000004         -8.2035519710643712E-008
  0.15500000000000003          6.4358800955233164E-007
  0.15610000000000002          1.1612913795033819E-006
  0.15720000000000001          1.2150412658229470E-006
  0.15830000000000000          7.3369619713048451E-007
  0.15940000000000004         -1.1781761344309416E-007
  0.16050000000000003         -9.9360283911664737E-007
  0.16160000000000002         -1.5104327530934825E-006
  0.16270000000000001         -1.4177960565575631E-006
  0.16380000000000000         -7.1662788059256854E-007
  0.16490000000000005          3.2965337481982715E-007
  0.16600000000000004          1.2999329328522435E-006
  0.16710000000000003          1.7908508880282170E-006
  0.16820000000000002          1.5863602129684296E-006
  0.16930000000000001          7.4850356668321183E-007
  0.17040000000000000         -4.0775222487354768E-007
  0.17150000000000004         -1.4416463045563432E-006
  0.17260000000000003         -1.9600599898694782E-006
  0.17370000000000002         -1.7658832121014711E-006
  0.17480000000000001         -9.2580921773333102E-007
  0.17590000000000000          2.6188953938799386E-007
  0.17700000000000005          1.3795321365250857E-006
  0.17810000000000004          2.0369916455820203E-006
  0.17920000000000003          2.0015006612084107E-006
  0.18030000000000002          1.2723285180982202E-006
  0.18140000000000001          8.1620385117275873E-008
  0.18250000000000000         -1.1766361467380193E-006
  0.18360000000000004         -2.0697696072602412E-006
  0.18470000000000003         -2.2679362245980883E-006
  0.18580000000000002         -1.6670084050929290E-006
  0.18690000000000001         -4.4121912878836156E-007
  0.18800000000000000          9.9283840881980723E-007
  0.18910000000000005          2.1107423435751116E-006
  0.19020000000000004          2.4728560674702749E-006
  0.19130000000000003          1.9062181308981963E-006
  0.19240000000000002          5.9339726021789829E-007
  0.19350000000000001         -9.7260635811835527E-007
  0.19460000000000005         -2.1712123725592392E-006
  0.19570000000000004         -2.5065100999199785E-006
  0.19680000000000003         -1.8315065517526818E-006
  0.19790000000000002         -4.2182068682450335E-007
  0.19900000000000001          1.1312977221678011E-006
  0.20010000000000000          2.1703081074520014E-006
  0.20120000000000005          2.2728811472916277E-006
  0.20230000000000004          1.4196323263604427E-006
  0.20340000000000003          1.2433085672114430E-008
  0.20450000000000002         -1.3352004089028924E-006
  0.20560000000000000         -2.0696566025435459E-006
  0.20670000000000005         -1.9263370631961152E-006
  0.20780000000000004         -1.0223387789665139E-006
  0.20890000000000003          2.2741244265489513E-007
