 -0.12000000000000000          0.0000000000000000
 -0.11889999999999999          0.0000000000000000
 -0.11780000000000000          0.0000000000000000
 -0.11670000000000000          0.0000000000000000
 -0.11559999999999999          0.0000000000000000
 -0.11449999999999999          0.0000000000000000
 -0.11340000000000000          0.0000000000000000
 -0.11230000000000000          0.0000000000000000
 -0.11119999999999999          0.0000000000000000
 -0.11009999999999999          0.0000000000000000
 -0.10900000000000000         -7.2158329734969042E-025
 -0.10790000000000000         -4.5549688525847913E-024
 -0.10679999999999999          9.3710238435269599E-024
 -0.10569999999999999          1.5024208087442260E-022
 -0.10460000000000000          3.3421123448663470E-022
 -0.10349999999999999         -1.0611057145855684E-021
 -0.10239999999999999         -6.8124228414716207E-021
 -0.10130000000000000         -8.0722875768430722E-021
 -0.10020000000000000          3.7284474639534416E-020
  -9.9099999999999994E-002     1.5676536976058035E-019
  -9.7999999999999990E-002     1.3207418357223732E-019
  -9.6899999999999986E-002    -6.7005331250036416E-019
  -9.5799999999999996E-002    -2.3761739168708533E-018
  -9.4699999999999993E-002    -1.9716087714627524E-018
  -9.3599999999999989E-002     7.4267517943012033E-018
  -9.2499999999999999E-002     2.6254438018469731E-017
  -9.1399999999999995E-002     2.5756395880374003E-017
  -9.0299999999999991E-002    -5.3940398113746181E-017
  -8.9200000000000002E-002    -2.2080667950750895E-016
  -8.8099999999999984E-002    -2.6822179718468157E-016
  -8.6999999999999994E-002     2.3810262906929873E-016
  -8.5899999999999990E-002     1.4379064023581920E-015
  -8.4799999999999986E-002     2.1732169744190710E-015
  -8.3699999999999997E-002    -2.1463732827107205E-016
  -8.2599999999999993E-002    -7.2242728563643582E-015
  -8.1499999999999989E-002    -1.3798309012307691E-014
  -8.0399999999999999E-002    -6.1948588924896301E-015
  -7.9299999999999995E-002     2.6939388220181826E-014
  -7.8199999999999992E-002     6.9263808555840300E-014
  -7.7100000000000002E-002     6.1103493141992371E-014
  -7.5999999999999984E-002    -6.3590842661054303E-014
  -7.4899999999999994E-002    -2.7429645469041752E-013
  -7.3799999999999991E-002    -3.5568078972543493E-013
  -7.2699999999999987E-002     4.0546985435074606E-016
  -7.1599999999999997E-002     8.3434246924557476E-013
  -7.0499999999999993E-002     1.5163297050271862E-012
  -6.9399999999999989E-002     8.6752539830634023E-013
  -6.8300000000000000E-002    -1.7653048077145850E-012
  -6.7199999999999996E-002    -4.9832343113065392E-012
  -6.6099999999999992E-002    -5.0565263781665593E-012
  -6.5000000000000002E-002     1.4115597796529600E-012
  -6.3899999999999985E-002     1.2590591763617098E-011
  -6.2799999999999995E-002     1.8760952860685798E-011
  -6.1699999999999991E-002     7.5163824816981695E-012
  -6.0599999999999994E-002    -2.2872485155867039E-011
  -5.9499999999999990E-002    -5.2032222280784524E-011
  -5.8399999999999994E-002    -4.4131566456773186E-011
  -5.7299999999999990E-002     2.1017793408462104E-011
  -5.6199999999999986E-002     1.1158400592403694E-010
  -5.5099999999999996E-002     1.4241668955250475E-010
  -5.3999999999999992E-002     3.6197857211650586E-011
  -5.2899999999999989E-002    -1.8140765278840121E-010
  -5.1799999999999985E-002    -3.4149205685451989E-010
  -5.0699999999999995E-002    -2.3040631902393471E-010
  -4.9599999999999991E-002     1.9701357212298376E-010
  -4.8499999999999988E-002     6.6243704965884831E-010
  -4.7399999999999998E-002     6.8029681887793458E-010
  -4.6299999999999994E-002    -2.3867522541687336E-011
  -4.5199999999999990E-002    -1.0880748524400019E-009
  -4.4099999999999986E-002    -1.5547102494295473E-009
  -4.2999999999999997E-002    -5.9320176548638415E-010
  -4.1899999999999993E-002     1.5223969862532272E-009
  -4.0799999999999989E-002     3.1210249940016865E-009
  -3.9699999999999985E-002     2.2087327522513078E-009
  -3.8599999999999995E-002    -1.5528671681863671E-009
  -3.7499999999999992E-002    -5.6421893823710434E-009
  -3.6399999999999988E-002    -5.9208309366454159E-009
  -3.5299999999999984E-002    -1.8808476998088963E-010
  -3.4199999999999994E-002     8.6053049130896397E-009
  -3.3099999999999991E-002     1.2995577058916297E-008
  -3.1999999999999987E-002     6.5603829035865147E-009
  -3.0899999999999997E-002    -9.1660785628278063E-009
  -2.9799999999999993E-002    -2.2863494208991142E-008
  -2.8699999999999989E-002    -2.0591011562487438E-008
  -2.7599999999999986E-002     1.6617737186308545E-009
  -2.6499999999999996E-002     3.0407814932686961E-008
  -2.5399999999999992E-002     4.1322692823086982E-008
  -2.4299999999999988E-002     1.8639957133359530E-008
  -2.3199999999999985E-002    -2.7196366048087839E-008
  -2.2099999999999995E-002    -6.1201156142942637E-008
  -2.0999999999999991E-002    -4.9316433603507903E-008
  -1.9899999999999987E-002     9.4398826533392821E-009
  -1.8799999999999983E-002     7.2847832655043021E-008
  -1.7699999999999994E-002     8.3360369274032564E-008
  -1.6599999999999990E-002     1.8154720393681600E-008
  -1.5499999999999986E-002    -8.0051307804751559E-008
  -1.4399999999999996E-002    -1.2586248487878038E-007
  -1.3299999999999992E-002    -6.0530403800385102E-008
  -1.2199999999999989E-002     8.5276440131565323E-008
  -1.1099999999999985E-002     1.9584743427003559E-007
  -9.9999999999999950E-003     1.5518637042077899E-007
  -8.8999999999999913E-003    -4.5905014900426977E-008
  -7.7999999999999875E-003    -2.7303505589770793E-007
  -6.6999999999999837E-003    -3.3189385817422590E-007
  -5.5999999999999939E-003    -1.2507157975960581E-007
  -4.4999999999999901E-003     2.4087356109703251E-007
  -3.3999999999999864E-003     5.0218989144923398E-007
  -2.2999999999999826E-003     4.2812172296180506E-007
  -1.1999999999999927E-003     1.7847325395337066E-008
  -9.9999999999988987E-005    -4.6164757350197760E-007
   1.0000000000000148E-003    -6.5344636368536158E-007
   2.1000000000000185E-003    -3.8685126924065116E-007
   3.2000000000000084E-003     1.6470823993586237E-007
   4.3000000000000121E-003     5.8971704675059300E-007
   5.4000000000000159E-003     5.5179822311401949E-007
   6.5000000000000058E-003     7.3723676052850351E-008
   7.6000000000000234E-003    -4.4766684936803358E-007
   8.7000000000000133E-003    -5.3975486480339896E-007
   9.8000000000000032E-003    -5.4558814355232244E-008
   1.0900000000000021E-002     6.5100215351776569E-007
   1.2000000000000011E-002     9.3742454509992967E-007
   1.3100000000000001E-002     3.8393582713069918E-007
   1.4200000000000018E-002    -8.0028098636830691E-007
   1.5300000000000008E-002    -1.8064339428747189E-006
   1.6400000000000026E-002    -1.7504876268503722E-006
   1.7500000000000016E-002    -3.6145553394817398E-007
   1.8600000000000005E-002     1.6772517028584844E-006
   1.9700000000000023E-002     3.0570161015930353E-006
   2.0800000000000013E-002     2.7033825062972028E-006
   2.1900000000000003E-002     5.9827237919307663E-007
   2.3000000000000020E-002    -2.0610480078175897E-006
   2.4100000000000010E-002    -3.5811008274322376E-006
   2.5200000000000000E-002    -2.9447337510646321E-006
   2.6300000000000018E-002    -6.0319104022710235E-007
   2.7400000000000008E-002     1.7672672356638941E-006
   2.8500000000000025E-002     2.4765729449427454E-006
   2.9600000000000015E-002     1.1528384220582666E-006
   3.0700000000000005E-002    -8.6734195292592631E-007
   3.1800000000000023E-002    -1.5333023384300759E-006
   3.2900000000000013E-002     1.8159667547479330E-007
   3.4000000000000002E-002     3.1634165225113975E-006
   3.5100000000000020E-002     4.7237249418685678E-006
   3.6200000000000010E-002     2.6588083983369870E-006
   3.7300000000000028E-002    -2.6868410714087076E-006
   3.8400000000000017E-002    -8.1000371210393496E-006
   3.9500000000000007E-002    -9.5007135314517654E-006
   4.0600000000000025E-002    -5.0107978495361749E-006
   4.1700000000000015E-002     3.2306870707543567E-006
   4.2800000000000005E-002     1.0131579983863048E-005
   4.3900000000000022E-002     1.1103757969976868E-005
   4.5000000000000012E-002     5.4648498917231336E-006
   4.6100000000000002E-002    -2.8617801035579760E-006
   4.7200000000000020E-002    -8.0915588114294223E-006
   4.8300000000000010E-002    -6.8562162596208509E-006
   4.9400000000000027E-002    -7.7019171840220224E-007
   5.0500000000000017E-002     4.8034858082246501E-006
   5.1600000000000007E-002     4.9926266001421027E-006
   5.2700000000000025E-002    -5.5995951697696000E-007
   5.3800000000000014E-002    -7.1229351306101307E-006
   5.4900000000000004E-002    -8.4459070421871729E-006
   5.6000000000000022E-002    -1.9204715044907061E-006
   5.7100000000000012E-002     8.6648951764800586E-006
   5.8200000000000002E-002     1.5199775589280762E-005
   5.9300000000000019E-002     1.1022289072570857E-005
   6.0400000000000009E-002    -3.6933859064447461E-006
   6.1500000000000027E-002    -2.1076693883514963E-005
   6.2600000000000017E-002    -3.0323939427034929E-005
   6.3700000000000007E-002    -2.5080860723392107E-005
   6.4800000000000024E-002    -8.2494179878267460E-006
   6.5900000000000014E-002     9.4970746431499720E-006
   6.7000000000000004E-002     1.6858177332323976E-005
   6.8100000000000022E-002     9.8340942713548429E-006
   6.9200000000000012E-002    -5.4065494623500854E-006
   7.0300000000000029E-002    -1.7218793800566345E-005
   7.1400000000000019E-002    -1.7666992789600044E-005
   7.2500000000000009E-002    -9.3739326985087246E-006
   7.3600000000000027E-002    -4.3589780034380965E-006
   7.4700000000000016E-002    -1.4935122635506559E-005
   7.5800000000000006E-002    -4.3097486923215911E-005
   7.6900000000000024E-002    -7.6829011959489435E-005
   7.8000000000000014E-002    -9.7246746008750051E-005
   7.9100000000000004E-002    -9.2326881713233888E-005
   8.0200000000000021E-002    -6.7207642132416368E-005
   8.1300000000000011E-002    -4.2654031858546659E-005
   8.2400000000000029E-002    -4.1692226659506559E-005
   8.3500000000000019E-002    -7.3619965405669063E-005
   8.4600000000000009E-002    -1.2734004121739417E-004
   8.5700000000000026E-002    -1.7952812777366489E-004
   8.6800000000000016E-002    -2.1201003983151168E-004
   8.7900000000000006E-002    -2.2539964993484318E-004
   8.9000000000000024E-002    -2.3844132374506444E-004
   9.0100000000000013E-002    -2.7328683063387871E-004
   9.1200000000000003E-002    -3.3784736297093332E-004
   9.2300000000000021E-002    -4.1889239219017327E-004
   9.3400000000000011E-002    -4.9163110088557005E-004
   9.4500000000000028E-002    -5.3886167006567121E-004
   9.5600000000000018E-002    -5.6532170856371522E-004
   9.6700000000000008E-002    -5.9604173293337226E-004
   9.7800000000000026E-002    -6.5938360057771206E-004
   9.8900000000000016E-002    -7.6687510591000319E-004
  0.10000000000000001         -9.0455758618190885E-004
  0.10110000000000002         -1.0423896601423621E-003
  0.10220000000000001         -1.1552619980648160E-003
  0.10330000000000003         -1.2405725428834558E-003
  0.10440000000000002         -1.3195741921663284E-003
  0.10550000000000001         -1.4211134985089302E-003
  0.10660000000000003         -1.5591256087645888E-003
  0.10770000000000002         -1.7201835289597511E-003
  0.10880000000000001         -1.8708561547100544E-003
  0.10990000000000003         -1.9804015755653381E-003
  0.11100000000000002         -2.0430576987564564E-003
  0.11210000000000001         -2.0825956016778946E-003
  0.11320000000000002         -2.1346644498407841E-003
  0.11430000000000001         -2.2183568216860294E-003
  0.11540000000000003         -2.3181024007499218E-003
  0.11650000000000002         -2.3898982908576727E-003
  0.11760000000000001         -2.3895367048680782E-003
  0.11870000000000003         -2.3019686341285706E-003
  0.11980000000000002         -2.1496962290257215E-003
  0.12090000000000001         -1.9734909292310476E-003
  0.12200000000000003         -1.7985948361456394E-003
  0.12310000000000001         -1.6118146013468504E-003
  0.12420000000000003         -1.3681618729606271E-003
  0.12530000000000002         -1.0216988157480955E-003
  0.12640000000000001         -5.5839947890490294E-004
  0.12750000000000003         -4.7960061237972695E-006
  0.12860000000000002          5.9359584702178836E-004
  0.12970000000000001          1.2071985984221101E-003
  0.13080000000000003          1.8449535127729177E-003
  0.13190000000000002          2.5458962190896273E-003
  0.13300000000000001          3.3476168755441904E-003
  0.13410000000000000          4.2549073696136475E-003
  0.13520000000000004          5.2324226126074791E-003
  0.13630000000000003          6.2249582260847092E-003
  0.13740000000000002          7.1905246004462242E-003
  0.13850000000000001          8.1212781369686127E-003
  0.13960000000000000          9.0382033959031105E-003
  0.14070000000000005          9.9643776193261147E-003
  0.14180000000000004          1.0897253639996052E-002
  0.14290000000000003          1.1798600666224957E-002
  0.14400000000000002          1.2609098106622696E-002
  0.14510000000000001          1.3277757912874222E-002
  0.14620000000000000          1.3785298913717270E-002
  0.14730000000000004          1.4144297689199448E-002
  0.14840000000000003          1.4377851970493793E-002
  0.14950000000000002          1.4490098692476749E-002
  0.15060000000000001          1.4448338188230991E-002
  0.15170000000000000          1.4194131828844547E-002
  0.15280000000000005          1.3673772104084492E-002
  0.15390000000000004          1.2870068661868572E-002
  0.15500000000000003          1.1810364201664925E-002
  0.15610000000000002          1.0544117540121078E-002
  0.15720000000000001          9.1065131127834320E-003
  0.15830000000000000          7.4948957189917564E-003
  0.15940000000000004          5.6778891012072563E-003
  0.16050000000000003          3.6304681561887264E-003
  0.16160000000000002          1.3677190290763974E-003
  0.16270000000000001         -1.0507232509553432E-003
  0.16380000000000000         -3.5492617171257734E-003
  0.16490000000000005         -6.0731004923582077E-003
  0.16600000000000004         -8.6064618080854416E-003
  0.16710000000000003         -1.1154707521200180E-002
  0.16820000000000002         -1.3708996586501598E-002
  0.16930000000000001         -1.6222164034843445E-002
  0.17040000000000000         -1.8614534288644791E-002
  0.17150000000000004         -2.0804008468985558E-002
  0.17260000000000003         -2.2738423198461533E-002
  0.17370000000000002         -2.4401959031820297E-002
  0.17480000000000001         -2.5798518210649490E-002
  0.17590000000000000         -2.6924563571810722E-002
  0.17700000000000005         -2.7755426242947578E-002
  0.17810000000000004         -2.8250914067029953E-002
  0.17920000000000003         -2.8370048850774765E-002
  0.18030000000000002         -2.8089644387364388E-002
  0.18140000000000001         -2.7411675080657005E-002
  0.18250000000000000         -2.6357751339673996E-002
  0.18360000000000004         -2.4960441514849663E-002
  0.18470000000000003         -2.3251190781593323E-002
  0.18580000000000002         -2.1250944584608078E-002
  0.18690000000000001         -1.8972950056195259E-002
  0.18800000000000000         -1.6433237120509148E-002
  0.18910000000000005         -1.3663894496858120E-002
  0.19020000000000004         -1.0719638317823410E-002
  0.19130000000000003         -7.6700220815837383E-003
  0.19240000000000002         -4.5803887769579887E-003
  0.19350000000000001         -1.4953267527744174E-003
  0.19460000000000005          1.5592880081385374E-003
  0.19570000000000004          4.5596421696245670E-003
  0.19680000000000003          7.4639455415308475E-003
  0.19790000000000002          1.0210885666310787E-002
  0.19900000000000001          1.2737737037241459E-002
  0.20010000000000000          1.5003622509539127E-002
  0.20120000000000005          1.6997573897242546E-002
  0.20230000000000004          1.8722422420978546E-002
  0.20340000000000003          2.0171405747532845E-002
  0.20450000000000002          2.1317655220627785E-002
  0.20560000000000000          2.2128941491246223E-002
  0.20670000000000005          2.2592669352889061E-002
  0.20780000000000004          2.2727470844984055E-002
  0.20890000000000003          2.2570833563804626E-002
