 -0.12000000000000000          0.0000000000000000
 -0.11889999999999999          0.0000000000000000
 -0.11780000000000000          0.0000000000000000
 -0.11670000000000000          0.0000000000000000
 -0.11559999999999999          0.0000000000000000
 -0.11449999999999999          0.0000000000000000
 -0.11340000000000000          0.0000000000000000
 -0.11230000000000000         -6.2929880509375021E-022
 -0.11119999999999999         -3.5545380716017094E-021
 -0.11009999999999999         -3.1900335433690802E-021
 -0.10900000000000000          3.1297435069929368E-020
 -0.10790000000000000          1.2212071926138674E-019
 -0.10679999999999999          9.9813486985467153E-020
 -0.10569999999999999         -5.4438844743161448E-019
 -0.10460000000000000         -1.9941891478242249E-018
 -0.10349999999999999         -2.1591603948305756E-018
 -0.10239999999999999          4.1990318327539603E-018
 -0.10130000000000000          1.9487395849904069E-017
 -0.10020000000000000          2.8906306270420833E-017
  -9.9099999999999994E-002    -5.9348347794301491E-018
  -9.7999999999999990E-002    -1.1283116779115681E-016
  -9.6899999999999986E-002    -2.2735232513076357E-016
  -9.5799999999999996E-002    -1.4335050603455810E-016
  -9.4699999999999993E-002     3.5282387147291471E-016
  -9.3599999999999989E-002     1.1156230714221395E-015
  -9.2499999999999999E-002     1.3324818230067248E-015
  -9.1399999999999995E-002    -1.3114499949264005E-016
  -9.0299999999999991E-002    -3.4280141235804333E-015
  -8.9200000000000002E-002    -6.2775797066020114E-015
  -8.8099999999999984E-002    -4.3224718102767914E-015
  -8.6999999999999994E-002     5.2569282985666290E-015
  -8.5899999999999990E-002     1.8486245046138612E-014
  -8.4799999999999986E-002     2.3060040002195227E-014
  -8.3699999999999997E-002     5.8278196111700813E-015
  -8.2599999999999993E-002    -3.2363062154195515E-014
  -8.1499999999999989E-002    -6.6540841575906534E-014
  -8.0399999999999999E-002    -5.7644217361669386E-014
  -7.9299999999999995E-002     1.4629156854005856E-014
  -7.8199999999999992E-002     1.1799202836570294E-013
  -7.7100000000000002E-002     1.6941530372582142E-013
  -7.5999999999999984E-002     9.1534893271842666E-014
  -7.4899999999999994E-002    -1.0638046026760842E-013
  -7.3799999999999991E-002    -2.9513051074195329E-013
  -7.2699999999999987E-002    -2.9776598938283105E-013
  -7.1599999999999997E-002    -4.1849776953335055E-014
  -7.0499999999999993E-002     3.2824979713519387E-013
  -6.9399999999999989E-002     5.0938821303386783E-013
  -6.8300000000000000E-002     2.7733601548098064E-013
  -6.7199999999999996E-002    -2.6603946910036536E-013
  -6.6099999999999992E-002    -6.8081911636097558E-013
  -6.5000000000000002E-002    -5.0979912565723984E-013
  -6.3899999999999985E-002     2.7018553952311286E-013
  -6.2799999999999995E-002     1.0703164700018308E-012
  -6.1699999999999991E-002     1.0562734497829296E-012
  -6.0599999999999994E-002    -1.1537010225198124E-013
  -5.9499999999999990E-002    -1.7827589448085601E-012
  -5.8399999999999994E-002    -2.5506931636276597E-012
  -5.7299999999999990E-002    -1.3369015096353909E-012
  -5.6199999999999986E-002     1.5468276616179000E-012
  -5.5099999999999996E-002     4.2502568305124999E-012
  -5.3999999999999992E-002     4.5458931757780263E-012
  -5.2899999999999989E-002     1.5874966272089175E-012
  -5.1799999999999985E-002    -3.1170183621698211E-012
  -5.0699999999999995E-002    -6.4867508066390744E-012
  -4.9599999999999991E-002    -6.0379171280822153E-012
  -4.8499999999999988E-002    -1.8473599386337192E-012
  -4.7399999999999998E-002     3.3222933952525846E-012
  -4.6299999999999994E-002     6.0160396629649338E-012
  -4.5199999999999990E-002     4.7364438759966987E-012
  -4.4099999999999986E-002     1.1103431542258679E-012
  -4.2999999999999997E-002    -1.4917987635129637E-012
  -4.1899999999999993E-002    -8.7489298574924823E-013
  -4.0799999999999989E-002     1.9219636732820122E-012
  -3.9699999999999985E-002     3.2922221806369611E-012
  -3.8599999999999995E-002     1.5757993597053516E-013
  -3.7499999999999992E-002    -6.9083150658344472E-012
  -3.6399999999999988E-002    -1.3219543515408105E-011
  -3.5299999999999984E-002    -1.2969439758259149E-011
  -3.4199999999999994E-002    -3.7418245585341126E-012
  -3.3099999999999991E-002     1.0823520031622014E-011
  -3.1999999999999987E-002     2.2516721126519812E-011
  -3.0899999999999997E-002     2.3598862447515856E-011
  -2.9799999999999993E-002     1.2122742913678319E-011
  -2.8699999999999989E-002    -6.2157431979237288E-012
  -2.7599999999999986E-002    -2.1250114515258822E-011
  -2.6499999999999996E-002    -2.4656193753358480E-011
  -2.5399999999999992E-002    -1.5214144180597522E-011
  -2.4299999999999988E-002     6.3821875301989239E-013
  -2.3199999999999985E-002     1.3426657355375404E-011
  -2.2099999999999995E-002     1.7151937856119126E-011
  -2.0999999999999991E-002     1.2815279219757780E-011
  -1.9899999999999987E-002     6.0764943424218565E-012
  -1.8799999999999983E-002     6.3131428253496158E-013
  -1.7699999999999994E-002    -7.3688494542367700E-012
  -1.6599999999999990E-002    -2.8651416308922428E-011
  -1.5499999999999986E-002    -7.3198766492588163E-011
  -1.4399999999999996E-002    -1.4081583121772212E-010
  -1.3299999999999992E-002    -2.1761298318878630E-010
  -1.2199999999999989E-002    -2.8270344398784175E-010
  -1.1099999999999985E-002    -3.2186026066582940E-010
  -9.9999999999999950E-003    -3.3881333849627993E-010
  -8.8999999999999913E-003    -3.5549466148587783E-010
  -7.7999999999999875E-003    -4.0018108271588915E-010
  -6.6999999999999837E-003    -4.9168702442869971E-010
  -5.5999999999999939E-003    -6.3121557980494458E-010
  -4.4999999999999901E-003    -8.0794892998170553E-010
  -3.3999999999999864E-003    -1.0138583306229521E-009
  -2.2999999999999826E-003    -1.2558649675753486E-009
  -1.1999999999999927E-003    -1.5554917354165809E-009
  -9.9999999999988987E-005    -1.9362131897793233E-009
   1.0000000000000148E-003    -2.4088853134429655E-009
   2.1000000000000185E-003    -2.9676672230749546E-009
   3.2000000000000084E-003    -3.6008973580692327E-009
   4.3000000000000121E-003    -4.3096566315625751E-009
   5.4000000000000159E-003    -5.1205044648838793E-009
   6.5000000000000058E-003    -6.0829874470869072E-009
   7.6000000000000234E-003    -7.2537549300477622E-009
   8.7000000000000133E-003    -8.6788070063903433E-009
   9.8000000000000032E-003    -1.0386358439973264E-008
   1.0900000000000021E-002    -1.2394663073678203E-008
   1.2000000000000011E-002    -1.4728319008838753E-008
   1.3100000000000001E-002    -1.7430949128538487E-008
   1.4200000000000018E-002    -2.0565515512771526E-008
   1.5300000000000008E-002    -2.4202888582181004E-008
   1.6400000000000026E-002    -2.8407958652110210E-008
   1.7500000000000016E-002    -3.3234222485134524E-008
   1.8600000000000005E-002    -3.8731624130150522E-008
   1.9700000000000023E-002    -4.4962533252146386E-008
   2.0800000000000013E-002    -5.2014282658774391E-008
   2.1900000000000003E-002    -5.9998136237027211E-008
   2.3000000000000020E-002    -6.9033816885166743E-008
   2.4100000000000010E-002    -7.9229266702895984E-008
   2.5200000000000000E-002    -9.0669544761112775E-008
   2.6300000000000018E-002    -1.0342314737954439E-007
   2.7400000000000008E-002    -1.1756113593719419E-007
   2.8500000000000025E-002    -1.3317442437710270E-007
   2.9600000000000015E-002    -1.5037483080959646E-007
   3.0700000000000005E-002    -1.6927704393765453E-007
   3.1800000000000023E-002    -1.8997280903931824E-007
   3.2900000000000013E-002    -2.1251473469874327E-007
   3.4000000000000002E-002    -2.3691936235081812E-007
   3.5100000000000020E-002    -2.6318389245716389E-007
   3.6200000000000010E-002    -2.9130055168025137E-007
   3.7300000000000028E-002    -3.2125481652656163E-007
   3.8400000000000017E-002    -3.5300766398904670E-007
   3.9500000000000007E-002    -3.8647493738608318E-007
   4.0600000000000025E-002    -4.2151793877565069E-007
   4.1700000000000015E-002    -4.5795025016559521E-007
   4.2800000000000005E-002    -4.9555046643945388E-007
   4.3900000000000022E-002    -5.3406694178192993E-007
   4.5000000000000012E-002    -5.7320886526213144E-007
   4.6100000000000002E-002    -6.1262755934876623E-007
   4.7200000000000020E-002    -6.5190346276722266E-007
   4.8300000000000010E-002    -6.9054590312589426E-007
   4.9400000000000027E-002    -7.2800565931174788E-007
   5.0500000000000017E-002    -7.6369008183974074E-007
   5.1600000000000007E-002    -7.9697144883539295E-007
   5.2700000000000025E-002    -8.2718702287820634E-007
   5.3800000000000014E-002    -8.5363416246764245E-007
   5.4900000000000004E-002    -8.7556918515474536E-007
   5.6000000000000022E-002    -8.9221316557086539E-007
   5.7100000000000012E-002    -9.0276466835348401E-007
   5.8200000000000002E-002    -9.0641742644947954E-007
   5.9300000000000019E-002    -9.0237972472095862E-007
   6.0400000000000009E-002    -8.8989224877877859E-007
   6.1500000000000027E-002    -8.6824309164512670E-007
   6.2600000000000017E-002    -8.3677912243729224E-007
   6.3700000000000007E-002    -7.9491644555673702E-007
   6.4800000000000024E-002    -7.4215421363987844E-007
   6.5900000000000014E-002    -6.7809236270477413E-007
   6.7000000000000004E-002    -6.0245162103456096E-007
   6.8100000000000022E-002    -5.1509096010704525E-007
   6.9200000000000012E-002    -4.1602027067710878E-007
   7.0300000000000029E-002    -3.0540940088030766E-007
   7.1400000000000019E-002    -1.8359914122356713E-007
   7.2500000000000009E-002    -5.1114554366904486E-008
   7.3600000000000027E-002     9.1322888806644187E-008
   7.4700000000000016E-002     2.4279117383230187E-007
   7.5800000000000006E-002     4.0217440755441203E-007
   7.6900000000000024E-002     5.6817509630491259E-007
   7.8000000000000014E-002     7.3932471877924399E-007
   7.9100000000000004E-002     9.1398885615490144E-007
   8.0200000000000021E-002     1.0903734164458001E-006
   8.1300000000000011E-002     1.2665401527556241E-006
   8.2400000000000029E-002     1.4404334933715290E-006
   8.3500000000000019E-002     1.6099113508971641E-006
   8.4600000000000009E-002     1.7727703607306466E-006
   8.5700000000000026E-002     1.9267645257059485E-006
   8.6800000000000016E-002     2.0696245428553084E-006
   8.7900000000000006E-002     2.1990913410263602E-006
   8.9000000000000024E-002     2.3129625787987607E-006
   9.0100000000000013E-002     2.4091423256322742E-006
   9.1200000000000003E-002     2.4856735763023607E-006
   9.2300000000000021E-002     2.5407559860468609E-006
   9.3400000000000011E-002     2.5727549655130133E-006
   9.4500000000000028E-002     2.5802244181249989E-006
   9.5600000000000018E-002     2.5619431198720122E-006
   9.6700000000000008E-002     2.5169536002067616E-006
   9.7800000000000026E-002     2.4445798771921545E-006
   9.8900000000000016E-002     2.3444254111382179E-006
  0.10000000000000001          2.2163594621815719E-006
  0.10110000000000002          2.0605166355380788E-006
  0.10220000000000001          1.8773121155390982E-006
  0.10330000000000003          1.6674580365361180E-006
  0.10440000000000002          1.4319574574983562E-006
  0.10550000000000001          1.1720742350007640E-006
  0.10660000000000003          8.8929573394125327E-007
  0.10770000000000002          5.8531225022306899E-007
  0.10880000000000001          2.6201544756077055E-007
  0.10990000000000003         -7.8502054634554952E-008
  0.11100000000000002         -4.3396815385676746E-007
  0.11210000000000001         -8.0197492025035899E-007
  0.11320000000000002         -1.1800212860180181E-006
  0.11430000000000001         -1.5655301695005619E-006
  0.11540000000000003         -1.9558378880901728E-006
  0.11650000000000002         -2.3481838979932945E-006
  0.11760000000000001         -2.7397245503379963E-006
  0.11870000000000003         -3.1275740184355527E-006
  0.11980000000000002         -3.5088414733763784E-006
  0.12090000000000001         -3.8806356315035373E-006
  0.12200000000000003         -4.2400361053296365E-006
  0.12310000000000001         -4.5840656639484223E-006
  0.12420000000000003         -4.9096979637397453E-006
  0.12530000000000002         -5.2138925639155786E-006
  0.12640000000000001         -5.4936313063080888E-006
  0.12750000000000003         -5.7459160416328814E-006
  0.12860000000000002         -5.9677395256585442E-006
  0.12970000000000001         -6.1560572248708922E-006
  0.13080000000000003         -6.3078082348511089E-006
  0.13190000000000002         -6.4199734879366588E-006
  0.13300000000000001         -6.4896380536083598E-006
  0.13410000000000000         -6.5140116021211725E-006
  0.13520000000000004         -6.4904215832939371E-006
  0.13630000000000003         -6.4163168644881807E-006
  0.13740000000000002         -6.2893209360481706E-006
  0.13850000000000001         -6.1073305914760567E-006
  0.13960000000000000         -5.8686086958914530E-006
  0.14070000000000005         -5.5718360272294376E-006
  0.14180000000000004         -5.2161176427034661E-006
  0.14290000000000003         -4.8010051614255644E-006
  0.14400000000000002         -4.3265690692351200E-006
  0.14510000000000001         -3.7935139971523313E-006
  0.14620000000000000         -3.2032762646849733E-006
  0.14730000000000004         -2.5580611691111699E-006
  0.14840000000000003         -1.8608153595778276E-006
  0.14950000000000002         -1.1152029628647142E-006
  0.15060000000000001         -3.2563042395850061E-007
  0.15170000000000000          5.0268613449588884E-007
  0.15280000000000005          1.3636763469548896E-006
  0.15390000000000004          2.2504530079459073E-006
  0.15500000000000003          3.1554291126667522E-006
  0.15610000000000002          4.0704508137423545E-006
  0.15720000000000001          4.9868767746374942E-006
  0.15830000000000000          5.8956097745976876E-006
  0.15940000000000004          6.7871364990423899E-006
  0.16050000000000003          7.6516507760970853E-006
  0.16160000000000002          8.4792573034064844E-006
  0.16270000000000001          9.2601940195891075E-006
  0.16380000000000000          9.9849994512624107E-006
  0.16490000000000005          1.0644597750797402E-005
  0.16600000000000004          1.1230383279325906E-005
  0.16710000000000003          1.1734349754988216E-005
  0.16820000000000002          1.2149294889240991E-005
  0.16930000000000001          1.2469035937101580E-005
  0.17040000000000000          1.2688552487816196E-005
  0.17150000000000004          1.2804042853531428E-005
  0.17260000000000003          1.2812931345251855E-005
  0.17370000000000002          1.2713904652628116E-005
  0.17480000000000001          1.2506986422522459E-005
  0.17590000000000000          1.2193625479994807E-005
  0.17700000000000005          1.1776717656175606E-005
  0.17810000000000004          1.1260540304647293E-005
  0.17920000000000003          1.0650628610164858E-005
  0.18030000000000002          9.9536619018181227E-006
  0.18140000000000001          9.1773817985085770E-006
  0.18250000000000000          8.3305249063414522E-006
  0.18360000000000004          7.4227186814823654E-006
  0.18470000000000003          6.4643081714166328E-006
  0.18580000000000002          5.4661395552102476E-006
  0.18690000000000001          4.4393500502337702E-006
  0.18800000000000000          3.3952053399843862E-006
  0.18910000000000005          2.3449624677596148E-006
  0.19020000000000004          1.2997318208363140E-006
  0.19130000000000003          2.7030546334572136E-007
  0.19240000000000002         -7.3302987857459811E-007
  0.19350000000000001         -1.7006607322400669E-006
  0.19460000000000005         -2.6237707970722113E-006
  0.19570000000000004         -3.4944243907375494E-006
  0.19680000000000003         -4.3056325012003072E-006
  0.19790000000000002         -5.0514190661488101E-006
  0.19900000000000001         -5.7268862292403355E-006
  0.20010000000000000         -6.3282573137257714E-006
  0.20120000000000005         -6.8528820520441514E-006
  0.20230000000000004         -7.2992147579498123E-006
  0.20340000000000003         -7.6667720350087620E-006
  0.20450000000000002         -7.9560795711586252E-006
  0.20560000000000000         -8.1686148405424319E-006
  0.20670000000000005         -8.3067261584801599E-006
  0.20780000000000004         -8.3735467342194170E-006
  0.20890000000000003         -8.3729009929811582E-006
