 -0.12000000000000000          0.0000000000000000
 -0.11889999999999999          0.0000000000000000
 -0.11780000000000000          0.0000000000000000
 -0.11670000000000000          0.0000000000000000
 -0.11559999999999999          0.0000000000000000
 -0.11449999999999999          0.0000000000000000
 -0.11340000000000000          0.0000000000000000
 -0.11230000000000000          0.0000000000000000
 -0.11119999999999999          0.0000000000000000
 -0.11009999999999999          0.0000000000000000
 -0.10900000000000000          0.0000000000000000
 -0.10790000000000000          0.0000000000000000
 -0.10679999999999999          0.0000000000000000
 -0.10569999999999999          0.0000000000000000
 -0.10460000000000000          0.0000000000000000
 -0.10349999999999999          0.0000000000000000
 -0.10239999999999999          0.0000000000000000
 -0.10130000000000000          2.9308717900739279E-040
 -0.10020000000000000          2.4994638409514967E-039
  -9.9099999999999994E-002    -7.4028818221230393E-039
  -9.7999999999999990E-002    -2.1827828875963899E-037
  -9.6899999999999986E-002    -1.4622544542658872E-036
  -9.5799999999999996E-002    -4.5627031336470465E-036
  -9.4699999999999993E-002    -6.9700347955296852E-037
  -9.3599999999999989E-002     5.9055716940202299E-035
  -9.2499999999999999E-002     2.7628867435362529E-034
  -9.1399999999999995E-002     5.6888356756956733E-034
  -9.0299999999999991E-002    -2.2713836272761647E-034
  -8.9200000000000002E-002    -5.4833975585738353E-033
  -8.8099999999999984E-002    -1.8111291089708173E-032
  -8.6999999999999994E-002    -2.5380980149367126E-032
  -8.5899999999999990E-002     2.9670209159987924E-032
  -8.4799999999999986E-002     2.4545121381327922E-031
  -8.3699999999999997E-002     6.0480209380880609E-031
  -8.2599999999999993E-002     5.6251081633175829E-031
  -8.1499999999999989E-002    -1.3146963918466628E-030
  -8.0399999999999999E-002    -6.4433994974221661E-030
  -7.9299999999999995E-002    -1.2372090455624921E-029
  -7.8199999999999992E-002    -6.7999312598457769E-030
  -7.7100000000000002E-002     3.2088246813379390E-029
  -7.5999999999999984E-002     1.1221088968407101E-028
  -7.4899999999999994E-002     1.7268407882460941E-028
  -7.3799999999999991E-002     3.6370233062577370E-029
  -7.2699999999999987E-002    -5.1410615046252462E-028
  -7.1599999999999997E-002    -1.4053656211904461E-027
  -7.0499999999999993E-002    -1.7640241399033952E-027
  -6.9399999999999989E-002     2.0128161071570786E-028
  -6.8300000000000000E-002     5.9304748628508055E-027
  -6.7199999999999996E-002     1.3385052876119916E-026
  -6.6099999999999992E-002     1.3880281879787783E-026
  -6.5000000000000002E-002    -6.0488625469042666E-027
  -6.3899999999999985E-002    -5.2140420968995733E-026
  -6.2799999999999995E-002    -1.0103676856181067E-025
  -6.1699999999999991E-002    -8.7923188607675761E-026
  -6.0599999999999994E-002     6.5423433454430147E-026
  -5.9499999999999990E-002     3.6311587942065919E-025
  -5.8399999999999994E-002     6.2501030438304867E-025
  -5.7299999999999990E-002     4.7000273568499992E-025
  -5.6199999999999986E-002    -4.6574559850616815E-025
  -5.5099999999999996E-002    -2.0604185013833874E-024
  -5.3999999999999992E-002    -3.2648262851410875E-024
  -5.2899999999999989E-002    -2.2436844975168435E-024
  -5.1799999999999985E-002     2.4264454254557319E-024
  -5.0699999999999995E-002     9.7427887446086557E-024
  -4.9599999999999991E-002     1.4828958386968456E-023
  -4.8499999999999988E-002     1.0145900611481119E-023
  -4.7399999999999998E-002    -9.4121061417490598E-024
  -4.6299999999999994E-002    -3.9168496422484711E-023
  -4.5199999999999990E-002    -6.0283361981796533E-023
  -4.4099999999999986E-002    -4.4987408982989911E-023
  -4.2999999999999997E-002     2.5542195928570948E-023
  -4.1899999999999993E-002     1.3660613418935980E-022
  -4.0799999999999989E-002     2.2495861868298554E-022
  -3.9699999999999985E-002     1.9371123238200605E-022
  -3.8599999999999995E-002    -3.1925932897214393E-023
  -3.7499999999999992E-002    -4.2238894526898691E-022
  -3.6399999999999988E-002    -7.8255486474064539E-022
  -3.5299999999999984E-002    -7.8068764991064898E-022
  -3.4199999999999994E-002    -1.1873323451501667E-022
  -3.3099999999999991E-002     1.1830208479607866E-021
  -3.1999999999999987E-002     2.5393618836455747E-021
  -3.0899999999999997E-002     2.8447454143521452E-021
  -2.9799999999999993E-002     1.0165993182727024E-021
  -2.8699999999999989E-002    -3.0402193406496495E-021
  -2.7599999999999986E-002    -7.5854635135807723E-021
  -2.6499999999999996E-002    -9.1788032048461360E-021
  -2.5399999999999992E-002    -4.4242752687453864E-021
  -2.4299999999999988E-002     7.0795682519964369E-021
  -2.3199999999999985E-002     2.0391803479086422E-020
  -2.2099999999999995E-002     2.5971097936665381E-020
  -2.0999999999999991E-002     1.4799396916328792E-020
  -1.9899999999999987E-002    -1.3952780790555036E-020
  -1.8799999999999983E-002    -4.7840530333107076E-020
  -1.7699999999999994E-002    -6.4222574177255563E-020
  -1.6599999999999990E-002    -4.2850036606475287E-020
  -1.5499999999999986E-002     1.8023499759229008E-020
  -1.4399999999999996E-002     9.3219978624018685E-020
  -1.3299999999999992E-002     1.3880751130660140E-019
  -1.2199999999999989E-002     1.1545532373482859E-019
  -1.1099999999999985E-002     1.3935243592216631E-020
  -9.9999999999999950E-003    -1.3349973888509297E-019
  -8.8999999999999913E-003    -2.6294887770809033E-019
  -7.7999999999999875E-003    -3.0272471049270936E-019
  -6.6999999999999837E-003    -1.9834541270814824E-019
  -5.5999999999999939E-003     6.5474957936403524E-020
  -4.4999999999999901E-003     4.3874750534245392E-019
  -3.3999999999999864E-003     7.7686161322899018E-019
  -2.2999999999999826E-003     8.4091677380508325E-019
  -1.1999999999999927E-003     3.8534844730878694E-019
  -9.9999999999988987E-005    -6.4449270778943963E-019
   1.0000000000000148E-003    -1.8937049013725082E-018
   2.1000000000000185E-003    -2.5652944950655365E-018
   3.2000000000000084E-003    -1.7684652071386108E-018
   4.3000000000000121E-003     7.9171834571711369E-019
   5.4000000000000159E-003     4.1875989559175587E-018
   6.5000000000000058E-003     6.3135056561477369E-018
   7.6000000000000234E-003     4.9505779452272831E-018
   8.7000000000000133E-003    -5.3002538667282027E-019
   9.8000000000000032E-003    -7.9586860036350662E-018
   1.0900000000000021E-002    -1.2870320699213659E-017
   1.2000000000000011E-002    -1.0983797173124183E-017
   1.3100000000000001E-002    -1.3784556487768758E-018
   1.4200000000000018E-002     1.1895638894191401E-017
   1.5300000000000008E-002     2.1416844259520759E-017
   1.6400000000000026E-002     2.0692172831558978E-017
   1.7500000000000016E-002     8.4375201807267001E-018
   1.8600000000000005E-002    -1.0253644019243013E-017
   1.9700000000000023E-002    -2.6800767652003854E-017
   2.0800000000000013E-002    -3.3878227543403515E-017
   2.1900000000000003E-002    -2.8388491206962638E-017
   2.3000000000000020E-002    -1.0957947778981901E-017
   2.4100000000000010E-002     1.6005173920570186E-017
   2.5200000000000000E-002     4.7882855226346853E-017
   2.6300000000000018E-002     7.4144254796851831E-017
   2.7400000000000008E-002     7.6217831156399760E-017
   2.8500000000000025E-002     3.4380680208525376E-017
   2.9600000000000015E-002    -5.4621621052853002E-017
   3.0700000000000005E-002    -1.5966653112060327E-016
   3.1800000000000023E-002    -2.1596378186647229E-016
   3.2900000000000013E-002    -1.5677052547394081E-016
   3.4000000000000002E-002     3.4231635497033121E-017
   3.5100000000000020E-002     2.8476051252651581E-016
   3.6200000000000010E-002     4.4875461438398010E-016
   3.7300000000000028E-002     3.8430199807304867E-016
   3.8400000000000017E-002     5.6723559781244150E-017
   3.9500000000000007E-002    -4.0376268591533462E-016
   4.0600000000000025E-002    -7.4550514297667654E-016
   4.1700000000000015E-002    -7.3301606568588551E-016
   4.2800000000000005E-002    -3.0064296262268518E-016
   4.3900000000000022E-002     3.8050549052433648E-016
   4.5000000000000012E-002     9.7685641653054607E-016
   4.6100000000000002E-002     1.1692019287424735E-015
   4.7200000000000020E-002     8.2302104550729862E-016
   4.8300000000000010E-002     5.0863332557163222E-017
   4.9400000000000027E-002    -8.5434771202855166E-016
   5.0500000000000017E-002    -1.5492926113506718E-015
   5.1600000000000007E-002    -1.7468661167921711E-015
   5.2700000000000025E-002    -1.2711263561976491E-015
   5.3800000000000014E-002    -1.0557538430330297E-016
   5.4900000000000004E-002     1.5186129721220026E-015
   5.6000000000000022E-002     3.0389009518972006E-015
   5.7100000000000012E-002     3.6269239293753447E-015
   5.8200000000000002E-002     2.5279675017398544E-015
   5.9300000000000019E-002    -3.9248452163198242E-016
   6.0400000000000009E-002    -4.2156143688159252E-015
   6.1500000000000027E-002    -7.0646613559155469E-015
   6.2600000000000017E-002    -6.9184579635052975E-015
   6.3700000000000007E-002    -2.8532076129365348E-015
   6.4800000000000024E-002     4.0052660183430549E-015
   6.5900000000000014E-002     1.0558881480477508E-014
   6.7000000000000004E-002     1.3075329122376467E-014
   6.8100000000000022E-002     9.2280317840810235E-015
   6.9200000000000012E-002    -2.8576617886292308E-016
   7.0300000000000029E-002    -1.1589944193984066E-014
   7.1400000000000019E-002    -1.9224259770883600E-014
   7.2500000000000009E-002    -1.8778886459085500E-014
   7.3600000000000027E-002    -9.2309015317063210E-015
   7.4700000000000016E-002     6.2299908545264231E-015
   7.5800000000000006E-002     2.1317991385290565E-014
   7.6900000000000024E-002     2.9193356445352675E-014
   7.8000000000000014E-002     2.5324829920300197E-014
   7.9100000000000004E-002     9.5576182330883025E-015
   8.0200000000000021E-002    -1.3323328510871264E-014
   8.1300000000000011E-002    -3.4753721168262475E-014
   8.2400000000000029E-002    -4.5097907748698277E-014
   8.3500000000000019E-002    -3.7355979176948925E-014
   8.4600000000000009E-002    -1.0830945922036747E-014
   8.5700000000000026E-002     2.6791428504955445E-014
   8.6800000000000016E-002     6.0572057894621445E-014
   8.7900000000000006E-002     7.3401510293068933E-014
   8.9000000000000024E-002     5.3894070467259275E-014
   9.0100000000000013E-002     3.8200571822282186E-015
   9.1200000000000003E-002    -5.9200528593900126E-014
   9.2300000000000021E-002    -1.0673270400092180E-013
   9.3400000000000011E-002    -1.1170034894866093E-013
   9.4500000000000028E-002    -6.2801977160353850E-014
   9.5600000000000018E-002     2.6257360679184452E-014
   9.6700000000000008E-002     1.1888478753958182E-013
   9.7800000000000026E-002     1.7012320642929152E-013
   9.8900000000000016E-002     1.4798043704040281E-013
  0.10000000000000001          5.1410027764823424E-014
  0.10110000000000002         -8.4773517144889204E-014
  0.10220000000000001         -2.0204226746506349E-013
  0.10330000000000003         -2.4306530638056045E-013
  0.10440000000000002         -1.7849631007201688E-013
  0.10550000000000001         -2.3307163558622564E-014
  0.10660000000000003          1.6528980603929683E-013
  0.10770000000000002          3.0839385407356590E-013
  0.10880000000000001          3.3682486053759897E-013
  0.10990000000000003          2.2140176790443750E-013
  0.11100000000000002         -9.7891580773520545E-015
  0.11210000000000001         -2.7501633782789359E-013
  0.11320000000000002         -4.6473166027266588E-013
  0.11430000000000001         -4.8317177082229934E-013
  0.11540000000000003         -2.9202478651381425E-013
  0.11650000000000002          6.1785808674191811E-014
  0.11760000000000001          4.5017982397421719E-013
  0.11870000000000003          7.0573012494676290E-013
  0.11980000000000002          6.9062030400024454E-013
  0.12090000000000001          3.6594986481224001E-013
  0.12200000000000003         -1.7225037043412661E-013
  0.12310000000000001         -7.1471837779710223E-013
  0.12420000000000003         -1.0184932324602824E-012
  0.12530000000000002         -9.1505112948669920E-013
  0.12640000000000001         -3.9855911539848909E-013
  0.12750000000000003          3.5128226282682418E-013
  0.12860000000000002          1.0305995423384728E-012
  0.12970000000000001          1.3364556857020649E-012
  0.13080000000000003          1.1026198400501674E-012
  0.13190000000000002          3.8395325872679631E-013
  0.13300000000000001         -5.5215857927559675E-013
  0.13410000000000000         -1.3280216770023001E-012
  0.13520000000000004         -1.6101507063423504E-012
  0.13630000000000003         -1.2511442619780877E-012
  0.13740000000000002         -3.5907008703178755E-013
  0.13850000000000001          7.3516437078605112E-013
  0.13960000000000000          1.6007084980423913E-012
  0.14070000000000005          1.8733179070473671E-012
  0.14180000000000004          1.4029855836122929E-012
  0.14290000000000003          3.2674056060603973E-013
  0.14400000000000002         -9.6412537241991059E-013
  0.14510000000000001         -1.9577525364744552E-012
  0.14620000000000000         -2.2156287221575255E-012
  0.14730000000000004         -1.5592316934126549E-012
  0.14840000000000003         -1.7440562882775623E-013
  0.14950000000000002          1.4219025262773854E-012
  0.15060000000000001          2.5608655820907877E-012
  0.15170000000000000          2.6932479683938748E-012
  0.15280000000000005          1.6473621512053116E-012
  0.15390000000000004         -2.4580213081951130E-013
  0.15500000000000003         -2.2382295669642893E-012
  0.15610000000000002         -3.4519154028245236E-012
  0.15720000000000001         -3.2604387939505486E-012
  0.15830000000000000         -1.5987623551427799E-012
  0.15940000000000004          9.5068657807173551E-013
  0.16050000000000003          3.3575763697113459E-012
  0.16160000000000002          4.5622065153461122E-012
  0.16270000000000001          3.9392135386950855E-012
  0.16380000000000000          1.6006870308393761E-012
  0.16490000000000005         -1.6049593295000553E-012
  0.16600000000000004         -4.4117248916564211E-012
  0.16710000000000003         -5.6455716837544578E-012
  0.16820000000000002         -4.7124886458360660E-012
  0.16930000000000001         -1.8599102293015424E-012
  0.17040000000000000          1.8983575562209198E-012
  0.17150000000000004          5.1632448316851765E-012
  0.17260000000000003          6.6837399330388347E-012
  0.17370000000000002          5.8325631650812948E-012
  0.17480000000000001          2.8446672101223314E-012
  0.17590000000000000         -1.2634578713116573E-012
  0.17700000000000005         -5.0546966785802727E-012
  0.17810000000000004         -7.1767019410584609E-012
  0.17920000000000003         -6.8339470367384525E-012
  0.18030000000000002         -4.0693767799915292E-012
  0.18140000000000001          2.3471133890617946E-013
  0.18250000000000000          4.6375598673764618E-012
  0.18360000000000004          7.6166789889087205E-012
  0.18470000000000003          8.0913773944923939E-012
  0.18580000000000002          5.8218724979797187E-012
  0.18690000000000001          1.5352875221141815E-012
  0.18800000000000000         -3.2851726981114604E-012
  0.18910000000000005         -6.9042983136258229E-012
  0.19020000000000004         -7.9694254667694864E-012
  0.19130000000000003         -6.0423970514589254E-012
  0.19240000000000002         -1.8088447406583441E-012
  0.19350000000000001          3.1427187241472865E-012
  0.19460000000000005          6.9174284356154914E-012
  0.19570000000000004          8.0649714337410749E-012
  0.19680000000000003          6.1796379645373545E-012
  0.19790000000000002          2.0781811601450206E-012
  0.19900000000000001         -2.5336785620944102E-012
  0.20010000000000000         -5.7766682062809771E-012
  0.20120000000000005         -6.3935844465956571E-012
  0.20230000000000004         -4.2603147572262134E-012
  0.20340000000000003         -4.0929025034615318E-013
  0.20450000000000002          3.4567784832489901E-012
  0.20560000000000000          5.7072549811132411E-012
  0.20670000000000005          5.4534475893430745E-012
  0.20780000000000004          2.8687722770232016E-012
  0.20890000000000003         -9.5293304497312548E-013
