 -0.12000000000000000          0.0000000000000000
 -0.11889999999999999          0.0000000000000000
 -0.11780000000000000          0.0000000000000000
 -0.11670000000000000          0.0000000000000000
 -0.11559999999999999          0.0000000000000000
 -0.11449999999999999          0.0000000000000000
 -0.11340000000000000          0.0000000000000000
 -0.11230000000000000          0.0000000000000000
 -0.11119999999999999          0.0000000000000000
 -0.11009999999999999          0.0000000000000000
 -0.10900000000000000          0.0000000000000000
 -0.10790000000000000         -2.6898092178530583E-039
 -0.10679999999999999          9.4283252926388201E-037
 -0.10569999999999999         -2.8974613818850082E-036
 -0.10460000000000000          4.0058069452264779E-035
 -0.10349999999999999          4.5783714172353018E-034
 -0.10239999999999999          5.1426945718189075E-034
 -0.10130000000000000         -4.6007750538650283E-033
 -0.10020000000000000         -4.7956191199855766E-033
  -9.9099999999999994E-002     7.5037969880856675E-032
  -9.7999999999999990E-002     2.1081776481432427E-031
  -9.6899999999999986E-002    -4.2163628194503306E-031
  -9.5799999999999996E-002    -2.9666016759385716E-030
  -9.4699999999999993E-002    -2.5352751828026480E-030
  -9.3599999999999989E-002     1.8355817118937694E-029
  -9.2499999999999999E-002     5.7621079485895345E-029
  -9.1399999999999995E-002    -1.8392839736694808E-030
  -9.0299999999999991E-002    -3.6749572048514279E-028
  -8.9200000000000002E-002    -7.6828701414534933E-028
  -8.8099999999999984E-002     4.1843495454785675E-028
  -8.6999999999999994E-002     4.9107323203386852E-027
  -8.5899999999999990E-002     8.1913151652892375E-027
  -8.4799999999999986E-002    -6.1957158607217600E-027
  -8.3699999999999997E-002    -4.9780167629501932E-026
  -8.2599999999999993E-002    -7.5507374613136299E-026
  -8.1499999999999989E-002     5.2012175605114921E-026
  -8.0399999999999999E-002     4.0593300603285649E-025
  -7.9299999999999995E-002     6.1827461554381906E-025
  -7.8199999999999992E-002    -2.6392906980027748E-025
  -7.7100000000000002E-002    -2.7342005749659843E-024
  -7.5999999999999984E-002    -4.4864925705679865E-024
  -7.4899999999999994E-002     3.6646094548163574E-025
  -7.3799999999999991E-002     1.5319882305505596E-023
  -7.2699999999999987E-002     2.8523370709160811E-023
  -7.1599999999999997E-002     7.7621972475920718E-024
  -7.0499999999999993E-002    -7.0676560231872671E-023
  -6.9399999999999989E-002    -1.5717182634089296E-022
  -6.8300000000000000E-002    -9.5647213812836513E-023
  -6.7199999999999996E-002     2.5814032978889040E-022
  -6.6099999999999992E-002     7.4337788648570774E-022
  -6.5000000000000002E-002     6.9472533822919600E-022
  -6.3899999999999985E-002    -6.5420631193697292E-022
  -6.2799999999999995E-002    -2.9792721238171169E-021
  -6.1699999999999991E-002    -3.8148968044738261E-021
  -6.0599999999999994E-002     3.7150734115158475E-022
  -5.9499999999999990E-002     9.8690022232842421E-021
  -5.8399999999999994E-002     1.6913486385081067E-020
  -5.7299999999999990E-002     7.4043836608526844E-021
  -5.6199999999999986E-002    -2.5410405190673675E-020
  -5.5099999999999996E-002    -6.1773835220763036E-020
  -5.3999999999999992E-002    -5.3135869196033065E-020
  -5.2899999999999989E-002     4.0656211450316875E-020
  -5.1799999999999985E-002     1.8481770097045603E-019
  -5.0699999999999995E-002     2.3676307955044056E-019
  -4.9599999999999991E-002     2.8040059210006633E-020
  -4.8499999999999988E-002    -4.3483535463538438E-019
  -4.7399999999999998E-002    -8.0453214888738435E-019
  -4.6299999999999994E-002    -5.1612782180374029E-019
  -4.5199999999999990E-002     6.9189734302029967E-019
  -4.4099999999999986E-002     2.1690181129855232E-018
  -4.2999999999999997E-002     2.3515135948591161E-018
  -4.1899999999999993E-002    -1.0807978072769659E-019
  -4.0799999999999989E-002    -4.5291972519417448E-018
  -3.9699999999999985E-002    -7.3575010605988763E-018
  -3.8599999999999995E-002    -4.0621392316407221E-018
  -3.7499999999999992E-002     6.3621364315403420E-018
  -3.6399999999999988E-002     1.7599870608092792E-017
  -3.5299999999999984E-002     1.7815035174668860E-017
  -3.4199999999999994E-002    -1.0539229159702711E-018
  -3.3099999999999991E-002    -3.1815742021508697E-017
  -3.1999999999999987E-002    -4.9665353345782273E-017
  -3.0899999999999997E-002    -2.7443169350602336E-017
  -2.9799999999999993E-002     3.6962843604617859E-017
  -2.8699999999999989E-002     1.0308142152156579E-016
  -2.7599999999999986E-002     1.0469486708485252E-016
  -2.6499999999999996E-002     3.1874852761672042E-018
  -2.5399999999999992E-002    -1.5767698307640092E-016
  -2.4299999999999988E-002    -2.5127274731946182E-016
  -2.3199999999999985E-002    -1.5114620023439266E-016
  -2.2099999999999995E-002     1.4360947312329130E-016
  -2.0999999999999991E-002     4.4538495850112488E-016
  -1.9899999999999987E-002     4.7042542294388934E-016
  -1.8799999999999983E-002     6.8399703818352767E-017
  -1.7699999999999994E-002    -5.7317390757762499E-016
  -1.6599999999999990E-002    -9.5977525599533426E-016
  -1.5499999999999986E-002    -6.2770842982069861E-016
  -1.4399999999999996E-002     4.0679426977311697E-016
  -1.3299999999999992E-002     1.4705335820908356E-015
  -1.2199999999999989E-002     1.6044359385245844E-015
  -1.1099999999999985E-002     3.4429575847150120E-016
  -9.9999999999999950E-003    -1.6679948556668238E-015
  -8.8999999999999913E-003    -2.8765740755777288E-015
  -7.7999999999999875E-003    -1.9164162783275908E-015
  -6.6999999999999837E-003     1.0735043581199194E-015
  -5.5999999999999939E-003     4.0699094552951350E-015
  -4.4999999999999901E-003     4.3810136453933252E-015
  -3.3999999999999864E-003     8.6971442493896157E-016
  -2.2999999999999826E-003    -4.5205326773003172E-015
  -1.1999999999999927E-003    -7.5470322198167676E-015
  -9.9999999999988987E-005    -4.7682728737132550E-015
   1.0000000000000148E-003     3.1244438680315964E-015
   2.1000000000000185E-003     1.0671358985543406E-014
   3.2000000000000084E-003     1.1076167889497498E-014
   4.3000000000000121E-003     1.8352010652789540E-015
   5.4000000000000159E-003    -1.1802258931443987E-014
   6.5000000000000058E-003    -1.9217102342479302E-014
   7.6000000000000234E-003    -1.2180293123935371E-014
   8.7000000000000133E-003     7.3319214265979600E-015
   9.8000000000000032E-003     2.6064904629172908E-014
   1.0900000000000021E-002     2.7869965721089712E-014
   1.2000000000000011E-002     6.7618432656238719E-015
   1.3100000000000001E-002    -2.5387137663900224E-014
   1.4200000000000018E-002    -4.4445455210087234E-014
   1.5300000000000008E-002    -3.1397058347301665E-014
   1.6400000000000026E-002     1.0444543891059439E-014
   1.7500000000000016E-002     5.3009171759130919E-014
   1.8600000000000005E-002     6.1310677400890773E-014
   1.9700000000000023E-002     2.1130956346141448E-014
   2.0800000000000013E-002    -4.4549132042831160E-014
   2.1900000000000003E-002    -8.6676718862206681E-014
   2.3000000000000020E-002    -6.5492878861036358E-014
   2.4100000000000010E-002     1.4296425371665422E-014
   2.5200000000000000E-002     9.8084165572540072E-014
   2.6300000000000018E-002     1.1654867067105446E-013
   2.7400000000000008E-002     4.0578075567645339E-014
   2.8500000000000025E-002    -8.5904428102218100E-014
   2.9600000000000015E-002    -1.6731635608252526E-013
   3.0700000000000005E-002    -1.2544284187787635E-013
   3.1800000000000023E-002     3.1602616302941339E-014
   3.2900000000000013E-002     1.9796372928513467E-013
   3.4000000000000002E-002     2.3747236815863104E-013
   3.5100000000000020E-002     9.0014746958327896E-014
   3.6200000000000010E-002    -1.6334718679674592E-013
   3.7300000000000028E-002    -3.3841977614343377E-013
   3.8400000000000017E-002    -2.7795954015037705E-013
   3.9500000000000007E-002     1.5230685771827970E-014
   4.0600000000000025E-002     3.5051088008615505E-013
   4.1700000000000015E-002     4.6906315637196272E-013
   4.2800000000000005E-002     2.4025876774191879E-013
   4.3900000000000022E-002    -2.1128385770553121E-013
   4.5000000000000012E-002    -5.6312111007192356E-013
   4.6100000000000002E-002    -5.2173152950696355E-013
   4.7200000000000020E-002    -6.3094908258568699E-014
   4.8300000000000010E-002     5.0566088859518854E-013
   4.9400000000000027E-002     7.4268184917930524E-013
   5.0500000000000017E-002     4.0813609002848805E-013
   5.1600000000000007E-002    -3.0966134062331008E-013
   5.2700000000000025E-002    -8.8022373678081633E-013
   5.3800000000000014E-002    -8.0901783753098422E-013
   5.4900000000000004E-002    -4.7072700690717686E-014
   5.6000000000000022E-002     8.9587441198107909E-013
   5.7100000000000012E-002     1.2742928457223912E-012
   5.8200000000000002E-002     6.7405336954401429E-013
   5.9300000000000019E-002    -5.9606486413343873E-013
   6.0400000000000009E-002    -1.6327973044807931E-012
   6.1500000000000027E-002    -1.5656844310624196E-012
   6.2600000000000017E-002    -2.5772518342549733E-013
   6.3700000000000007E-002     1.4699670517273611E-012
   6.4800000000000024E-002     2.3406398347303181E-012
   6.5900000000000014E-002     1.5593101896499428E-012
   6.7000000000000004E-002    -4.9597262061218395E-013
   6.8100000000000022E-002    -2.4112151077865240E-012
   6.9200000000000012E-002    -2.7073193947096952E-012
   7.0300000000000029E-002    -9.8890416255076330E-013
   7.1400000000000019E-002     1.6144142229654324E-012
   7.2500000000000009E-002     3.1559550979498585E-012
   7.3600000000000027E-002     2.3159382397941464E-012
   7.4700000000000016E-002    -4.7141793507038399E-013
   7.5800000000000006E-002    -3.1466686895020857E-012
   7.6900000000000024E-002    -3.4720082711658939E-012
   7.8000000000000014E-002    -8.1633414221113365E-013
   7.9100000000000004E-002     3.1010940343412230E-012
   8.0200000000000021E-002     5.2434072708718027E-012
   8.1300000000000011E-002     3.4876600305683292E-012
   8.2400000000000029E-002    -1.5482195603669369E-012
   8.3500000000000019E-002    -6.5767079282519347E-012
   8.4600000000000009E-002    -7.8026448149803862E-012
   8.5700000000000026E-002    -3.7545452857834505E-012
   8.6800000000000016E-002     3.3301881217917551E-012
   8.7900000000000006E-002     8.8013181812063301E-012
   8.9000000000000024E-002     8.8610724660598272E-012
   9.0100000000000013E-002     3.4773950212396709E-012
   9.1200000000000003E-002    -3.3484551936746598E-012
   9.2300000000000021E-002    -6.4295378916778834E-012
   9.3400000000000011E-002    -3.4371349082878977E-012
   9.4500000000000028E-002     2.9220775105143204E-012
   9.5600000000000018E-002     6.5284644010232817E-012
   9.6700000000000008E-002     2.4394648627523718E-012
   9.7800000000000026E-002    -8.8001593859243776E-012
   9.8900000000000016E-002    -2.0523372931680051E-011
  0.10000000000000001         -2.3909742241645660E-011
  0.10110000000000002         -1.4054821542708318E-011
  0.10220000000000001          6.1998860906298248E-012
  0.10330000000000003          2.7691958101594416E-011
  0.10440000000000002          4.0886904972836646E-011
  0.10550000000000001          4.2131798050348834E-011
  0.10660000000000003          3.5482464189051655E-011
  0.10770000000000002          2.8478851221702683E-011
  0.10880000000000001          2.4854153457543049E-011
  0.10990000000000003          1.9813681945146655E-011
  0.11100000000000002          1.9733197281074366E-012
  0.11210000000000001         -3.8851852290910927E-011
  0.11320000000000002         -1.0353877477609075E-010
  0.11430000000000001         -1.8159974912723698E-010
  0.11540000000000003         -2.5751520360550728E-010
  0.11650000000000002         -3.2159322427283143E-010
  0.11760000000000001         -3.7774700034631792E-010
  0.11870000000000003         -4.4238454566247754E-010
  0.11980000000000002         -5.3499094043729656E-010
  0.12090000000000001         -6.6734823223058015E-010
  0.12200000000000003         -8.3974227571559368E-010
  0.12310000000000001         -1.0474886513733850E-009
  0.12420000000000003         -1.2931262727278181E-009
  0.12530000000000002         -1.5947168030550074E-009
  0.12640000000000001         -1.9829926589665092E-009
  0.12750000000000003         -2.4884176941242231E-009
  0.12860000000000002         -3.1275582124123957E-009
  0.12970000000000001         -3.8999514728743634E-009
  0.13080000000000003         -4.7998587326958386E-009
  0.13190000000000002         -5.8363749388945507E-009
  0.13300000000000001         -7.0483889835770697E-009
  0.13410000000000000         -8.5035107844078084E-009
  0.13520000000000004         -1.0281129725342453E-008
  0.13630000000000003         -1.2451464748153285E-008
  0.13740000000000002         -1.5066044412037627E-008
  0.13850000000000001         -1.8167281012893000E-008
  0.13960000000000000         -2.1810919292875042E-008
  0.14070000000000005         -2.6085306359391325E-008
  0.14180000000000004         -3.1113266629745340E-008
  0.14290000000000003         -3.7035256639228464E-008
  0.14400000000000002         -4.3986901232528908E-008
  0.14510000000000001         -5.2089109914277287E-008
  0.14620000000000000         -6.1460362132947921E-008
  0.14730000000000004         -7.2243793169946002E-008
  0.14840000000000003         -8.4629739660613268E-008
  0.14950000000000002         -9.8856197894292563E-008
  0.15060000000000001         -1.1518523734821429E-007
  0.15170000000000000         -1.3387143837917392E-007
  0.15280000000000005         -1.5514545737005392E-007
  0.15390000000000004         -1.7922562278727128E-007
  0.15500000000000003         -2.0634955433251889E-007
  0.15610000000000002         -2.3680175331719511E-007
  0.15720000000000001         -2.7091408583146404E-007
  0.15830000000000000         -3.0903490255695942E-007
  0.15940000000000004         -3.5148528354511654E-007
  0.16050000000000003         -3.9853068756201537E-007
  0.16160000000000002         -4.5038686380394211E-007
  0.16270000000000001         -5.0725333267109818E-007
  0.16380000000000000         -5.6934663916763384E-007
  0.16490000000000005         -6.3690418983242125E-007
  0.16600000000000004         -7.1014903824107023E-007
  0.16710000000000003         -7.8923380897322204E-007
  0.16820000000000002         -8.7419630290241912E-007
  0.16930000000000001         -9.6495114121353254E-007
  0.17040000000000000         -1.0613157428451814E-006
  0.17150000000000004         -1.1630421568042948E-006
  0.17260000000000003         -1.2698254749921034E-006
  0.17370000000000002         -1.3812742736263317E-006
  0.17480000000000001         -1.4968600225984119E-006
  0.17590000000000000         -1.6158776361407945E-006
  0.17700000000000005         -1.7374404706060886E-006
  0.17810000000000004         -1.8605096556711942E-006
  0.17920000000000003         -1.9839299056911841E-006
  0.18030000000000002         -2.1064381598989712E-006
  0.18140000000000001         -2.2266390260483604E-006
  0.18250000000000000         -2.3429620341630653E-006
  0.18360000000000004         -2.4536379896744620E-006
  0.18470000000000003         -2.5567230750311865E-006
  0.18580000000000002         -2.6501625143282581E-006
  0.18690000000000001         -2.7318603770254413E-006
  0.18800000000000000         -2.7997182314720703E-006
  0.18910000000000005         -2.8516294605651638E-006
  0.19020000000000004         -2.8854503852926427E-006
  0.19130000000000003         -2.8989888960495591E-006
  0.19240000000000002         -2.8900442430312978E-006
  0.19350000000000001         -2.8564957119669998E-006
  0.19460000000000005         -2.7964022137894062E-006
  0.19570000000000004         -2.7080734525952721E-006
  0.19680000000000003         -2.5900931177602615E-006
  0.19790000000000002         -2.4413072878815001E-006
  0.19900000000000001         -2.2608228391618468E-006
  0.20010000000000000         -2.0480447346926667E-006
  0.20120000000000005         -1.8027562873612624E-006
  0.20230000000000004         -1.5252026059897617E-006
  0.20340000000000003         -1.2161410722910659E-006
  0.20450000000000002         -8.7683758920320543E-007
  0.20560000000000000         -5.0902679049613653E-007
  0.20670000000000005         -1.1487537676657666E-007
  0.20780000000000004          3.0301760034490144E-007
  0.20890000000000003          7.4158469942631200E-007
