 -0.12000000000000000          0.0000000000000000
 -0.11889999999999999          0.0000000000000000
 -0.11780000000000000          0.0000000000000000
 -0.11670000000000000          0.0000000000000000
 -0.11559999999999999          0.0000000000000000
 -0.11449999999999999          0.0000000000000000
 -0.11340000000000000          0.0000000000000000
 -0.11230000000000000          0.0000000000000000
 -0.11119999999999999          0.0000000000000000
 -0.11009999999999999          0.0000000000000000
 -0.10900000000000000          0.0000000000000000
 -0.10790000000000000         -7.2748452715892870E-029
 -0.10679999999999999         -2.2245105229324834E-027
 -0.10569999999999999         -1.8328916584105906E-026
 -0.10460000000000000         -6.4672598110031117E-026
 -0.10349999999999999         -3.7239799893599059E-026
 -0.10239999999999999          5.9548925576502851E-025
 -0.10130000000000000          2.5744591998871240E-024
 -0.10020000000000000          4.1301416171438567E-024
  -9.9099999999999994E-002    -4.1866473293543852E-024
  -9.7999999999999990E-002    -3.6569669900880989E-023
  -9.6899999999999986E-002    -8.0352399929177030E-023
  -9.5799999999999996E-002    -4.2293988572519327E-023
  -9.4699999999999993E-002     2.3241364453813722E-022
  -9.3599999999999989E-002     7.2103310473362222E-022
  -9.2499999999999999E-002     8.3605897067313877E-022
  -9.1399999999999995E-002    -4.9920087434665963E-022
  -9.0299999999999991E-002    -3.5148984295813033E-021
  -8.9200000000000002E-002    -5.5316952216466466E-021
  -8.8099999999999984E-002    -1.3328155626604147E-021
  -8.6999999999999994E-002     1.0568275994653423E-020
  -8.5899999999999990E-002     1.9110077426412703E-020
  -8.4799999999999986E-002     3.7929260311432368E-021
  -8.3699999999999997E-002    -3.7126066321056244E-020
  -8.2599999999999993E-002    -5.1543003679591499E-020
  -8.1499999999999989E-002     4.5881411213412050E-020
  -8.0399999999999999E-002     2.4711459868168814E-019
  -7.9299999999999995E-002     2.9959752833755850E-019
  -7.8199999999999992E-002    -2.1240032283937230E-019
  -7.7100000000000002E-002    -1.3428929828941132E-018
  -7.5999999999999984E-002    -2.0999665230156684E-018
  -7.4899999999999994E-002    -5.6625258878019267E-019
  -7.3799999999999991E-002     4.2689811204835883E-018
  -7.2699999999999987E-002     9.6809066446531343E-018
  -7.1599999999999997E-002     8.5513609125293105E-018
  -7.0499999999999993E-002    -5.5518824158619869E-018
  -6.9399999999999989E-002    -2.8529184702990557E-017
  -6.8300000000000000E-002    -4.0047691276403718E-017
  -6.7199999999999996E-002    -1.4135679561751339E-017
  -6.6099999999999992E-002     5.2454566666641680E-017
  -6.5000000000000002E-002     1.1537108872772744E-016
  -6.3899999999999985E-002     9.6949842660620518E-017
  -6.2799999999999995E-002    -4.5311266507205248E-017
  -6.1699999999999991E-002    -2.3877827019363205E-016
  -6.0599999999999994E-002    -2.9586138222609585E-016
  -5.9499999999999990E-002    -5.5638259112905175E-017
  -5.8399999999999994E-002     4.0317344215162125E-016
  -5.7299999999999990E-002     6.8826159761004686E-016
  -5.6199999999999986E-002     3.4783148575157747E-016
  -5.5099999999999996E-002    -6.2860480243713047E-016
  -5.3999999999999992E-002    -1.5004287629312289E-015
  -5.2899999999999989E-002    -1.1571358385297176E-015
  -5.1799999999999985E-002     8.1041280126874075E-016
  -5.0699999999999995E-002     3.1720596134032601E-015
  -4.9599999999999991E-002     3.4392855910095462E-015
  -4.8499999999999988E-002    -5.9943919489700896E-017
  -4.7399999999999998E-002    -5.7735984911174917E-015
  -4.6299999999999994E-002    -8.7314798945768712E-015
  -4.5199999999999990E-002    -4.0626868053538975E-015
  -4.4099999999999986E-002     7.6097643269233683E-015
  -4.2999999999999997E-002     1.7822543909988033E-014
  -4.1899999999999993E-002     1.5155565807867775E-014
  -4.0799999999999989E-002    -4.2063457107905950E-015
  -3.9699999999999985E-002    -2.8703852717002626E-014
  -3.8599999999999995E-002    -3.6024141840135943E-014
  -3.7499999999999992E-002    -1.1072709453973859E-014
  -3.6399999999999988E-002     3.5385519655487668E-014
  -3.5299999999999984E-002     6.6442517991389255E-014
  -3.4199999999999994E-002     4.5283109808549535E-014
  -3.3099999999999991E-002    -2.7869108523747091E-014
  -3.1999999999999987E-002    -1.0135878817036162E-013
  -3.0899999999999997E-002    -1.0369764942563808E-013
  -2.9799999999999993E-002    -6.9309059596981467E-015
  -2.8699999999999989E-002     1.2991818450040771E-013
  -2.7599999999999986E-002     1.8794364122724089E-013
  -2.6499999999999996E-002     8.4101372784320394E-014
  -2.5399999999999992E-002    -1.3536125887704531E-013
  -2.4299999999999988E-002    -2.9665102297370127E-013
  -2.3199999999999985E-002    -2.2515917895340326E-013
  -2.2099999999999995E-002     8.6105967733555999E-014
  -2.0999999999999991E-002     4.1681323106543267E-013
  -1.9899999999999987E-002     4.5953188086353403E-013
  -1.8799999999999983E-002     8.5237840277783278E-014
  -1.7699999999999994E-002    -4.8281517672776886E-013
  -1.6599999999999990E-002    -7.7783786356366846E-013
  -1.5499999999999986E-002    -4.5593628698881172E-013
  -1.4399999999999996E-002     3.5478130849808664E-013
  -1.3299999999999992E-002     1.0521470847346670E-012
  -1.2199999999999989E-002     9.9263598642845841E-013
  -1.1099999999999985E-002     6.3583490415072136E-014
  -9.9999999999999950E-003    -1.0979494223517516E-012
  -8.8999999999999913E-003    -1.5177094607118913E-012
  -7.7999999999999875E-003    -6.8763018282874677E-013
  -6.6999999999999837E-003     8.8754833560758528E-013
  -5.5999999999999939E-003     1.9453653098133739E-012
  -4.4999999999999901E-003     1.4478559410419090E-012
  -3.3999999999999864E-003    -4.5342581685842154E-013
  -2.2999999999999826E-003    -2.3343601357472821E-012
  -1.1999999999999927E-003    -2.5264317547735171E-012
  -9.9999999999988987E-005    -5.3653305756573566E-013
   1.0000000000000148E-003     2.3251361773446444E-012
   2.1000000000000185E-003     3.7822223651617914E-012
   3.2000000000000084E-003     2.3885108300925051E-012
   4.3000000000000121E-003    -1.1276790048628249E-012
   5.4000000000000159E-003    -4.1834109960892096E-012
   6.5000000000000058E-003    -4.2659088067553697E-012
   7.6000000000000234E-003    -1.0270162541584082E-012
   8.7000000000000133E-003     3.1963967063453058E-012
   9.8000000000000032E-003     5.0419304148396904E-012
   1.0900000000000021E-002     2.8013698132045572E-012
   1.2000000000000011E-002    -2.0032677773562657E-012
   1.3100000000000001E-002    -5.5550885072475076E-012
   1.4200000000000018E-002    -4.6550250633325962E-012
   1.5300000000000008E-002     5.8433249558453859E-013
   1.6400000000000026E-002     6.4639361571638965E-012
   1.7500000000000016E-002     8.2736361164958971E-012
   1.8600000000000005E-002     3.9143649259443247E-012
   1.9700000000000023E-002    -4.1906270120684042E-012
   2.0800000000000013E-002    -1.0510833522991980E-011
   2.1900000000000003E-002    -1.0308028736139008E-011
   2.3000000000000020E-002    -3.2299902769789002E-012
   2.4100000000000010E-002     6.1300053574853131E-012
   2.5200000000000000E-002     1.1320402081016478E-011
   2.6300000000000018E-002     8.6886678407616103E-012
   2.7400000000000008E-002     2.3064845389511590E-013
   2.8500000000000025E-002    -7.6241400345788968E-012
   2.9600000000000015E-002    -8.6726658840574622E-012
   3.0700000000000005E-002    -1.7844207014783287E-012
   3.1800000000000023E-002     7.7630566905351195E-012
   3.2900000000000013E-002     1.1849817134479412E-011
   3.4000000000000002E-002     5.7526206020952486E-012
   3.5100000000000020E-002    -7.5172186184135903E-012
   3.6200000000000010E-002    -1.8462080822456706E-011
   3.7300000000000028E-002    -1.7726882461932547E-011
   3.8400000000000017E-002    -3.6191928360490566E-012
   3.9500000000000007E-002     1.5322281637919488E-011
   4.0600000000000025E-002     2.5459068880850921E-011
   4.1700000000000015E-002     1.7903034957300612E-011
   4.2800000000000005E-002    -4.0373719992214951E-012
   4.3900000000000022E-002    -2.5927260338676206E-011
   4.5000000000000012E-002    -3.1871755235002297E-011
   4.6100000000000002E-002    -1.6059232069154383E-011
   4.7200000000000020E-002     1.2678018357359377E-011
   4.8300000000000010E-002     3.7377923672865521E-011
   4.9400000000000027E-002     4.6133975112327974E-011
   5.0500000000000017E-002     4.1888784108046195E-011
   5.1600000000000007E-002     4.0799256334489442E-011
   5.2700000000000025E-002     5.9808470675992709E-011
   5.3800000000000014E-002     1.0281368811870806E-010
   5.4900000000000004E-002     1.5656624607895964E-010
   5.6000000000000022E-002     2.0034261749568572E-010
   5.7100000000000012E-002     2.2270493782450274E-010
   5.8200000000000002E-002     2.3270591009705299E-010
   5.9300000000000019E-002     2.5659499525154672E-010
   6.0400000000000009E-002     3.2186286968993727E-010
   6.1500000000000027E-002     4.4012365973955525E-010
   6.2600000000000017E-002     6.0144467184386485E-010
   6.3700000000000007E-002     7.8438794348656415E-010
   6.4800000000000024E-002     9.7449659453019422E-010
   6.5900000000000014E-002     1.1778347186464089E-009
   6.7000000000000004E-002     1.4199148523630356E-009
   6.8100000000000022E-002     1.7310810562776169E-009
   6.9200000000000012E-002     2.1293184992998704E-009
   7.0300000000000029E-002     2.6134656661014333E-009
   7.1400000000000019E-002     3.1724962656909383E-009
   7.2500000000000009E-002     3.8050020911839511E-009
   7.3600000000000027E-002     4.5352366306872227E-009
   7.4700000000000016E-002     5.4136473082166958E-009
   7.5800000000000006E-002     6.5001146687393430E-009
   7.6900000000000024E-002     7.8405140158110953E-009
   7.8000000000000014E-002     9.4530339111997819E-009
   7.9100000000000004E-002     1.1335215432950463E-008
   8.0200000000000021E-002     1.3488653749504920E-008
   8.1300000000000011E-002     1.5945181175425205E-008
   8.2400000000000029E-002     1.8776013632759714E-008
   8.3500000000000019E-002     2.2076717343111341E-008
   8.4600000000000009E-002     2.5938536651892719E-008
   8.5700000000000026E-002     3.0427713682001922E-008
   8.6800000000000016E-002     3.5589305724670339E-008
   8.7900000000000006E-002     4.1473644074585536E-008
   8.9000000000000024E-002     4.8165365029717577E-008
   9.0100000000000013E-002     5.5791637976199127E-008
   9.1200000000000003E-002     6.4501541885420011E-008
   9.2300000000000021E-002     7.4431163454846683E-008
   9.3400000000000011E-002     8.5681122641290131E-008
   9.4500000000000028E-002     9.8324527186832711E-008
   9.5600000000000018E-002     1.1244017628087022E-007
   9.6700000000000008E-002     1.2814606975553033E-007
   9.7800000000000026E-002     1.4560785643880081E-007
   9.8900000000000016E-002     1.6501550703651446E-007
  0.10000000000000001          1.8654552036423411E-007
  0.10110000000000002          2.1033531538705574E-007
  0.10220000000000001          2.3648625813166291E-007
  0.10330000000000003          2.6508982386985736E-007
  0.10440000000000002          2.9625459774251794E-007
  0.10550000000000001          3.3011261280080362E-007
  0.10660000000000003          3.6679932691185968E-007
  0.10770000000000002          4.0642018461767293E-007
  0.10880000000000001          4.4902498075316544E-007
  0.10990000000000003          4.9460527407063637E-007
  0.11100000000000002          5.4311493613568018E-007
  0.11210000000000001          5.9449837408465100E-007
  0.11320000000000002          6.4870602045630221E-007
  0.11430000000000001          7.0568364662904060E-007
  0.11540000000000003          7.6533837045644759E-007
  0.11650000000000002          8.2750028695954825E-007
  0.11760000000000001          8.9190490371038322E-007
  0.11870000000000003          9.5820757906039944E-007
  0.11980000000000002          1.0260213230139925E-006
  0.12090000000000001          1.0949494253509329E-006
  0.12200000000000003          1.1645870472420938E-006
  0.12310000000000001          1.2344869446678786E-006
  0.12420000000000003          1.3041174042882631E-006
  0.12530000000000002          1.3728445082961116E-006
  0.12640000000000001          1.4399587371372036E-006
  0.12750000000000003          1.5047281749502872E-006
  0.12860000000000002          1.5664408010707120E-006
  0.12970000000000001          1.6244043763435911E-006
  0.13080000000000003          1.6779105180830811E-006
  0.13190000000000002          1.7261959328607190E-006
  0.13300000000000001          1.7684407112028566E-006
  0.13410000000000000          1.8038101643469417E-006
  0.13520000000000004          1.8315137140234583E-006
  0.13630000000000003          1.8508418406781857E-006
  0.13740000000000002          1.8611607401908259E-006
  0.13850000000000001          1.8618833337313845E-006
  0.13960000000000000          1.8524510778661352E-006
  0.14070000000000005          1.8323461290492560E-006
  0.14180000000000004          1.8011298834608169E-006
  0.14290000000000003          1.7584817442184431E-006
  0.14400000000000002          1.7042182207660517E-006
  0.14510000000000001          1.6382911098844488E-006
  0.14620000000000000          1.5607771501890966E-006
  0.14730000000000004          1.4718688134962576E-006
  0.14840000000000003          1.3718708942178637E-006
  0.14950000000000002          1.2611992588063003E-006
  0.15060000000000001          1.1403856206015917E-006
  0.15170000000000000          1.0100909548782511E-006
  0.15280000000000005          8.7112346136564156E-007
  0.15390000000000004          7.2444197485310724E-007
  0.15500000000000003          5.7113021512122941E-007
  0.15610000000000002          4.1234841319237603E-007
  0.15720000000000001          2.4929127562245412E-007
  0.15830000000000000          8.3182712273810466E-008
  0.15940000000000004         -8.4692864277258195E-008
  0.16050000000000003         -2.5295969408034580E-007
  0.16160000000000002         -4.2016515067189175E-007
  0.16270000000000001         -5.8484818055148935E-007
  0.16380000000000000         -7.4562092322594253E-007
  0.16490000000000005         -9.0120624918199610E-007
  0.16600000000000004         -1.0504096508157090E-006
  0.16710000000000003         -1.1920649285457330E-006
  0.16820000000000002         -1.3250178199086804E-006
  0.16930000000000001         -1.4481773860097746E-006
  0.17040000000000000         -1.5605994576617377E-006
  0.17150000000000004         -1.6615362028460368E-006
  0.17260000000000003         -1.7504154357084190E-006
  0.17370000000000002         -1.8267789982928662E-006
  0.17480000000000001         -1.8902511556007084E-006
  0.17590000000000000         -1.9405742932576686E-006
  0.17700000000000005         -1.9776823592110304E-006
  0.17810000000000004         -2.0017394035676261E-006
  0.17920000000000003         -2.0131067230977351E-006
  0.18030000000000002         -2.0122672594879987E-006
  0.18140000000000001         -1.9997762592538493E-006
  0.18250000000000000         -1.9762806005019229E-006
  0.18360000000000004         -1.9425765458436217E-006
  0.18470000000000003         -1.8996314565811190E-006
  0.18580000000000002         -1.8485399095879984E-006
  0.18690000000000001         -1.7904509377331124E-006
  0.18800000000000000         -1.7265368796870462E-006
  0.18910000000000005         -1.6580347619310487E-006
  0.19020000000000004         -1.5863093949519680E-006
  0.19130000000000003         -1.5128618997550802E-006
  0.19240000000000002         -1.4392575167221366E-006
  0.19350000000000001         -1.3670339740201598E-006
  0.19460000000000005         -1.2976764764971449E-006
  0.19570000000000004         -1.2326863725320436E-006
  0.19680000000000003         -1.1736730129996431E-006
  0.19790000000000002         -1.1223702358620358E-006
  0.19900000000000001         -1.0805525789692183E-006
  0.20010000000000000         -1.0499271638764185E-006
  0.20120000000000005         -1.0321118679712527E-006
  0.20230000000000004         -1.0287275244991179E-006
  0.20340000000000003         -1.0415182032375014E-006
  0.20450000000000002         -1.0723805417001131E-006
  0.20560000000000000         -1.1232707493036287E-006
  0.20670000000000005         -1.1960764823015779E-006
  0.20780000000000004         -1.2925800092489226E-006
  0.20890000000000003         -1.4145450677460758E-006
