 -0.12000000000000000          0.0000000000000000
 -0.11889999999999999          0.0000000000000000
 -0.11780000000000000          0.0000000000000000
 -0.11670000000000000          0.0000000000000000
 -0.11559999999999999          0.0000000000000000
 -0.11449999999999999          0.0000000000000000
 -0.11340000000000000          0.0000000000000000
 -0.11230000000000000          0.0000000000000000
 -0.11119999999999999          0.0000000000000000
 -0.11009999999999999          0.0000000000000000
 -0.10900000000000000         -7.6375965298970399E-047
 -0.10790000000000000         -6.5640362192907289E-034
 -0.10679999999999999         -4.2068926108518358E-033
 -0.10569999999999999         -2.1722472918281480E-032
 -0.10460000000000000         -8.1849618750566341E-032
 -0.10349999999999999          6.5305217549364483E-032
 -0.10239999999999999          1.9949594865663164E-030
 -0.10130000000000000          7.1930880408200306E-030
 -0.10020000000000000          3.9927800323472938E-030
  -9.9099999999999994E-002    -4.3534322316042020E-029
  -9.7999999999999990E-002    -1.1786560055677095E-028
  -9.6899999999999986E-002     5.4126955065692688E-029
  -9.5799999999999996E-002     8.5634192750207939E-028
  -9.4699999999999993E-002     1.4005243147933954E-027
  -9.3599999999999989E-002    -1.9648491367027904E-027
  -9.2499999999999999E-002    -1.1220658137880444E-026
  -9.1399999999999995E-002    -1.2536200023509680E-026
  -9.0299999999999991E-002     2.6616515150286906E-026
  -8.9200000000000002E-002     1.0146029442329587E-025
  -8.8099999999999984E-002     6.8401327904905328E-026
  -8.6999999999999994E-002    -2.9264242345895424E-025
  -8.5899999999999990E-002    -7.7849699855980447E-025
  -8.4799999999999986E-002    -1.8049789554331525E-025
  -8.3699999999999997E-002     2.8122412038129649E-024
  -8.2599999999999993E-002     5.9484533819051315E-024
  -8.1499999999999989E-002     3.4564283223944679E-025
  -8.0399999999999999E-002    -2.2080040032293733E-023
  -7.9299999999999995E-002    -4.5122821690545357E-023
  -7.8199999999999992E-002    -1.1143865665725966E-023
  -7.7100000000000002E-002     1.3408437937819375E-022
  -7.5999999999999984E-002     3.0745486487356086E-022
  -7.4899999999999994E-002     1.8414997315356162E-022
  -7.3799999999999991E-002    -5.9414534562152128E-022
  -7.2699999999999987E-002    -1.7443706330451848E-021
  -7.1599999999999997E-002    -1.7136272215778805E-021
  -7.0499999999999993E-002     1.6027664402427542E-021
  -6.9399999999999989E-002     7.9006976829398714E-021
  -6.8300000000000000E-002     1.1056348098978668E-020
  -6.7199999999999996E-002     5.9301978626303993E-022
  -6.6099999999999992E-002    -2.7239002641408306E-020
  -6.5000000000000002E-002    -5.3479611208168961E-020
  -6.3899999999999985E-002    -3.4750965826138706E-020
  -6.2799999999999995E-002     6.2461054288724167E-020
  -6.1699999999999991E-002     1.9817096807179073E-019
  -6.0599999999999994E-002     2.2531055717453081E-019
  -5.9499999999999990E-002    -2.8409543987480313E-020
  -5.8399999999999994E-002    -5.4736112775797567E-019
  -5.7299999999999990E-002    -9.3670532271458565E-019
  -5.6199999999999986E-002    -5.3997114786439056E-019
  -5.5099999999999996E-002     9.7080036339531324E-019
  -5.3999999999999992E-002     2.8361092917124702E-018
  -5.2899999999999989E-002     3.1009901014402919E-018
  -5.1799999999999985E-002    -9.1238002177006683E-020
  -5.0699999999999995E-002    -6.1435369974705554E-018
  -4.9599999999999991E-002    -1.0545132540940189E-017
  -4.8499999999999988E-002    -6.8304066850306573E-018
  -4.7399999999999998E-002     7.5573222539914645E-018
  -4.6299999999999994E-002     2.5241977220511631E-017
  -4.5199999999999990E-002     2.9531128726644574E-017
  -4.4099999999999986E-002     5.8941842290014026E-018
  -4.2999999999999997E-002    -4.0730690999464590E-017
  -4.1899999999999993E-002    -7.7806792173558978E-017
  -4.0799999999999989E-002    -6.1176001703385512E-017
  -3.9699999999999985E-002     2.6469185686008306E-017
  -3.8599999999999995E-002     1.4134272031221041E-016
  -3.7499999999999992E-002     1.8683380264970820E-016
  -3.6399999999999988E-002     8.0222080152891999E-017
  -3.5299999999999984E-002    -1.5787250210341562E-016
  -3.4199999999999994E-002    -3.6957950665859432E-016
  -3.3099999999999991E-002    -3.4395861288874743E-016
  -3.1999999999999987E-002     5.7064717189632090E-018
  -3.0899999999999997E-002     5.0157278317810974E-016
  -2.9799999999999993E-002     7.5211957032225911E-016
  -2.8699999999999989E-002     4.2993293349112043E-016
  -2.7599999999999986E-002    -3.9437777261794759E-016
  -2.6499999999999996E-002    -1.1598209329725261E-015
  -2.5399999999999992E-002    -1.1501497225390753E-015
  -2.4299999999999988E-002    -1.0432807534899676E-016
  -2.3199999999999985E-002     1.3732631771643270E-015
  -2.2099999999999995E-002     2.0667220630597061E-015
  -2.0999999999999991E-002     1.0687126927374285E-015
  -1.9899999999999987E-002    -1.2630144275408470E-015
  -1.8799999999999983E-002    -3.1995835255078970E-015
  -1.7699999999999994E-002    -2.7790272202732849E-015
  -1.6599999999999990E-002     4.4948322153712759E-016
  -1.5499999999999986E-002     4.4896638320871025E-015
  -1.4399999999999996E-002     5.8977049115165593E-015
  -1.3299999999999992E-002     2.4264986721315910E-015
  -1.2199999999999989E-002    -4.5632036560839673E-015
  -1.1099999999999985E-002    -1.0156011434939970E-014
  -9.9999999999999950E-003    -9.0773937506761152E-015
  -8.8999999999999913E-003    -1.1985054306062971E-016
  -7.7999999999999875E-003     1.1702461509598319E-014
  -6.6999999999999837E-003     1.7701436833256110E-014
  -5.5999999999999939E-003     1.1750054596839924E-014
  -4.4999999999999901E-003    -4.1859974382977394E-015
  -3.3999999999999864E-003    -1.9979914803787930E-014
  -2.2999999999999826E-003    -2.3896324101349643E-014
  -1.1999999999999927E-003    -1.1610438156144145E-014
  -9.9999999999988987E-005     9.2984202219968808E-015
   1.0000000000000148E-003     2.3852315657541152E-014
   2.1000000000000185E-003     2.0909691011528396E-014
   3.2000000000000084E-003     2.8195384768002077E-015
   4.3000000000000121E-003    -1.4926717834310309E-014
   5.4000000000000159E-003    -1.5479835431065376E-014
   6.5000000000000058E-003     4.2079499911929573E-015
   7.6000000000000234E-003     2.7391844421486406E-014
   8.7000000000000133E-003     2.8006924172399745E-014
   9.8000000000000032E-003    -7.5847158686051179E-015
   1.0900000000000021E-002    -6.3546458134618885E-014
   1.2000000000000011E-002    -9.8042884574827344E-014
   1.3100000000000001E-002    -6.9865242605979680E-014
   1.4200000000000018E-002     2.7402171447171417E-014
   1.5300000000000008E-002     1.4899088636010390E-013
   1.6400000000000026E-002     2.1744891586136043E-013
   1.7500000000000016E-002     1.6999013416515807E-013
   1.8600000000000005E-002     5.6733368952292396E-015
   1.9700000000000023E-002    -2.0173507233201023E-013
   2.0800000000000013E-002    -3.3976681602758650E-013
   2.1900000000000003E-002    -3.2338606618943439E-013
   2.3000000000000020E-002    -1.4875676645349796E-013
   2.4100000000000010E-002     1.0285407237279588E-013
   2.5200000000000000E-002     3.1521565414283621E-013
   2.6300000000000018E-002     4.0643248315485779E-013
   2.7400000000000008E-002     3.6758158908183181E-013
   2.8500000000000025E-002     2.4418320013556372E-013
   2.9600000000000015E-002     8.0289372155987289E-014
   3.0700000000000005E-002    -1.2197298835008100E-013
   3.1800000000000023E-002    -3.8467723472744306E-013
   3.2900000000000013E-002    -6.8612476811223015E-013
   3.4000000000000002E-002    -9.0368392022949632E-013
   3.5100000000000020E-002    -8.3715955175037949E-013
   3.6200000000000010E-002    -3.2945060525138926E-013
   3.7300000000000028E-002     5.8093102810873933E-013
   3.8400000000000017E-002     1.5890373869162007E-012
   3.9500000000000007E-002     2.2153021604631773E-012
   4.0600000000000025E-002     2.0384412473956488E-012
   4.1700000000000015E-002     9.4343608446351754E-013
   4.2800000000000005E-002    -7.6937371404345188E-013
   4.3900000000000022E-002    -2.4911739338051203E-012
   4.5000000000000012E-002    -3.5711143243910385E-012
   4.6100000000000002E-002    -3.5890578703456837E-012
   4.7200000000000020E-002    -2.4902579998098377E-012
   4.8300000000000010E-002    -5.4261467281186082E-013
   4.9400000000000027E-002     1.8043033430184339E-012
   5.0500000000000017E-002     4.0391106258252469E-012
   5.1600000000000007E-002     5.6331163691968773E-012
   5.2700000000000025E-002     6.0634062874764110E-012
   5.3800000000000014E-002     4.9164509269283275E-012
   5.4900000000000004E-002     2.1051151273542908E-012
   5.6000000000000022E-002    -1.9094975167028442E-012
   5.7100000000000012E-002    -6.0914624039344427E-012
   5.8200000000000002E-002    -9.1350876516018077E-012
   5.9300000000000019E-002    -1.0025488252074620E-011
   6.0400000000000009E-002    -8.5539396746380770E-012
   6.1500000000000027E-002    -5.4317448976156228E-012
   6.2600000000000017E-002    -1.8480674889707368E-012
   6.3700000000000007E-002     1.3180317297658134E-012
   6.4800000000000024E-002     4.1329197009175517E-012
   6.5900000000000014E-002     7.6098129533913682E-012
   6.7000000000000004E-002     1.2959673265089119E-011
   6.8100000000000022E-002     2.0478882478690248E-011
   6.9200000000000012E-002     2.8761503595428749E-011
   7.0300000000000029E-002     3.4779103208478434E-011
   7.1400000000000019E-002     3.4834503337406713E-011
   7.2500000000000009E-002     2.5814730561509182E-011
   7.3600000000000027E-002     5.9594737998578069E-012
   7.4700000000000016E-002    -2.5295824462867299E-011
   7.5800000000000006E-002    -6.8167679834192203E-011
   7.6900000000000024E-002    -1.2331242971174232E-010
   7.8000000000000014E-002    -1.9186059685425889E-010
   7.9100000000000004E-002    -2.7464072682723222E-010
   8.0200000000000021E-002    -3.7130359897826678E-010
   8.1300000000000011E-002    -4.8035575517242486E-010
   8.2400000000000029E-002    -6.0063609641497752E-010
   8.3500000000000019E-002    -7.3378259024530515E-010
   8.4600000000000009E-002    -8.8641505247003658E-010
   8.5700000000000026E-002    -1.0707353892413136E-009
   8.6800000000000016E-002    -1.3031137280349300E-009
   8.7900000000000006E-002    -1.6014592985057182E-009
   8.9000000000000024E-002    -1.9829444752870664E-009
   9.0100000000000013E-002    -2.4634350115346812E-009
   9.1200000000000003E-002    -3.0589020205693068E-009
   9.2300000000000021E-002    -3.7878984393554516E-009
   9.3400000000000011E-002    -4.6736539083265563E-009
   9.4500000000000028E-002    -5.7448228396589843E-009
   9.5600000000000018E-002    -7.0350298919657397E-009
   9.6700000000000008E-002    -8.5823197437654642E-009
   9.7800000000000026E-002    -1.0429732633098402E-008
   9.8900000000000016E-002    -1.2627434209376839E-008
  0.10000000000000001         -1.5235722017335795E-008
  0.10110000000000002         -1.8327510176162124E-008
  0.10220000000000001         -2.1989167819922718E-008
  0.10330000000000003         -2.6319639800929001E-008
  0.10440000000000002         -3.1428822211407300E-008
  0.10550000000000001         -3.7436691968647533E-008
  0.10660000000000003         -4.4474067095730489E-008
  0.10770000000000002         -5.2684860918356999E-008
  0.10880000000000001         -6.2228750152820732E-008
  0.10990000000000003         -7.3283025869834869E-008
  0.11100000000000002         -8.6043201008571126E-008
  0.11210000000000001         -1.0072270129056976E-007
  0.11320000000000002         -1.1755249573751691E-007
  0.11430000000000001         -1.3678113930380881E-007
  0.11540000000000003         -1.5867497893394510E-007
  0.11650000000000002         -1.8351759933919500E-007
  0.11760000000000001         -2.1160799690276627E-007
  0.11870000000000003         -2.4325763092745200E-007
  0.11980000000000002         -2.7878712671733656E-007
  0.12090000000000001         -3.1852297865950168E-007
  0.12200000000000003         -3.6279431014915138E-007
  0.12310000000000001         -4.1192851085721450E-007
  0.12420000000000003         -4.6624495553256042E-007
  0.12530000000000002         -5.2604667644113607E-007
  0.12640000000000001         -5.9161072840646912E-007
  0.12750000000000003         -6.6317898017581211E-007
  0.12860000000000002         -7.4095004265466480E-007
  0.12970000000000001         -8.2507199294915949E-007
  0.13080000000000003         -9.1563373416639459E-007
  0.13190000000000002         -1.0126549341292958E-006
  0.13300000000000001         -1.1160720987389958E-006
  0.13410000000000000         -1.2257247590240503E-006
  0.13520000000000004         -1.3413412034423050E-006
  0.13630000000000003         -1.4625262565458392E-006
  0.13740000000000002         -1.5887525250944626E-006
  0.13850000000000001         -1.7193519852297230E-006
  0.13960000000000000         -1.8535073422752396E-006
  0.14070000000000005         -1.9902438452843876E-006
  0.14180000000000004         -2.1284190552249025E-006
  0.14290000000000003         -2.2667184111922094E-006
  0.14400000000000002         -2.4036544346015590E-006
  0.14510000000000001         -2.5375720724693998E-006
  0.14620000000000000         -2.6666589292287737E-006
  0.14730000000000004         -2.7889595912708701E-006
  0.14840000000000003         -2.9023885872445229E-006
  0.14950000000000002         -3.0047476684555474E-006
  0.15060000000000001         -3.0937437713870989E-006
  0.15170000000000000         -3.1670119824408925E-006
  0.15280000000000005         -3.2221466881307391E-006
  0.15390000000000004         -3.2567368180022392E-006
  0.15500000000000003         -3.2684074540153877E-006
  0.15610000000000002         -3.2548646231586387E-006
  0.15720000000000001         -3.2139375889525354E-006
  0.15830000000000000         -3.1436238714374499E-006
  0.15940000000000004         -3.0421347219086700E-006
  0.16050000000000003         -2.9079405976514898E-006
  0.16160000000000002         -2.7398184556656999E-006
  0.16270000000000001         -2.5368995011374315E-006
  0.16380000000000000         -2.2987107968217629E-006
  0.16490000000000005         -2.0252157355569484E-006
  0.16600000000000004         -1.7168486010630839E-006
  0.16710000000000003         -1.3745438991462411E-006
  0.16820000000000002         -9.9975898137917336E-007
  0.16930000000000001         -5.9448677802714040E-007
  0.17040000000000000         -1.6125581225876314E-007
  0.17150000000000004          2.9688030167561071E-007
  0.17260000000000003          7.7636371997862882E-007
  0.17370000000000002          1.2731602510028853E-006
  0.17480000000000001          1.7827945839597595E-006
  0.17590000000000000          2.3003929072727076E-006
  0.17700000000000005          2.8207350624140668E-006
  0.17810000000000004          3.3383198569933260E-006
  0.17920000000000003          3.8474381653937814E-006
  0.18030000000000002          4.3422573980929642E-006
  0.18140000000000001          4.8169140427485445E-006
  0.18250000000000000          5.2656046136685103E-006
  0.18360000000000004          5.6826770560286937E-006
  0.18470000000000003          6.0627262428164590E-006
  0.18580000000000002          6.4006781030906150E-006
  0.18690000000000001          6.6918764787254361E-006
  0.18800000000000000          6.9321681621652771E-006
  0.18910000000000005          7.1179770202427668E-006
  0.19020000000000004          7.2463767537549499E-006
  0.19130000000000003          7.3151468313874505E-006
  0.19240000000000002          7.3228216024283588E-006
  0.19350000000000001          7.2687230385775057E-006
  0.19460000000000005          7.1529798333351904E-006
  0.19570000000000004          6.9765319494756960E-006
  0.19680000000000003          6.7411228883423205E-006
  0.19790000000000002          6.4492742239957292E-006
  0.19900000000000001          6.1042483139311816E-006
  0.20010000000000000          5.7099960031331794E-006
  0.20120000000000005          5.2710915952042878E-006
  0.20230000000000004          4.7926560000628400E-006
  0.20340000000000003          4.2802757889144756E-006
  0.20450000000000002          3.7399124721556397E-006
  0.20560000000000000          3.1778072298035731E-006
  0.20670000000000005          2.6003840503105732E-006
  0.20780000000000004          2.0141492313994466E-006
  0.20890000000000003          1.4255894029700762E-006
