 -0.12000000000000000          0.0000000000000000
 -0.11889999999999999          0.0000000000000000
 -0.11780000000000000          0.0000000000000000
 -0.11670000000000000          0.0000000000000000
 -0.11559999999999999          0.0000000000000000
 -0.11449999999999999          0.0000000000000000
 -0.11340000000000000          0.0000000000000000
 -0.11230000000000000          0.0000000000000000
 -0.11119999999999999          0.0000000000000000
 -0.11009999999999999          0.0000000000000000
 -0.10900000000000000          1.5211996221457376E-018
 -0.10790000000000000          1.3292667539454659E-017
 -0.10679999999999999          3.5298056595071186E-017
 -0.10569999999999999         -8.5802174390704679E-017
 -0.10460000000000000         -9.4194076553265815E-016
 -0.10349999999999999         -3.1121917482077998E-015
 -0.10239999999999999         -3.6800849876944455E-015
 -0.10130000000000000          1.0440811863893836E-014
 -0.10020000000000000          6.0056167395898530E-014
  -9.9099999999999994E-002     1.3251827749288098E-013
  -9.7999999999999990E-002     9.0429596590838740E-014
  -9.6899999999999986E-002    -3.7037224415864545E-013
  -9.5799999999999996E-002    -1.4499815194010668E-012
  -9.4699999999999993E-002    -2.4570252516592506E-012
  -9.3599999999999989E-002    -9.8627594806444119E-013
  -9.2499999999999999E-002     6.2602657432964115E-012
  -9.1399999999999995E-002     1.9047107641112504E-011
  -9.0299999999999991E-002     2.6582585091472488E-011
  -8.9200000000000002E-002     5.5408941324053274E-012
  -8.8099999999999984E-002    -6.4410352051957886E-011
  -8.6999999999999994E-002    -1.6322324047912673E-010
  -8.5899999999999990E-002    -1.9464646561218046E-010
  -8.4799999999999986E-002    -8.3186599969531372E-012
  -8.3699999999999997E-002     4.6812670406737311E-010
  -8.2599999999999993E-002     1.0201182121249985E-009
  -8.1499999999999989E-002     1.0443356179834495E-009
  -8.0399999999999999E-002    -1.7128071183591942E-010
  -7.9299999999999995E-002    -2.6765663019290287E-009
  -7.8199999999999992E-002    -4.9973016835735962E-009
  -7.7100000000000002E-002    -4.1726684330001262E-009
  -7.5999999999999984E-002     2.3187296527282797E-009
  -7.4899999999999994E-002     1.3020086342407922E-008
  -7.3799999999999991E-002     1.9951938767803767E-008
  -7.2699999999999987E-002     1.1273909805709081E-008
  -7.1599999999999997E-002    -1.8593224737628589E-008
  -7.0499999999999993E-002    -5.5995478476233984E-008
  -6.9399999999999989E-002    -6.5099243329314049E-008
  -6.8300000000000000E-002    -8.5468565558244336E-009
  -6.7199999999999996E-002     1.1010133249556020E-007
  -6.6099999999999992E-002     2.1212993317476503E-007
  -6.5000000000000002E-002     1.6598626473296463E-007
  -6.3899999999999985E-002    -1.0872071953826890E-007
  -6.2799999999999995E-002    -5.0472732482376159E-007
  -6.1699999999999991E-002    -6.8802131636402919E-007
  -6.0599999999999994E-002    -2.8203379542901530E-007
  -5.9499999999999990E-002     7.5306661528884433E-007
  -5.8399999999999994E-002     1.8176557432525442E-006
  -5.7299999999999990E-002     1.8376558728050441E-006
  -5.6199999999999986E-002     5.4292680573553298E-008
  -5.5099999999999996E-002    -2.9795080536132446E-006
  -5.3999999999999992E-002    -5.1184501899115276E-006
  -5.2899999999999989E-002    -3.8059204143792158E-006
  -5.1799999999999985E-002     1.6341637092409655E-006
  -5.0699999999999995E-002     8.3241438915138133E-006
  -4.9599999999999991E-002     1.0828940503415652E-005
  -4.8499999999999988E-002     5.1847232498403173E-006
  -4.7399999999999998E-002    -6.6527345552458428E-006
  -4.6299999999999994E-002    -1.6283414879580960E-005
  -4.5199999999999990E-002    -1.4575310160580557E-005
  -4.4099999999999986E-002    -4.3410662442511239E-007
  -4.2999999999999997E-002     1.5254633581207599E-005
  -4.1899999999999993E-002     1.6801686797407456E-005
  -4.0799999999999989E-002    -9.0152821030642372E-007
  -3.9699999999999985E-002    -2.2074867956689559E-005
  -3.8599999999999995E-002    -1.8786882719723508E-005
  -3.7499999999999992E-002     2.1743746401625685E-005
  -3.6399999999999988E-002     7.2762661147862673E-005
  -3.5299999999999984E-002     7.5631818617694080E-005
  -3.4199999999999994E-002    -1.1901088328158949E-005
  -3.3099999999999991E-002    -1.5822524437680840E-004
  -3.1999999999999987E-002    -2.4829476024024189E-004
  -3.0899999999999997E-002    -1.5652336878702044E-004
  -2.9799999999999993E-002     1.3240937551017851E-004
  -2.8699999999999989E-002     4.5408357982523739E-004
  -2.7599999999999986E-002     5.3766201017424464E-004
  -2.6499999999999996E-002     2.1120309247635305E-004
  -2.5399999999999992E-002    -4.0403878665529191E-004
  -2.4299999999999988E-002    -8.9643534738570452E-004
  -2.3199999999999985E-002    -8.2972145173698664E-004
  -2.2099999999999995E-002    -1.1356198228895664E-004
  -2.0999999999999991E-002     8.2585733616724610E-004
  -1.9899999999999987E-002     1.2854206142947078E-003
  -1.8799999999999983E-002     8.2655926235020161E-004
  -1.7699999999999994E-002    -2.9511164757423103E-004
  -1.6599999999999990E-002    -1.2262902455404401E-003
  -1.5499999999999986E-002    -1.1674142442643642E-003
  -1.4399999999999996E-002    -1.0091037984238937E-004
  -1.3299999999999992E-002     1.0619083186611533E-003
  -1.2199999999999989E-002     1.1767878895625472E-003
  -1.1099999999999985E-002    -6.9476234784815460E-005
  -9.9999999999999950E-003    -1.6602554824203253E-003
  -8.8999999999999913E-003    -1.9286560127511621E-003
  -7.7999999999999875E-003    -5.0417096645105630E-005
  -6.6999999999999837E-003     2.8792452067136765E-003
  -5.5999999999999939E-003     4.3224869295954704E-003
  -4.4999999999999901E-003     2.2847773507237434E-003
  -3.3999999999999864E-003    -2.6524714194238186E-003
  -2.2999999999999826E-003    -7.1085239760577679E-003
  -1.1999999999999927E-003    -7.1318973787128925E-003
  -9.9999999999988987E-005    -1.4704319182783365E-003
   1.0000000000000148E-003     6.7431251518428326E-003
   2.1000000000000185E-003     1.1654255911707878E-002
   3.2000000000000084E-003     8.9117316529154778E-003
   4.3000000000000121E-003    -6.3244783086702228E-004
   5.4000000000000159E-003    -1.0862620547413826E-002
   6.5000000000000058E-003    -1.4501943252980709E-002
   7.6000000000000234E-003    -8.5495943203568459E-003
   8.7000000000000133E-003     3.1571874860674143E-003
   9.8000000000000032E-003     1.2515812180936337E-002
   1.0900000000000021E-002     1.3153234496712685E-002
   1.2000000000000011E-002     5.2592474967241287E-003
   1.3100000000000001E-002    -4.6401927247643471E-003
   1.4200000000000018E-002    -8.9522944763302803E-003
   1.5300000000000008E-002    -5.1962183788418770E-003
   1.6400000000000026E-002     1.9752860534936190E-003
   1.7500000000000016E-002     4.7805346548557281E-003
   1.8600000000000005E-002    -7.1787985507398844E-004
   1.9700000000000023E-002    -1.0431810282170773E-002
   2.0800000000000013E-002    -1.4741328544914722E-002
   2.1900000000000003E-002    -6.3154548406600952E-003
   2.3000000000000020E-002     1.2675485573709011E-002
   2.4100000000000010E-002     3.0101750046014786E-002
   2.5200000000000000E-002     3.1619008630514145E-002
   2.6300000000000018E-002     1.1706737801432610E-002
   2.7400000000000008E-002    -2.0168552175164223E-002
   2.8500000000000025E-002    -4.3803345412015915E-002
   2.9600000000000015E-002    -4.1310012340545654E-002
   3.0700000000000005E-002    -1.0533218272030354E-002
   3.1800000000000023E-002     3.1031696125864983E-002
   3.2900000000000013E-002     5.6003931909799576E-002
   3.4000000000000002E-002     4.5265253633260727E-002
   3.5100000000000020E-002     2.3784660734236240E-003
   3.6200000000000010E-002    -4.6597585082054138E-002
   3.7300000000000028E-002    -6.9337621331214905E-002
   3.8400000000000017E-002    -4.9313373863697052E-002
   3.9500000000000007E-002     1.8900436116382480E-003
   4.0600000000000025E-002     5.1787592470645905E-002
   4.1700000000000015E-002     6.9653749465942383E-002
   4.2800000000000005E-002     4.8455167561769485E-002
   4.3900000000000022E-002     9.2902854084968567E-003
   4.5000000000000012E-002    -1.5820149332284927E-002
   4.6100000000000002E-002    -9.9232494831085205E-003
   4.7200000000000020E-002     1.4969248324632645E-002
   4.8300000000000010E-002     2.8430359438061714E-002
   4.9400000000000027E-002     9.3567185103893280E-003
   5.0500000000000017E-002    -3.1752824783325195E-002
   5.1600000000000007E-002    -5.6351061910390854E-002
   5.2700000000000025E-002    -2.7715602889657021E-002
   5.3800000000000014E-002     5.4976537823677063E-002
   5.4900000000000004E-002    0.14704807102680206
   5.6000000000000022E-002    0.18517947196960449
   5.7100000000000012E-002    0.13419705629348755
   5.8200000000000002E-002     1.9109454005956650E-002
   5.9300000000000019E-002    -8.4458008408546448E-002
   6.0400000000000009E-002    -9.8621055483818054E-002
   6.1500000000000027E-002     2.2256141528487206E-003
   6.2600000000000017E-002    0.17023441195487976
   6.3700000000000007E-002    0.31346696615219116
   6.4800000000000024E-002    0.35702982544898987
   6.5900000000000014E-002    0.29391121864318848
   6.7000000000000004E-002    0.18980295956134796
   6.8100000000000022E-002    0.13823702931404114
   6.9200000000000012E-002    0.19711531698703766
   7.0300000000000029E-002    0.35076186060905457
   7.1400000000000019E-002    0.52396845817565918
   7.2500000000000009E-002    0.63832640647888184
   7.3600000000000027E-002    0.67117601633071899
   7.4700000000000016E-002    0.67505192756652832
   7.5800000000000006E-002    0.74206209182739258
   7.6900000000000024E-002    0.93692934513092041
   7.8000000000000014E-002     1.2464909553527832
   7.9100000000000004E-002     1.5844250917434692
   8.0200000000000021E-002     1.8523627519607544
   8.1300000000000011E-002     2.0165381431579590
   8.2400000000000029E-002     2.1436533927917480
   8.3500000000000019E-002     2.3652987480163574
   8.4600000000000009E-002     2.7907323837280273
   8.5700000000000026E-002     3.4296071529388428
   8.6800000000000016E-002     4.1820893287658691
   8.7900000000000006E-002     4.9092125892639160
   8.9000000000000024E-002     5.5353264808654785
   9.0100000000000013E-002     6.1083478927612305
   9.1200000000000003E-002     6.7727279663085938
   9.2300000000000021E-002     7.6724109649658203
   9.3400000000000011E-002     8.8563280105590820
   9.4500000000000028E-002     10.251948356628418
   9.5600000000000018E-002     11.727499008178711
   9.6700000000000008E-002     13.190582275390625
   9.7800000000000026E-002     14.653165817260742
   9.8900000000000016E-002     16.215433120727539
  0.10000000000000001          17.989238739013672
  0.10110000000000002          20.020040512084961
  0.10220000000000001          22.264226913452148
  0.10330000000000003          24.633281707763672
  0.10440000000000002          27.062831878662109
  0.10550000000000001          29.556369781494141
  0.10660000000000003          32.172473907470703
  0.10770000000000002          34.969123840332031
  0.10880000000000001          37.949661254882812
  0.10990000000000003          41.045463562011719
  0.11100000000000002          44.151550292968750
  0.11210000000000001          47.186794281005859
  0.11320000000000002          50.135993957519531
  0.11430000000000001          53.049911499023438
  0.11540000000000003          55.991470336914062
  0.11650000000000002          58.969314575195312
  0.11760000000000001          61.896999359130859
  0.11870000000000003          64.616783142089844
  0.11980000000000002          66.977279663085938
  0.12090000000000001          68.914070129394531
  0.12200000000000003          70.473403930664062
  0.12310000000000001          71.751350402832031
  0.12420000000000003          72.796356201171875
  0.12530000000000002          73.532386779785156
  0.12640000000000001          73.787216186523438
  0.12750000000000003          73.383491516113281
  0.12860000000000002          72.246864318847656
  0.12970000000000001          70.416961669921875
  0.13080000000000003          67.986335754394531
  0.13190000000000002          65.001510620117188
  0.13300000000000001          61.422042846679688
  0.13410000000000000          57.166160583496094
  0.13520000000000004          52.193408966064453
  0.13630000000000003          46.543670654296875
  0.13740000000000002          40.301731109619141
  0.13850000000000001          33.525218963623047
  0.13960000000000000          26.198478698730469
  0.14070000000000005          18.278718948364258
  0.14180000000000004          9.7696208953857422
  0.14290000000000003         0.77435380220413208
  0.14400000000000002         -8.5330705642700195
  0.14510000000000001         -17.981233596801758
  0.14620000000000000         -27.472017288208008
  0.14730000000000004         -36.984317779541016
  0.14840000000000003         -46.526916503906250
  0.14950000000000002         -56.082683563232422
  0.15060000000000001         -65.575843811035156
  0.15170000000000000         -74.877578735351562
  0.15280000000000005         -83.812957763671875
  0.15390000000000004         -92.184722900390625
  0.15500000000000003         -99.811408996582031
  0.15610000000000002         -106.58449554443359
  0.15720000000000001         -112.50084686279297
  0.15830000000000000         -117.64279174804688
  0.15940000000000004         -122.07524871826172
  0.16050000000000003         -125.75305938720703
  0.16160000000000002         -128.52114868164062
  0.16270000000000001         -130.20755004882812
  0.16380000000000000         -130.75071716308594
  0.16490000000000005         -130.23345947265625
  0.16600000000000004         -128.78501892089844
  0.16710000000000003         -126.43329620361328
  0.16820000000000002         -123.06583404541016
  0.16930000000000001         -118.55036926269531
  0.17040000000000000         -112.91418457031250
  0.17150000000000004         -106.41897583007812
  0.17260000000000003         -99.423690795898438
  0.17370000000000002         -92.140144348144531
  0.17480000000000001         -84.492767333984375
  0.17590000000000000         -76.223190307617188
  0.17700000000000005         -67.162063598632812
  0.17810000000000004         -57.444072723388672
  0.17920000000000003         -47.481361389160156
  0.18030000000000002         -37.723571777343750
  0.18140000000000001         -28.405864715576172
  0.18250000000000000         -19.507120132446289
  0.18360000000000004         -10.898399353027344
  0.18470000000000003         -2.5237789154052734
  0.18580000000000002          5.5502414703369141
  0.18690000000000001          13.220755577087402
  0.18800000000000000          20.429218292236328
  0.18910000000000005          27.119466781616211
  0.19020000000000004          33.130058288574219
  0.19130000000000003          38.169857025146484
  0.19240000000000002          41.975379943847656
  0.19350000000000001          44.509197235107422
  0.19460000000000005          46.009025573730469
  0.19570000000000004          46.786163330078125
  0.19680000000000003          46.924453735351562
  0.19790000000000002          46.177566528320312
  0.19900000000000001          44.165916442871094
  0.20010000000000000          40.704875946044922
  0.20120000000000005          35.938488006591797
  0.20230000000000004          30.149765014648438
  0.20340000000000003          23.426486968994141
  0.20450000000000002          15.526803970336914
  0.20560000000000000          6.1014442443847656
  0.20670000000000005         -4.9408545494079590
  0.20780000000000004         -17.306837081909180
  0.20890000000000003         -30.584182739257812
