 -0.12000000000000000          0.0000000000000000
 -0.11889999999999999          0.0000000000000000
 -0.11780000000000000          0.0000000000000000
 -0.11670000000000000          0.0000000000000000
 -0.11559999999999999          0.0000000000000000
 -0.11449999999999999          0.0000000000000000
 -0.11340000000000000         -1.3422374164092708E-019
 -0.11230000000000000         -1.1060938175894500E-018
 -0.11119999999999999         -3.1084076367877473E-018
 -0.11009999999999999          1.7500697442911971E-018
 -0.10900000000000000          3.7935697340486376E-017
 -0.10790000000000000          1.1341682489973416E-016
 -0.10679999999999999          9.9741444879088977E-017
 -0.10569999999999999         -3.4975761220385415E-016
 -0.10460000000000000         -1.4260497410416447E-015
 -0.10349999999999999         -2.0894608742869081E-015
 -0.10239999999999999          6.2913626267197334E-016
 -0.10130000000000000          9.2534986766731712E-015
 -0.10020000000000000          1.9116878016028384E-014
  -9.9099999999999994E-002     1.2960833984830208E-014
  -9.7999999999999990E-002    -2.9750117977846505E-014
  -9.6899999999999986E-002    -1.0122513314754847E-013
  -9.5799999999999996E-002    -1.3240085839760080E-013
  -9.4699999999999993E-002    -1.1920126954186212E-014
  -9.3599999999999989E-002     3.0293920583873701E-013
  -9.2499999999999999E-002     6.3561509571277708E-013
  -9.1399999999999995E-002     5.7054485918736630E-013
  -9.0299999999999991E-002    -2.6682692513824158E-013
  -8.9200000000000002E-002    -1.6981410852143219E-012
  -8.8099999999999984E-002    -2.6793795047247437E-012
  -8.6999999999999994E-002    -1.7392553326375793E-012
  -8.5899999999999990E-002     1.7452089036071317E-012
  -8.4799999999999986E-002     6.2604669712196248E-012
  -8.3699999999999997E-002     8.2509780258144261E-012
  -8.2599999999999993E-002     4.3447446161637426E-012
  -8.1499999999999989E-002    -5.3826058193928716E-012
  -8.0399999999999999E-002    -1.5828132207684753E-011
  -7.9299999999999995E-002    -1.9226609887512680E-011
  -7.8199999999999992E-002    -1.0715778091252570E-011
  -7.7100000000000002E-002     7.0411007753456989E-012
  -7.5999999999999984E-002     2.4652474506225985E-011
  -7.4899999999999994E-002     3.2526578652714022E-011
  -7.3799999999999991E-002     2.7760876930571499E-011
  -7.2699999999999987E-002     1.4561405900503921E-011
  -7.1599999999999997E-002    -2.8597831568111243E-012
  -7.0499999999999993E-002    -2.7102054975247647E-011
  -6.9399999999999989E-002    -6.3692835727824360E-011
  -6.8300000000000000E-002    -1.0550315482360517E-010
  -6.7199999999999996E-002    -1.2002165927782471E-010
  -6.6099999999999992E-002    -6.0130594947693794E-011
  -6.5000000000000002E-002     9.6140435890124110E-011
  -6.3899999999999985E-002     3.0113267435183388E-010
  -6.2799999999999995E-002     4.3157863394149842E-010
  -6.1699999999999991E-002     3.4823743888523495E-010
  -6.0599999999999994E-002    -1.0334327794556120E-012
  -5.9499999999999990E-002    -5.0435483567312644E-010
  -5.8399999999999994E-002    -9.0594975965530011E-010
  -5.7299999999999990E-002    -9.3549124002834105E-010
  -5.6199999999999986E-002    -4.7668574643111583E-010
  -5.5099999999999996E-002     3.3602678972677325E-010
  -5.3999999999999992E-002     1.1642190544947084E-009
  -5.2899999999999989E-002     1.6307973860207881E-009
  -5.1799999999999985E-002     1.4994367969478617E-009
  -5.0699999999999995E-002     7.6429385043041975E-010
  -4.9599999999999991E-002    -3.7643635431017231E-010
  -4.8499999999999988E-002    -1.6054204632354185E-009
  -4.7399999999999998E-002    -2.5557838068124283E-009
  -4.6299999999999994E-002    -2.8528508444480849E-009
  -4.5199999999999990E-002    -2.1852111231623894E-009
  -4.4099999999999986E-002    -4.5670869863734254E-010
  -4.2999999999999997E-002     2.0246042620186699E-009
  -4.1899999999999993E-002     4.4692503031740216E-009
  -4.0799999999999989E-002     5.7911448969605317E-009
  -3.9699999999999985E-002     5.0627981806883326E-009
  -3.8599999999999995E-002     2.0462609384708230E-009
  -3.7499999999999992E-002    -2.5067239395326624E-009
  -3.6399999999999988E-002    -7.0100076854373583E-009
  -3.5299999999999984E-002    -9.6364063395526500E-009
  -3.4199999999999994E-002    -9.0816039133301274E-009
  -3.3099999999999991E-002    -5.1332178507834669E-009
  -3.1999999999999987E-002     1.2098951840400218E-009
  -3.0899999999999997E-002     8.0847240013781629E-009
  -2.9799999999999993E-002     1.3379533925217402E-008
  -2.8699999999999989E-002     1.5345285930834507E-008
  -2.7599999999999986E-002     1.3010432731164201E-008
  -2.6499999999999996E-002     6.3575762432321881E-009
  -2.5399999999999992E-002    -3.6710070538958917E-009
  -2.4299999999999988E-002    -1.5273956321948390E-008
  -2.3199999999999985E-002    -2.6021757193461781E-008
  -2.2099999999999995E-002    -3.3316897685153890E-008
  -2.0999999999999991E-002    -3.5131783704400732E-008
  -1.9899999999999987E-002    -3.0873390954866409E-008
  -1.8799999999999983E-002    -2.1990867793419966E-008
  -1.7699999999999994E-002    -1.1881890138454310E-008
  -1.6599999999999990E-002    -4.9086232856154766E-009
  -1.5499999999999986E-002    -4.8297117416495894E-009
  -1.4399999999999996E-002    -1.3386541652948836E-008
  -1.3299999999999992E-002    -2.9806109580476914E-008
  -1.2199999999999989E-002    -5.1497398345645706E-008
  -1.1099999999999985E-002    -7.5502953222894575E-008
  -9.9999999999999950E-003    -9.9822415222661220E-008
  -8.8999999999999913E-003    -1.2389210723995348E-007
  -7.7999999999999875E-003    -1.4817013038737059E-007
  -6.6999999999999837E-003    -1.7342679825560481E-007
  -5.5999999999999939E-003    -2.0046520887717634E-007
  -4.4999999999999901E-003    -2.3051207165281085E-007
  -3.3999999999999864E-003    -2.6584996248857351E-007
  -2.2999999999999826E-003    -3.0998450029073865E-007
  -1.1999999999999927E-003    -3.6699117345051491E-007
  -9.9999999999988987E-005    -4.4036346480424982E-007
   1.0000000000000148E-003    -5.3211141448628041E-007
   2.1000000000000185E-003    -6.4269016775142518E-007
   3.2000000000000084E-003    -7.7173524459794862E-007
   4.3000000000000121E-003    -9.1905189947283361E-007
   5.4000000000000159E-003    -1.0852548939510598E-006
   6.5000000000000058E-003    -1.2718470543404692E-006
   7.6000000000000234E-003    -1.4809764934398117E-006
   8.7000000000000133E-003    -1.7152599411929259E-006
   9.8000000000000032E-003    -1.9778419755311916E-006
   1.0900000000000021E-002    -2.2725416783941910E-006
   1.2000000000000011E-002    -2.6037980660476023E-006
   1.3100000000000001E-002    -2.9762579742964590E-006
   1.4200000000000018E-002    -3.3941046240215655E-006
   1.5300000000000008E-002    -3.8604271139774937E-006
   1.6400000000000026E-002    -4.3769618969236035E-006
   1.7500000000000016E-002    -4.9443888201494701E-006
   1.8600000000000005E-002    -5.5630775932513643E-006
   1.9700000000000023E-002    -6.2338631323655136E-006
   2.0800000000000013E-002    -6.9582474679918960E-006
   2.1900000000000003E-002    -7.7376034823828377E-006
   2.3000000000000020E-002    -8.5715364548377693E-006
   2.4100000000000010E-002    -9.4562365120509639E-006
   2.5200000000000000E-002    -1.0383871085650753E-005
   2.6300000000000018E-002    -1.1343555343046319E-005
   2.7400000000000008E-002    -1.2323400369496085E-005
   2.8500000000000025E-002    -1.3312321243574843E-005
   2.9600000000000015E-002    -1.4300398106570356E-005
   3.0700000000000005E-002    -1.5277582861017436E-005
   3.1800000000000023E-002    -1.6231611880357377E-005
   3.2900000000000013E-002    -1.7146336176665500E-005
   3.4000000000000002E-002    -1.8001115677179769E-005
   3.5100000000000020E-002    -1.8771039322018623E-005
   3.6200000000000010E-002    -1.9427359802648425E-005
   3.7300000000000028E-002    -1.9937999240937643E-005
   3.8400000000000017E-002    -2.0268569642212242E-005
   3.9500000000000007E-002    -2.0384242816362530E-005
   4.0600000000000025E-002    -2.0252009562682360E-005
   4.1700000000000015E-002    -1.9842034816974774E-005
   4.2800000000000005E-002    -1.9127008272334933E-005
   4.3900000000000022E-002    -1.8079666915582493E-005
   4.5000000000000012E-002    -1.6670088371029124E-005
   4.6100000000000002E-002    -1.4864805962133687E-005
   4.7200000000000020E-002    -1.2628654076252133E-005
   4.8300000000000010E-002    -9.9285844044061378E-006
   4.9400000000000027E-002    -6.7377113737165928E-006
   5.0500000000000017E-002    -3.0382118438865291E-006
   5.1600000000000007E-002     1.1772364132411894E-006
   5.2700000000000025E-002     5.9049903029517736E-006
   5.3800000000000014E-002     1.1130525308544748E-005
   5.4900000000000004E-002     1.6829206288093701E-005
   5.6000000000000022E-002     2.2967724362388253E-005
   5.7100000000000012E-002     2.9505643396987580E-005
   5.8200000000000002E-002     3.6395962524693459E-005
   5.9300000000000019E-002     4.3583822844084352E-005
   6.0400000000000009E-002     5.1003793487325311E-005
   6.1500000000000027E-002     5.8577155868988484E-005
   6.2600000000000017E-002     6.6210734075866640E-005
   6.3700000000000007E-002     7.3797797085717320E-005
   6.4800000000000024E-002     8.1220336141996086E-005
   6.5900000000000014E-002     8.8351705926470459E-005
   6.7000000000000004E-002     9.5059273007791489E-005
   6.8100000000000022E-002     1.0120721708517522E-004
   6.9200000000000012E-002     1.0665953595889732E-004
   7.0300000000000029E-002     1.1128271580673754E-004
   7.1400000000000019E-002     1.1494720092741773E-004
   7.2500000000000009E-002     1.1752762657124549E-004
   7.3600000000000027E-002     1.1890283349202946E-004
   7.4700000000000016E-002     1.1895714851561934E-004
   7.5800000000000006E-002     1.1758357140934095E-004
   7.6900000000000024E-002     1.1468782031442970E-004
   7.8000000000000014E-002     1.1019166413461789E-004
   7.9100000000000004E-002     1.0403479973319918E-004
   8.0200000000000021E-002     9.6175914222840220E-005
   8.1300000000000011E-002     8.6594220192637295E-005
   8.2400000000000029E-002     7.5291878602001816E-005
   8.3500000000000019E-002     6.2296159740071744E-005
   8.4600000000000009E-002     4.7659563279012218E-005
   8.5700000000000026E-002     3.1457588193006814E-005
   8.6800000000000016E-002     1.3785668670607265E-005
   8.7900000000000006E-002    -5.2429159040912054E-006
   8.9000000000000024E-002    -2.5497220121906139E-005
   9.0100000000000013E-002    -4.6828074118820950E-005
   9.1200000000000003E-002    -6.9068810262251645E-005
   9.2300000000000021E-002    -9.2037982540205121E-005
   9.3400000000000011E-002    -1.1554292723303661E-004
   9.4500000000000028E-002    -1.3938230404164642E-004
   9.5600000000000018E-002    -1.6334718384314328E-004
   9.6700000000000008E-002    -1.8722206004895270E-004
   9.7800000000000026E-002    -2.1078754798509181E-004
   9.8900000000000016E-002    -2.3382500512525439E-004
  0.10000000000000001         -2.5612112949602306E-004
  0.10110000000000002         -2.7747015701606870E-004
  0.10220000000000001         -2.9767304658889771E-004
  0.10330000000000003         -3.1653535552322865E-004
  0.10440000000000002         -3.3386622089892626E-004
  0.10550000000000001         -3.4947934909723699E-004
  0.10660000000000003         -3.6319482023827732E-004
  0.10770000000000002         -3.7483975756913424E-004
  0.10880000000000001         -3.8424693048000336E-004
  0.10990000000000003         -3.9125257171690464E-004
  0.11100000000000002         -3.9569530053995550E-004
  0.11210000000000001         -3.9741641376167536E-004
  0.11320000000000002         -3.9626070065423846E-004
  0.11430000000000001         -3.9207632653415203E-004
  0.11540000000000003         -3.8471375592052937E-004
  0.11650000000000002         -3.7402496673166752E-004
  0.11760000000000001         -3.5986484726890922E-004
  0.11870000000000003         -3.4209489240311086E-004
  0.11980000000000002         -3.2058745273388922E-004
  0.12090000000000001         -2.9522966360673308E-004
  0.12200000000000003         -2.6592676294967532E-004
  0.12310000000000001         -2.3260574380401522E-004
  0.12420000000000003         -1.9522052025422454E-004
  0.12530000000000002         -1.5375853399746120E-004
  0.12640000000000001         -1.0824762284755707E-004
  0.12750000000000003         -5.8762678236234933E-005
  0.12860000000000002         -5.4319234550348483E-006
  0.12970000000000001          5.1556638936745003E-005
  0.13080000000000003          1.1194828402949497E-004
  0.13190000000000002          1.7541581473778933E-004
  0.13300000000000001          2.4155557912308723E-004
  0.13410000000000000          3.0988577054813504E-004
  0.13520000000000004          3.7984648952260613E-004
  0.13630000000000003          4.5080028939992189E-004
  0.13740000000000002          5.2203395171090961E-004
  0.13850000000000001          5.9276283718645573E-004
  0.13960000000000000          6.6213856916874647E-004
  0.14070000000000005          7.2925968561321497E-004
  0.14180000000000004          7.9318368807435036E-004
  0.14290000000000003          8.5293914889916778E-004
  0.14400000000000002          9.0753874974325299E-004
  0.14510000000000001          9.5599523046985269E-004
  0.14620000000000000          9.9734112154692411E-004
  0.14730000000000004          1.0306509211659431E-003
  0.14840000000000003          1.0550628649070859E-003
  0.14950000000000002          1.0697992984205484E-003
  0.15060000000000001          1.0741847800090909E-003
  0.15170000000000000          1.0676636593416333E-003
  0.15280000000000005          1.0498185874894261E-003
  0.15390000000000004          1.0203872807323933E-003
  0.15500000000000003          9.7927602473646402E-004
  0.15610000000000002          9.2656759079545736E-004
  0.15720000000000001          8.6252496112138033E-004
  0.15830000000000000          7.8759324969723821E-004
  0.15940000000000004          7.0240022614598274E-004
  0.16050000000000003          6.0775433667004108E-004
  0.16160000000000002          5.0463783554732800E-004
  0.16270000000000001          3.9419421227648854E-004
  0.16380000000000000          2.7770927408710122E-004
  0.16490000000000005          1.5658895426895469E-004
  0.16600000000000004          3.2335930882254615E-005
  0.16710000000000003         -9.3475937319453806E-005
  0.16820000000000002         -2.1922908490523696E-004
  0.16930000000000001         -3.4329105983488262E-004
  0.17040000000000000         -4.6404413296841085E-004
  0.17150000000000004         -5.7991401990875602E-004
  0.17260000000000003         -6.8939733318984509E-004
  0.17370000000000002         -7.9108792124316096E-004
  0.17480000000000001         -8.8370271259918809E-004
  0.17590000000000000         -9.6610543550923467E-004
  0.17700000000000005         -1.0373272234573960E-003
  0.17810000000000004         -1.0965826222673059E-003
  0.17920000000000003         -1.1432812316343188E-003
  0.18030000000000002         -1.1770357377827168E-003
  0.18140000000000001         -1.1976659297943115E-003
  0.18250000000000000         -1.2051981175318360E-003
  0.18360000000000004         -1.1998594272881746E-003
  0.18470000000000003         -1.1820668587461114E-003
  0.18580000000000002         -1.1524133151397109E-003
  0.18690000000000001         -1.1116527020931244E-003
  0.18800000000000000         -1.0606837458908558E-003
  0.18910000000000005         -1.0005309013649821E-003
  0.19020000000000004         -9.3232118524610996E-004
  0.19130000000000003         -8.5725821554660797E-004
  0.19240000000000002         -7.7659613452851772E-004
  0.19350000000000001         -6.9161591818556190E-004
  0.19460000000000005         -6.0360395582392812E-004
  0.19570000000000004         -5.1383086247369647E-004
  0.19680000000000003         -4.2352924356237054E-004
  0.19790000000000002         -3.3387137227691710E-004
  0.19900000000000001         -2.4594939895905554E-004
  0.20010000000000000         -1.6076146857813001E-004
  0.20120000000000005         -7.9202807683032006E-005
  0.20230000000000004         -2.0595227852027165E-006
  0.20340000000000003          6.9997200625948608E-005
  0.20450000000000002          1.3641681289300323E-004
  0.20560000000000000          1.9677224918268621E-004
  0.20670000000000005          2.5075790472328663E-004
  0.20780000000000004          2.9818483744747937E-004
  0.20890000000000003          3.3897426328621805E-004
