 -0.12000000000000000          0.0000000000000000
 -0.11889999999999999          0.0000000000000000
 -0.11780000000000000          0.0000000000000000
 -0.11670000000000000          0.0000000000000000
 -0.11559999999999999          0.0000000000000000
 -0.11449999999999999          0.0000000000000000
 -0.11340000000000000          0.0000000000000000
 -0.11230000000000000          1.6007688677264079E-021
 -0.11119999999999999          5.5488640661189321E-021
 -0.11009999999999999         -1.5091966821578042E-020
 -0.10900000000000000         -1.2485053160508427E-019
 -0.10790000000000000         -2.1760764451525836E-019
 -0.10679999999999999          4.2907794492740558E-019
 -0.10569999999999999          2.7788909339952562E-018
 -0.10460000000000000          5.0496849359591637E-018
 -0.10349999999999999         -1.3117847880068217E-018
 -0.10239999999999999         -2.7057744544181678E-017
 -0.10130000000000000         -6.1349749336680622E-017
 -0.10020000000000000         -4.3001738532291034E-017
  -9.9099999999999994E-002     1.1590906052834084E-016
  -9.7999999999999990E-002     3.9961548025666388E-016
  -9.6899999999999986E-002     5.2035679757466876E-016
  -9.5799999999999996E-002    -2.8944975309651269E-017
  -9.4699999999999993E-002    -1.4491173069314804E-015
  -9.3599999999999989E-002    -2.8514792422075800E-015
  -9.2499999999999999E-002    -2.1495034400278074E-015
  -9.1399999999999995E-002     2.3621411087984705E-015
  -9.0299999999999991E-002     9.1430515095813411E-015
  -8.9200000000000002E-002     1.1989111858509187E-014
  -8.8099999999999984E-002     3.4884926995314126E-015
  -8.6999999999999994E-002    -1.6711390843185245E-014
  -8.5899999999999990E-002    -3.5392028256652547E-014
  -8.4799999999999986E-002    -3.0720482310352334E-014
  -8.3699999999999997E-002     8.6848541189599571E-015
  -8.2599999999999993E-002     6.3633627989281002E-014
  -8.1499999999999989E-002     8.6525811472318907E-014
  -8.0399999999999999E-002     3.7374583408601706E-014
  -7.9299999999999995E-002    -6.8040299956711418E-014
  -7.8199999999999992E-002    -1.4674321328378683E-013
  -7.7100000000000002E-002    -1.0706173903147004E-013
  -7.5999999999999984E-002     5.3464482461468844E-014
  -7.4899999999999994E-002     2.0322980765710619E-013
  -7.3799999999999991E-002     1.6318183241289958E-013
  -7.2699999999999987E-002    -1.0906204460588762E-013
  -7.1599999999999997E-002    -4.0043502910239191E-013
  -7.0499999999999993E-002    -3.5661800118839662E-013
  -6.9399999999999989E-002     1.8603890129808693E-013
  -6.8300000000000000E-002     9.1588737462235181E-013
  -6.7199999999999996E-002     1.1416879811335604E-012
  -6.6099999999999992E-002     3.3648260501688751E-013
  -6.5000000000000002E-002    -1.2488381639571200E-012
  -6.3899999999999985E-002    -2.5018721903219171E-012
  -6.2799999999999995E-002    -2.1756422618342007E-012
  -6.1699999999999991E-002     7.7648704588701447E-015
  -6.0599999999999994E-002     2.8179474812619966E-012
  -5.9499999999999990E-002     4.2067304500957345E-012
  -5.8399999999999994E-002     2.8909212263646084E-012
  -5.7299999999999990E-002    -4.3568059858573063E-013
  -5.6199999999999986E-002    -3.4412733079796593E-012
  -5.5099999999999996E-002    -3.9903262985525259E-012
  -5.3999999999999992E-002    -1.9962861658866935E-012
  -5.2899999999999989E-002     4.3735257386099004E-013
  -5.1799999999999985E-002     9.3893111601573203E-013
  -5.0699999999999995E-002    -7.4352758108488001E-013
  -4.9599999999999991E-002    -2.1880615808801705E-012
  -4.8499999999999988E-002    -4.3637305140889915E-013
  -4.7399999999999998E-002     4.8379208625331019E-012
  -4.6299999999999994E-002     1.0094695045149701E-011
  -4.5199999999999990E-002     1.0222745393252876E-011
  -4.4099999999999986E-002     2.8542806139469475E-012
  -4.2999999999999997E-002    -8.9258028052031428E-012
  -4.1899999999999993E-002    -1.8105015750502728E-011
  -4.0799999999999989E-002    -1.8633289355920040E-011
  -3.9699999999999985E-002    -9.8195843817347508E-012
  -3.8599999999999995E-002     3.3412302872343442E-012
  -3.7499999999999992E-002     1.4052670485595916E-011
  -3.6399999999999988E-002     1.8405502816287793E-011
  -3.5299999999999984E-002     1.7013664782575192E-011
  -3.4199999999999994E-002     1.2740544730332163E-011
  -3.3099999999999991E-002     7.2380153086411394E-012
  -3.1999999999999987E-002    -1.8917017203613332E-013
  -3.0899999999999997E-002    -1.0500416508517832E-011
  -2.9799999999999993E-002    -2.2060089865941061E-011
  -2.8699999999999989E-002    -3.0190207972463744E-011
  -2.7599999999999986E-002    -2.9850476257482942E-011
  -2.6499999999999996E-002    -1.9080542701394772E-011
  -2.5399999999999992E-002    -2.6235789799662839E-013
  -2.4299999999999988E-002     2.1412017991996351E-011
  -2.3199999999999985E-002     4.0288179042896552E-011
  -2.2099999999999995E-002     5.1339543727388369E-011
  -2.0999999999999991E-002     5.0183589922489867E-011
  -1.9899999999999987E-002     3.3925313946976187E-011
  -1.8799999999999983E-002     3.5899189437134317E-012
  -1.7699999999999994E-002    -3.3975929708554160E-011
  -1.6599999999999990E-002    -6.7882859056129651E-011
  -1.5499999999999986E-002    -8.8948619303428807E-011
  -1.4399999999999996E-002    -9.5313465453561013E-011
  -1.3299999999999992E-002    -9.2705162990658057E-011
  -1.2199999999999989E-002    -8.8472770776181544E-011
  -1.1099999999999985E-002    -8.4743753681069883E-011
  -9.9999999999999950E-003    -7.7799898468020598E-011
  -8.8999999999999913E-003    -6.5287435180313626E-011
  -7.7999999999999875E-003    -5.4707970792440535E-011
  -6.6999999999999837E-003    -6.3905422620364763E-011
  -5.5999999999999939E-003    -1.1067886884764339E-010
  -4.4999999999999901E-003    -1.9904784764880468E-010
  -3.3999999999999864E-003    -3.1421124035981787E-010
  -2.2999999999999826E-003    -4.3177342257120360E-010
  -1.1999999999999927E-003    -5.3456594706352009E-010
  -9.9999999999988987E-005    -6.2355515195739850E-010
   1.0000000000000148E-003    -7.1450850791529054E-010
   2.1000000000000185E-003    -8.2469003848126832E-010
   3.2000000000000084E-003    -9.6218588652173722E-010
   4.3000000000000121E-003    -1.1268965760536931E-009
   5.4000000000000159E-003    -1.3205874171974440E-009
   6.5000000000000058E-003    -1.5550515319874670E-009
   7.6000000000000234E-003    -1.8501675747019791E-009
   8.7000000000000133E-003    -2.2240793651209173E-009
   9.8000000000000032E-003    -2.6851569856492346E-009
   1.0900000000000021E-002    -3.2327498455945010E-009
   1.2000000000000011E-002    -3.8645158184639688E-009
   1.3100000000000001E-002    -4.5822585725834433E-009
   1.4200000000000018E-002    -5.3914801512183627E-009
   1.5300000000000008E-002    -6.2978924297858176E-009
   1.6400000000000026E-002    -7.3075216988634726E-009
   1.7500000000000016E-002    -8.4319973225896737E-009
   1.8600000000000005E-002    -9.6930410364858178E-009
   1.9700000000000023E-002    -1.1119339227151385E-008
   2.0800000000000013E-002    -1.2736765420130663E-008
   2.1900000000000003E-002    -1.4560862737768408E-008
   2.3000000000000020E-002    -1.6599237540050934E-008
   2.4100000000000010E-002    -1.8860973227676511E-008
   2.5200000000000000E-002    -2.1361479696226942E-008
   2.6300000000000018E-002    -2.4114680030609446E-008
   2.7400000000000008E-002    -2.7118051804112072E-008
   2.8500000000000025E-002    -3.0346154034080928E-008
   2.9600000000000015E-002    -3.3762734830137542E-008
   3.0700000000000005E-002    -3.7343848902086785E-008
   3.1800000000000023E-002    -4.1091301028477500E-008
   3.2900000000000013E-002    -4.5021810279882109E-008
   3.4000000000000002E-002    -4.9137920399294647E-008
   3.5100000000000020E-002    -5.3403319100204088E-008
   3.6200000000000010E-002    -5.7741555536956323E-008
   3.7300000000000028E-002    -6.2055946159496462E-008
   3.8400000000000017E-002    -6.6250052555013473E-008
   3.9500000000000007E-002    -7.0230164794801600E-008
   4.0600000000000025E-002    -7.3890355167813730E-008
   4.1700000000000015E-002    -7.7097688233616504E-008
   4.2800000000000005E-002    -7.9693329269058083E-008
   4.3900000000000022E-002    -8.1507529614565367E-008
   4.5000000000000012E-002    -8.2372075382874495E-008
   4.6100000000000002E-002    -8.2117288968685956E-008
   4.7200000000000020E-002    -8.0557015280657921E-008
   4.8300000000000010E-002    -7.7477729121267110E-008
   4.9400000000000027E-002    -7.2641597625999888E-008
   5.0500000000000017E-002    -6.5797685522295166E-008
   5.1600000000000007E-002    -5.6687223803930159E-008
   5.2700000000000025E-002    -4.5038827778408606E-008
   5.3800000000000014E-002    -3.0564788033880194E-008
   5.4900000000000004E-002    -1.2972652285733386E-008
   5.6000000000000022E-002     8.0085555964549915E-009
   5.7100000000000012E-002     3.2606511268790899E-008
   5.8200000000000002E-002     6.1006851126419046E-008
   5.9300000000000019E-002     9.3373891729697670E-008
   6.0400000000000009E-002     1.2986691899641578E-007
   6.1500000000000027E-002     1.7063041468646288E-007
   6.2600000000000017E-002     2.1576269659818608E-007
   6.3700000000000007E-002     2.6529090746409144E-007
   6.4800000000000024E-002     3.1917434739627463E-007
   6.5900000000000014E-002     3.7732715441054644E-007
   6.7000000000000004E-002     4.3962899098917843E-007
   6.8100000000000022E-002     5.0589875399968017E-007
   6.9200000000000012E-002     5.7584657042757091E-007
   7.0300000000000029E-002     6.4904560304062475E-007
   7.1400000000000019E-002     7.2495043923487222E-007
   7.2500000000000009E-002     8.0294790905106180E-007
   7.3600000000000027E-002     8.8239255546802891E-007
   7.4700000000000016E-002     9.6259373094661461E-007
   7.5800000000000006E-002     1.0427684173920114E-006
   7.6900000000000024E-002     1.1220115538891172E-006
   7.8000000000000014E-002     1.1993183761661485E-006
   7.9100000000000004E-002     1.2736413737003379E-006
   8.0200000000000021E-002     1.3439323538478924E-006
   8.1300000000000011E-002     1.4091320963417593E-006
   8.2400000000000029E-002     1.4681297670905608E-006
   8.3500000000000019E-002     1.5197426819214784E-006
   8.4600000000000009E-002     1.5627546190445668E-006
   8.5700000000000026E-002     1.5959858501447882E-006
   8.6800000000000016E-002     1.6183365687540236E-006
   8.7900000000000006E-002     1.6287689277307125E-006
   8.9000000000000024E-002     1.6262587223538207E-006
   9.0100000000000013E-002     1.6097792467918838E-006
   9.1200000000000003E-002     1.5783513163116058E-006
   9.2300000000000021E-002     1.5311230754379387E-006
   9.3400000000000011E-002     1.4674097883472848E-006
   9.4500000000000028E-002     1.3866593917556679E-006
   9.5600000000000018E-002     1.2883837143819115E-006
   9.6700000000000008E-002     1.1721305099855588E-006
   9.7800000000000026E-002     1.0375302963440146E-006
   9.8900000000000016E-002     8.8437184331279221E-007
  0.10000000000000001          7.1262820711135138E-007
  0.10110000000000002          5.2240221748441133E-007
  0.10220000000000001          3.1384274734596867E-007
  0.10330000000000003          8.7117435043671207E-008
  0.10440000000000002         -1.5753067827971424E-007
  0.10550000000000001         -4.1970181996476699E-007
  0.10660000000000003         -6.9882230491206157E-007
  0.10770000000000002         -9.9421868071664466E-007
  0.10880000000000001         -1.3052122085356084E-006
  0.10990000000000003         -1.6311365698130666E-006
  0.11100000000000002         -1.9712549601537456E-006
  0.11210000000000001         -2.3246550426849288E-006
  0.11320000000000002         -2.6902305307887474E-006
  0.11430000000000001         -3.0667667942909834E-006
  0.11540000000000003         -3.4530437460492083E-006
  0.11650000000000002         -3.8478360693264585E-006
  0.11760000000000001         -4.2497918002485485E-006
  0.11870000000000003         -4.6572822611782786E-006
  0.11980000000000002         -5.0683579502223976E-006
  0.12090000000000001         -5.4808301683810897E-006
  0.12200000000000003         -5.8923810684068850E-006
  0.12310000000000001         -6.3005581978364537E-006
  0.12420000000000003         -6.7026371652906348E-006
  0.12530000000000002         -7.0954679358698371E-006
  0.12640000000000001         -7.4754475463129871E-006
  0.12750000000000003         -7.8386465247610739E-006
  0.12860000000000002         -8.1809557741514884E-006
  0.12970000000000001         -8.4981138570590727E-006
  0.13080000000000003         -8.7855723904802586E-006
  0.13190000000000002         -9.0383573478910517E-006
  0.13300000000000001         -9.2510745162152333E-006
  0.13410000000000000         -9.4181023087011485E-006
  0.13520000000000004         -9.5338309620282583E-006
  0.13630000000000003         -9.5927689471872595E-006
  0.13740000000000002         -9.5894793048509502E-006
  0.13850000000000001         -9.5184923338828697E-006
  0.13960000000000000         -9.3743756224293282E-006
  0.14070000000000005         -9.1519987108776214E-006
  0.14180000000000004         -8.8468423200546429E-006
  0.14290000000000003         -8.4551675172414008E-006
  0.14400000000000002         -7.9739820648690638E-006
  0.14510000000000001         -7.4009662967007585E-006
  0.14620000000000000         -6.7345508796285756E-006
  0.14730000000000004         -5.9741910263261532E-006
  0.14840000000000003         -5.1206734497105256E-006
  0.14950000000000002         -4.1762477849265275E-006
  0.15060000000000001         -3.1445306376557591E-006
  0.15170000000000000         -2.0303498331489076E-006
  0.15280000000000005         -8.3973213804727078E-007
  0.15390000000000004          4.1991867760765824E-007
  0.15500000000000003          1.7396239400114295E-006
  0.15610000000000002          3.1088334253583477E-006
  0.15720000000000001          4.5156780288383095E-006
  0.15830000000000000          5.9473031797101308E-006
  0.15940000000000004          7.3900550887634430E-006
  0.16050000000000003          8.8294746092294617E-006
  0.16160000000000002          1.0250273589918731E-005
  0.16270000000000001          1.1636498129520100E-005
  0.16380000000000000          1.2971938303963869E-005
  0.16490000000000005          1.4240591553972342E-005
  0.16600000000000004          1.5426958270837902E-005
  0.16710000000000003          1.6516114555999160E-005
  0.16820000000000002          1.7493759514765432E-005
  0.16930000000000001          1.8346427168582269E-005
  0.17040000000000000          1.9061915736530681E-005
  0.17150000000000004          1.9629744201667442E-005
  0.17260000000000003          2.0041370589753495E-005
  0.17370000000000002          2.0290175598349338E-005
  0.17480000000000001          2.0371386199260067E-005
  0.17590000000000000          2.0282148398111514E-005
  0.17700000000000005          2.0021809177707810E-005
  0.17810000000000004          1.9592172975537270E-005
  0.17920000000000003          1.8997510778719421E-005
  0.18030000000000002          1.8244296370541485E-005
  0.18140000000000001          1.7340891645291557E-005
  0.18250000000000000          1.6297395632138131E-005
  0.18360000000000004          1.5125690879359867E-005
  0.18470000000000003          1.3839454368282029E-005
  0.18580000000000002          1.2453937415558649E-005
  0.18690000000000001          1.0985501830874621E-005
  0.18800000000000000          9.4511360657643666E-006
  0.18910000000000005          7.8681887316642028E-006
  0.19020000000000004          6.2543094827567374E-006
  0.19130000000000003          4.6273976295202143E-006
  0.19240000000000002          3.0053154205237809E-006
  0.19350000000000001          1.4053886161493740E-006
  0.19460000000000005         -1.5607074033132200E-007
  0.19570000000000004         -1.6639853583911178E-006
  0.19680000000000003         -3.1044835395734432E-006
  0.19790000000000002         -4.4648504626823828E-006
  0.19900000000000001         -5.7336819736524055E-006
  0.20010000000000000         -6.9012280619068285E-006
  0.20120000000000005         -7.9596802606835795E-006
  0.20230000000000004         -8.9031918832923103E-006
  0.20340000000000003         -9.7276561064071652E-006
  0.20450000000000002         -1.0430462680234056E-005
  0.20560000000000000         -1.1010475645890468E-005
  0.20670000000000005         -1.1468183402031252E-005
  0.20780000000000004         -1.1805806934718138E-005
  0.20890000000000003         -1.2027149750793942E-005
