 -0.12000000000000000          0.0000000000000000
 -0.11889999999999999          0.0000000000000000
 -0.11780000000000000          0.0000000000000000
 -0.11670000000000000          0.0000000000000000
 -0.11559999999999999          0.0000000000000000
 -0.11449999999999999          0.0000000000000000
 -0.11340000000000000          0.0000000000000000
 -0.11230000000000000          0.0000000000000000
 -0.11119999999999999          0.0000000000000000
 -0.11009999999999999          0.0000000000000000
 -0.10900000000000000          0.0000000000000000
 -0.10790000000000000          0.0000000000000000
 -0.10679999999999999         -5.6859969306476302E-039
 -0.10569999999999999         -1.9299487356519289E-037
 -0.10460000000000000         -2.1523730966247104E-036
 -0.10349999999999999         -1.6275217207715302E-035
 -0.10239999999999999         -8.1135277583424356E-035
 -0.10130000000000000         -2.3269744081654815E-034
 -0.10020000000000000         -2.7210632514647209E-034
  -9.9099999999999994E-002     2.6140521691553620E-034
  -9.7999999999999990E-002     8.2741265745755353E-034
  -9.6899999999999986E-002     1.4635875368931869E-033
  -9.5799999999999996E-002     1.7945969564208527E-032
  -9.4699999999999993E-002     7.3741893319527037E-032
  -9.3599999999999989E-002     2.9437167404937405E-032
  -9.2499999999999999E-002    -6.1828082925284880E-031
  -9.1399999999999995E-002    -1.7230736617517088E-030
  -9.0299999999999991E-002     6.6132320060029801E-031
  -8.9200000000000002E-002     1.3006501559419075E-029
  -8.8099999999999984E-002     2.3025935427974926E-029
  -8.6999999999999994E-002    -2.9161712003447918E-029
  -8.5899999999999990E-002    -1.8563688455439931E-028
  -8.4799999999999986E-002    -2.1350510288674476E-028
  -8.3699999999999997E-002     5.1044221318807373E-028
  -8.2599999999999993E-002     1.9968276626860077E-027
  -8.1499999999999989E-002     1.4445908437747865E-027
  -8.0399999999999999E-002    -6.1164060656118936E-027
  -7.9299999999999995E-002    -1.7559190178068370E-026
  -7.8199999999999992E-002    -7.0304747580054306E-027
  -7.7100000000000002E-002     5.8197479888557323E-026
  -7.5999999999999984E-002     1.3486693905972150E-025
  -7.4899999999999994E-002     2.2936606909183171E-026
  -7.3799999999999991E-002    -4.6882171230227091E-025
  -7.2699999999999987E-002    -9.5235331390419803E-025
  -7.1599999999999997E-002    -6.2834028347921286E-026
  -7.0499999999999993E-002     3.2761259287474733E-024
  -6.9399999999999989E-002     6.3460262619302592E-024
  -6.8300000000000000E-002     7.1286234143485899E-025
  -6.7199999999999996E-002    -1.9875612408863926E-023
  -6.6099999999999992E-002    -3.9761240195780538E-023
  -6.5000000000000002E-002    -1.1319417982696948E-023
  -6.3899999999999985E-002     1.0319672627177195E-022
  -6.2799999999999995E-002     2.2910628523956933E-022
  -6.1699999999999991E-002     1.2152855366633646E-022
  -6.0599999999999994E-002    -4.4461796010550944E-022
  -5.9499999999999990E-002    -1.1830666902457108E-021
  -5.8399999999999994E-002    -9.5918973239241531E-022
  -5.7299999999999990E-002     1.4793294237878904E-021
  -5.6199999999999986E-002     5.3478769487266107E-021
  -5.5099999999999996E-002     5.9786853685356897E-021
  -5.3999999999999992E-002    -2.9030743702858130E-021
  -5.2899999999999989E-002    -2.0643518416895430E-020
  -5.1799999999999985E-002    -3.0542972034272848E-020
  -5.0699999999999995E-002    -4.7903992211313512E-021
  -4.9599999999999991E-002     6.5428790918465409E-020
  -4.8499999999999988E-002     1.2999197609998529E-019
  -4.7399999999999998E-002     8.1017785043851484E-020
  -4.6299999999999994E-002    -1.5461977957389143E-019
  -4.5199999999999990E-002    -4.6106039217334214E-019
  -4.4099999999999986E-002    -4.7620544880372866E-019
  -4.2999999999999997E-002     1.7042779561584507E-019
  -4.1899999999999993E-002     1.3356241332613035E-018
  -4.0799999999999989E-002     1.9890252660552095E-018
  -3.9699999999999985E-002     6.7452763583124006E-019
  -3.8599999999999995E-002    -2.9558250738156033E-018
  -3.7499999999999992E-002    -6.5295416574991300E-018
  -3.6399999999999988E-002    -5.3487429874409081E-018
  -3.5299999999999984E-002     3.7813676619606228E-018
  -3.4199999999999994E-002     1.7029034921731172E-017
  -3.3099999999999991E-002     2.1841629628207566E-017
  -3.1999999999999987E-002     4.6554725763025587E-018
  -3.0899999999999997E-002    -3.3387279306241042E-017
  -2.9799999999999993E-002    -6.5221093569772798E-017
  -2.8699999999999989E-002    -4.8458953435765535E-017
  -2.7599999999999986E-002     3.7283432340263811E-017
  -2.6499999999999996E-002     1.4942792772643831E-016
  -2.5399999999999992E-002     1.8276858713335586E-016
  -2.4299999999999988E-002     4.1369555673765508E-017
  -2.3199999999999985E-002    -2.4793991090003257E-016
  -2.2099999999999995E-002    -4.7855090412778144E-016
  -2.0999999999999991E-002    -3.6524767428720796E-016
  -1.9899999999999987E-002     2.0230462120327805E-016
  -1.8799999999999983E-002     9.2993820279094631E-016
  -1.7699999999999994E-002     1.1737769654488308E-015
  -1.6599999999999990E-002     3.9411725704715389E-016
  -1.5499999999999986E-002    -1.2314569445415332E-015
  -1.4399999999999996E-002    -2.5793982835059515E-015
  -1.3299999999999992E-002    -2.1829241837528421E-015
  -1.2199999999999989E-002     4.9926959471541764E-016
  -1.1099999999999985E-002     4.0763701991003171E-015
  -9.9999999999999950E-003     5.6134851236474322E-015
  -8.8999999999999913E-003     2.7094186879424338E-015
  -7.7999999999999875E-003    -3.9717235136317846E-015
  -6.6999999999999837E-003    -9.9609922632297454E-015
  -5.5999999999999939E-003    -9.5326180556500918E-015
  -4.4999999999999901E-003    -4.9989136983826150E-016
  -3.3999999999999864E-003     1.2365670519606711E-014
  -2.2999999999999826E-003     1.9051668337551064E-014
  -1.1999999999999927E-003     1.1504069452692584E-014
  -9.9999999999988987E-005    -8.3824455691006335E-015
   1.0000000000000148E-003    -2.7109624901920995E-014
   2.1000000000000185E-003    -2.7957875882553447E-014
   3.2000000000000084E-003    -5.0197408621270589E-015
   4.3000000000000121E-003     2.8193132507389751E-014
   5.4000000000000159E-003     4.5177508516949447E-014
   6.5000000000000058E-003     2.6618735427669238E-014
   7.6000000000000234E-003    -2.0051326457505222E-014
   8.7000000000000133E-003    -5.9854058558420076E-014
   9.8000000000000032E-003    -5.4460857481716807E-014
   1.0900000000000021E-002     3.5495669514014512E-015
   1.2000000000000011E-002     7.4905081865871831E-014
   1.3100000000000001E-002     9.6167133501259827E-014
   1.4200000000000018E-002     3.1083256357266470E-014
   1.5300000000000008E-002    -8.7690759601605217E-014
   1.6400000000000026E-002    -1.6715688349547980E-013
   1.7500000000000016E-002    -1.1966251286295998E-013
   1.8600000000000005E-002     5.6611735020943230E-014
   1.9700000000000023E-002     2.4944906166710079E-013
   2.0800000000000013E-002     2.9599383382684918E-013
   2.1900000000000003E-002     1.0785280004158015E-013
   2.3000000000000020E-002    -2.3275806737728388E-013
   2.4100000000000010E-002    -4.9450596612335418E-013
   2.5200000000000000E-002    -4.4717734289795308E-013
   2.6300000000000018E-002    -4.7155818339765856E-014
   2.7400000000000008E-002     4.8517114804857986E-013
   2.8500000000000025E-002     7.8146923611008279E-013
   2.9600000000000015E-002     5.8077983611584671E-013
   3.0700000000000005E-002    -5.2587972767647456E-014
   3.1800000000000023E-002    -7.2723679292105436E-013
   3.2900000000000013E-002    -9.7538405303965181E-013
   3.4000000000000002E-002    -5.9653600418749231E-013
   3.5100000000000020E-002     1.6476783045588084E-013
   3.6200000000000010E-002     7.7109119870494292E-013
   3.7300000000000028E-002     7.9389001882840260E-013
   3.8400000000000017E-002     2.6744521853215575E-013
   3.9500000000000007E-002    -3.0789230214857410E-013
   4.0600000000000025E-002    -3.6758313406992649E-013
   4.1700000000000015E-002     1.9452793325810958E-013
   4.2800000000000005E-002     8.2619035311065625E-013
   4.3900000000000022E-002     6.9022267285348549E-013
   4.5000000000000012E-002    -5.8813294945975203E-013
   4.6100000000000002E-002    -2.3766496583255137E-012
   4.7200000000000020E-002    -3.2358564612533502E-012
   4.8300000000000010E-002    -1.8971770768955176E-012
   4.9400000000000027E-002     1.5990135647861448E-012
   5.0500000000000017E-002     5.5045937426279057E-012
   5.1600000000000007E-002     7.2024656204427995E-012
   5.2700000000000025E-002     4.8965740316597728E-012
   5.3800000000000014E-002    -9.6724158630406842E-013
   5.4900000000000004E-002    -7.6350098118793674E-012
   5.6000000000000022E-002    -1.1530307958418362E-011
   5.7100000000000012E-002    -1.0352823633097419E-011
   5.8200000000000002E-002    -4.3547171077462643E-012
   5.9300000000000019E-002     4.0350795621479918E-012
   6.0400000000000009E-002     1.1781349333606084E-011
   6.1500000000000027E-002     1.6636296507055448E-011
   6.2600000000000017E-002     1.7289255097030498E-011
   6.3700000000000007E-002     1.2565583122625679E-011
   6.4800000000000024E-002     1.1854772805769409E-012
   6.5900000000000014E-002    -1.6646111572482525E-011
   6.7000000000000004E-002    -3.6440690742711723E-011
   6.8100000000000022E-002    -4.8175845257514283E-011
   6.9200000000000012E-002    -3.9579929611566200E-011
   7.0300000000000029E-002    -4.1748145739040066E-012
   7.1400000000000019E-002     5.0130240236700985E-011
   7.2500000000000009E-002     9.8849955998403516E-011
   7.3600000000000027E-002     1.1007081357483628E-010
   7.4700000000000016E-002     6.2945482159904032E-011
   7.5800000000000006E-002    -3.4397026893451255E-011
   7.6900000000000024E-002    -1.4050184626857032E-010
   7.8000000000000014E-002    -1.9707795118062421E-010
   7.9100000000000004E-002    -1.6094044152925591E-010
   8.0200000000000021E-002    -3.3869594628921362E-011
   8.1300000000000011E-002     1.2983240871289325E-010
   8.2400000000000029E-002     2.4743071480592960E-010
   8.3500000000000019E-002     2.5325583297153287E-010
   8.4600000000000009E-002     1.3922223096596298E-010
   8.5700000000000026E-002    -3.6700708444525887E-011
   8.6800000000000016E-002    -1.8315313154992907E-010
   8.7900000000000006E-002    -2.3126404957718449E-010
   8.9000000000000024E-002    -1.7757384451755343E-010
   9.0100000000000013E-002    -8.2802154022232344E-011
   9.1200000000000003E-002    -2.3512029129202361E-011
   9.2300000000000021E-002    -2.8338055860221978E-011
   9.3400000000000011E-002    -4.6989280522158339E-011
   9.4500000000000028E-002     1.6716661041527026E-011
   9.5600000000000018E-002     2.2052133730188217E-010
   9.6700000000000008E-002     5.0431631093417195E-010
   9.7800000000000026E-002     6.8244099260539315E-010
   9.8900000000000016E-002     5.3730447868716169E-010
  0.10000000000000001         -2.4282230740024779E-011
  0.10110000000000002         -8.4781726084059983E-010
  0.10220000000000001         -1.5397884078893753E-009
  0.10330000000000003         -1.6422763149392949E-009
  0.10440000000000002         -9.0373103445173797E-010
  0.10550000000000001          5.0512893867704634E-010
  0.10660000000000003          1.9820616259380586E-009
  0.10770000000000002          2.7456701356953772E-009
  0.10880000000000001          2.2524704323956257E-009
  0.10990000000000003          5.5970794665682888E-010
  0.11100000000000002         -1.5955098353614972E-009
  0.11210000000000001         -3.1021063495728640E-009
  0.11320000000000002         -3.0540692197433827E-009
  0.11430000000000001         -1.3071780324835913E-009
  0.11540000000000003          1.3194988435216715E-009
  0.11650000000000002          3.3742708627215734E-009
  0.11760000000000001          3.5250979912859748E-009
  0.11870000000000003          1.3557871492153595E-009
  0.11980000000000002         -2.2542754329890613E-009
  0.12090000000000001         -5.4473261457133049E-009
  0.12200000000000003         -6.3084839574401030E-009
  0.12310000000000001         -3.9289855813251506E-009
  0.12420000000000003          9.9129315866974821E-010
  0.12530000000000002          6.3997545041161175E-009
  0.12640000000000001          9.9318508972601194E-009
  0.12750000000000003          1.0180781551127893E-008
  0.12860000000000002          7.4447812359323962E-009
  0.12970000000000001          3.4515159619274982E-009
  0.13080000000000003          1.5591006263804275E-010
  0.13190000000000002         -1.6842938155292586E-009
  0.13300000000000001         -3.2214544365416486E-009
  0.13410000000000000         -6.9365171384561108E-009
  0.13520000000000004         -1.4966296646434785E-008
  0.13630000000000003         -2.7313271644402448E-008
  0.13740000000000002         -4.1156592800462022E-008
  0.13850000000000001         -5.1959244018462414E-008
  0.13960000000000000         -5.5998118142497333E-008
  0.14070000000000005         -5.2948404771768764E-008
  0.14180000000000004         -4.6893521954416428E-008
  0.14290000000000003         -4.4886743211236535E-008
  0.14400000000000002         -5.3616574291481811E-008
  0.14510000000000001         -7.5992183212747477E-008
  0.14620000000000000         -1.0973081288057074E-007
  0.14730000000000004         -1.4899892164521589E-007
  0.14840000000000003         -1.8834363402220333E-007
  0.14950000000000002         -2.2663630261376966E-007
  0.15060000000000001         -2.6854749535232258E-007
  0.15170000000000000         -3.2245296210930974E-007
  0.15280000000000005         -3.9590011624568433E-007
  0.15390000000000004         -4.9147013214678736E-007
  0.15500000000000003         -6.0588450878640288E-007
  0.15610000000000002         -7.3333774253114825E-007
  0.15720000000000001         -8.7131911641336046E-007
  0.15830000000000000         -1.0253162372464431E-006
  0.15940000000000004         -1.2090863492630888E-006
  0.16050000000000003         -1.4397052154890844E-006
  0.16160000000000002         -1.7299435057793744E-006
  0.16270000000000001         -2.0825923456868622E-006
  0.16380000000000000         -2.4906896669563139E-006
  0.16490000000000005         -2.9443037874443689E-006
  0.16600000000000004         -3.4404306461510714E-006
  0.16710000000000003         -3.9902092794363853E-006
  0.16820000000000002         -4.6186792133084964E-006
  0.16930000000000001         -5.3564103836833965E-006
  0.17040000000000000         -6.2272561081044842E-006
  0.17150000000000004         -7.2392290348943789E-006
  0.17260000000000003         -8.3841359810321592E-006
  0.17370000000000002         -9.6467674666200764E-006
  0.17480000000000001         -1.1018762961612083E-005
  0.17590000000000000         -1.2509146472439170E-005
  0.17700000000000005         -1.4145152817945927E-005
  0.17810000000000004         -1.5962306861183606E-005
  0.17920000000000003         -1.7988988474826328E-005
  0.18030000000000002         -2.0234090698068030E-005
  0.18140000000000001         -2.2684771465719678E-005
  0.18250000000000000         -2.5315364837297238E-005
  0.18360000000000004         -2.8102003852836788E-005
  0.18470000000000003         -3.1034145649755374E-005
  0.18580000000000002         -3.4115830203518271E-005
  0.18690000000000001         -3.7355879612732679E-005
  0.18800000000000000         -4.0752613131189719E-005
  0.18910000000000005         -4.4282005546847358E-005
  0.19020000000000004         -4.7896628529997543E-005
  0.19130000000000003         -5.1535749662434682E-005
  0.19240000000000002         -5.5139884352684021E-005
  0.19350000000000001         -5.8660581998992711E-005
  0.19460000000000005         -6.2058985349722207E-005
  0.19570000000000004         -6.5293563238810748E-005
  0.19680000000000003         -6.8304267188068479E-005
  0.19790000000000002         -7.1003298216965050E-005
  0.19900000000000001         -7.3278803029097617E-005
  0.20010000000000000         -7.5010262662544847E-005
  0.20120000000000005         -7.6086718763690442E-005
  0.20230000000000004         -7.6417600212153047E-005
  0.20340000000000003         -7.5930271123070270E-005
  0.20450000000000002         -7.4555813625920564E-005
  0.20560000000000000         -7.2212795203085989E-005
  0.20670000000000005         -6.8799177824985236E-005
  0.20780000000000004         -6.4198749896604568E-005
  0.20890000000000003         -5.8299938245909289E-005
