 -0.12000000000000000          0.0000000000000000
 -0.11889999999999999          0.0000000000000000
 -0.11780000000000000          0.0000000000000000
 -0.11670000000000000         -4.1738892342380041E-009
 -0.11559999999999999         -1.3475280447039495E-008
 -0.11449999999999999         -1.0874532385685143E-008
 -0.11340000000000000          2.8242718386195520E-008
 -0.11230000000000000          9.1627136100669304E-008
 -0.11119999999999999          1.0549613449484241E-007
 -0.11009999999999999         -9.0178158274056841E-009
 -0.10900000000000000         -2.2918017350548325E-007
 -0.10790000000000000         -3.9595161638317222E-007
 -0.10679999999999999         -3.2433808883070014E-007
 -0.10569999999999999          3.3294558221541593E-008
 -0.10460000000000000          5.4065179710960365E-007
 -0.10349999999999999          9.7842053037311416E-007
 -0.10239999999999999          1.1314403991491417E-006
 -0.10130000000000000          7.4991947940361570E-007
 -0.10020000000000000         -4.3749616907007294E-007
  -9.9099999999999994E-002    -2.3713625978416530E-006
  -9.7999999999999990E-002    -4.1084326767304447E-006
  -9.6899999999999986E-002    -3.8323560147546232E-006
  -9.5799999999999996E-002    -1.1195980675893225E-007
  -9.4699999999999993E-002     6.1254959291545674E-006
  -9.3599999999999989E-002     1.0837073205038905E-005
  -9.2499999999999999E-002     9.0563535195542499E-006
  -9.1399999999999995E-002    -6.8946405917813536E-007
  -9.0299999999999991E-002    -1.3350231711228844E-005
  -8.9200000000000002E-002    -1.9465147488517687E-005
  -8.8099999999999984E-002    -1.2273731954337563E-005
  -8.6999999999999994E-002     5.4738316066504922E-006
  -8.5899999999999990E-002     2.1631218260154128E-005
  -8.4799999999999986E-002     2.3306725779548287E-005
  -8.3699999999999997E-002     7.8067614595056511E-006
  -8.2599999999999993E-002    -1.3785601367999334E-005
  -8.1499999999999989E-002    -2.4729855795158073E-005
  -8.0399999999999999E-002    -1.6444981156382710E-005
  -7.9299999999999995E-002     3.9462966014980339E-006
  -7.8199999999999992E-002     1.9545876057236455E-005
  -7.7100000000000002E-002     1.8253473172080703E-005
  -7.5999999999999984E-002     2.9116308724042028E-006
  -7.4899999999999994E-002    -1.2223552403156646E-005
  -7.3799999999999991E-002    -1.5093437468749471E-005
  -7.2699999999999987E-002    -6.3311790654552169E-006
  -7.1599999999999997E-002     3.2779057619336527E-006
  -7.0499999999999993E-002     5.0695784921117593E-006
  -6.9399999999999989E-002     1.3177719893064932E-006
  -6.8300000000000000E-002     1.2139954606027459E-006
  -6.7199999999999996E-002     8.5690226114820689E-006
  -6.6099999999999992E-002     1.5313749827328138E-005
  -6.5000000000000002E-002     9.2883101387997158E-006
  -6.3899999999999985E-002    -1.0866796401387546E-005
  -6.2799999999999995E-002    -3.0156294087646529E-005
  -6.1699999999999991E-002    -2.9295606509549543E-005
  -6.0599999999999994E-002    -4.1791954572545364E-006
  -5.9499999999999990E-002     2.7141149985254742E-005
  -5.8399999999999994E-002     3.9120975998230278E-005
  -5.7299999999999990E-002     2.2364578398992307E-005
  -5.6199999999999986E-002    -7.0815181061334442E-006
  -5.5099999999999996E-002    -2.3153061192715541E-005
  -5.3999999999999992E-002    -1.5365923900390044E-005
  -5.2899999999999989E-002     1.4290560557128629E-006
  -5.1799999999999985E-002     3.9621982068638317E-006
  -5.0699999999999995E-002    -1.2781381883542053E-005
  -4.9599999999999991E-002    -2.7691845389199443E-005
  -4.8499999999999988E-002    -1.4899357665854041E-005
  -4.7399999999999998E-002     2.6120811526197940E-005
  -4.6299999999999994E-002     6.3800915086176246E-005
  -4.5199999999999990E-002     6.1469829233828932E-005
  -4.4099999999999986E-002     1.3640507859236095E-005
  -4.2999999999999997E-002    -4.4956341298529878E-005
  -4.1899999999999993E-002    -6.9040754169691354E-005
  -4.0799999999999989E-002    -4.3829000787809491E-005
  -3.9699999999999985E-002     2.7081521238869755E-006
  -3.8599999999999995E-002     2.8881153411930427E-005
  -3.7499999999999992E-002     2.0473336917348206E-005
  -3.6399999999999988E-002     2.1257185380818555E-006
  -3.5299999999999984E-002     7.2784414442139678E-006
  -3.4199999999999994E-002     3.8470228901132941E-005
  -3.3099999999999991E-002     6.1075385019648820E-005
  -3.1999999999999987E-002     3.9289454434765503E-005
  -3.0899999999999997E-002    -2.2175878257257864E-005
  -2.9799999999999993E-002    -7.5861265941057354E-005
  -2.8699999999999989E-002    -7.4822761234827340E-005
  -2.7599999999999986E-002    -1.9170913219568320E-005
  -2.6499999999999996E-002     4.2280629713786766E-005
  -2.5399999999999992E-002     5.9152102039661258E-005
  -2.4299999999999988E-002     2.8386317353579216E-005
  -2.3199999999999985E-002    -5.4886422731215134E-006
  -2.2099999999999995E-002    -3.4360528644583610E-008
  -2.0999999999999991E-002     3.7237768992781639E-005
  -1.9899999999999987E-002     5.4577176342718303E-005
  -1.8799999999999983E-002     1.2307398719713092E-005
  -1.7699999999999994E-002    -6.8287932663224638E-005
  -1.6599999999999990E-002    -1.1719109897967428E-004
  -1.5499999999999986E-002    -8.1557423982303590E-005
  -1.4399999999999996E-002     1.8961585737997666E-005
  -1.3299999999999992E-002     1.0521012882236391E-004
  -1.2199999999999989E-002     1.1005315172951669E-004
  -1.1099999999999985E-002     3.8861755456309766E-005
  -9.9999999999999950E-003    -4.0214476030087098E-005
  -8.8999999999999913E-003    -6.5845619246829301E-005
  -7.7999999999999875E-003    -4.0559891203884035E-005
  -6.6999999999999837E-003    -1.8381073459750041E-005
  -5.5999999999999939E-003    -3.8118483644211665E-005
  -4.4999999999999901E-003    -7.6236967288423330E-005
  -3.3999999999999864E-003    -7.1574788307771087E-005
  -2.2999999999999826E-003     2.3292820969800232E-006
  -1.1999999999999927E-003     9.6195013611577451E-005
  -9.9999999999988987E-005     1.2409937335178256E-004
   1.0000000000000148E-003     4.8130055802175775E-005
   2.1000000000000185E-003    -7.7231612522155046E-005
   3.2000000000000084E-003    -1.5120801981538534E-004
   4.3000000000000121E-003    -1.2086587230442092E-004
   5.4000000000000159E-003    -2.9188364351284690E-005
   6.5000000000000058E-003     3.1076386221684515E-005
   7.6000000000000234E-003     1.1982781870756298E-005
   8.7000000000000133E-003    -4.3800631829071790E-005
   9.8000000000000032E-003    -5.3555402701022103E-005
   1.0900000000000021E-002     1.2109373528801370E-005
   1.2000000000000011E-002     9.2379181296564639E-005
   1.3100000000000001E-002     9.6551273600198328E-005
   1.4200000000000018E-002     1.7044629885276663E-006
   1.5300000000000008E-002    -1.1591840302571654E-004
   1.6400000000000026E-002    -1.5180368791334331E-004
   1.7500000000000016E-002    -7.6299358624964952E-005
   1.8600000000000005E-002     3.4483502531656995E-005
   1.9700000000000023E-002     7.5813790317624807E-005
   2.0800000000000013E-002     1.9997827621409670E-005
   2.1900000000000003E-002    -5.6618915550643578E-005
   2.3000000000000020E-002    -5.5830430937930942E-005
   2.4100000000000010E-002     3.7427656934596598E-005
   2.5200000000000000E-002     1.3306566688697785E-004
   2.6300000000000018E-002     1.2768372835125774E-004
   2.7400000000000008E-002     1.1603007806115784E-005
   2.8500000000000025E-002    -1.1649304360616952E-004
   2.9600000000000015E-002    -1.4554396329913288E-004
   3.0700000000000005E-002    -6.0561334976227954E-005
   3.1800000000000023E-002     4.7149878810159862E-005
   3.2900000000000013E-002     7.5549760367721319E-005
   3.4000000000000002E-002     1.8113423720933497E-005
   3.5100000000000020E-002    -3.4201384551124647E-005
   3.6200000000000010E-002     3.9496521822002251E-006
   3.7300000000000028E-002     1.1480032844701782E-004
   3.8400000000000017E-002     1.8955436826217920E-004
   3.9500000000000007E-002     1.3644385035149753E-004
   4.0600000000000025E-002    -1.7057289369404316E-005
   4.1700000000000015E-002    -1.4374997408594936E-004
   4.2800000000000005E-002    -1.3932290312368423E-004
   4.3900000000000022E-002    -1.9791663362411782E-005
   4.5000000000000012E-002     9.8828109912574291E-005
   4.6100000000000002E-002     1.2042822345392779E-004
   4.7200000000000020E-002     6.2398721638601273E-005
   4.8300000000000010E-002     2.6490159143577330E-005
   4.9400000000000027E-002     8.2559308793861419E-005
   5.0500000000000017E-002     1.8652703147381544E-004
   5.1600000000000007E-002     2.2318337869364768E-004
   5.2700000000000025E-002     1.2537252041511238E-004
   5.3800000000000014E-002    -4.2578118154779077E-005
   5.4900000000000004E-002    -1.4224534970708191E-004
   5.6000000000000022E-002    -9.5008668722584844E-005
   5.7100000000000012E-002     4.5341428631218150E-005
   5.8200000000000002E-002     1.4555842790286988E-004
   5.9300000000000019E-002     1.2965855421498418E-004
   6.0400000000000009E-002     4.8466430598637089E-005
   6.1500000000000027E-002     1.7621525330469012E-005
   6.2600000000000017E-002     8.6140033090487123E-005
   6.3700000000000007E-002     1.7954279610421509E-004
   6.4800000000000024E-002     1.7534720245748758E-004
   6.5900000000000014E-002     3.6053235817234963E-005
   6.7000000000000004E-002    -1.4241896860767156E-004
   6.8100000000000022E-002    -2.1753468899987638E-004
   6.9200000000000012E-002    -1.3885993394069374E-004
   7.0300000000000029E-002     1.6493053180965944E-006
   7.1400000000000019E-002     6.4236104662995785E-005
   7.2500000000000009E-002     1.0416665645607281E-006
   7.3600000000000027E-002    -1.0109952563652769E-004
   7.4700000000000016E-002    -1.1970484774792567E-004
   7.5800000000000006E-002    -2.7777774448622949E-005
   7.6900000000000024E-002     7.3784714913927019E-005
   7.8000000000000014E-002     5.7060176914092153E-005
   7.9100000000000004E-002    -9.5804381999187171E-005
   8.0200000000000021E-002    -2.7002309798263013E-004
   8.1300000000000011E-002    -3.2692414242774248E-004
   8.2400000000000029E-002    -2.3374562442768365E-004
   8.3500000000000019E-002    -9.7233059932477772E-005
   8.4600000000000009E-002    -4.7618264943594113E-005
   8.5700000000000026E-002    -1.1157405970152467E-004
   8.6800000000000016E-002    -1.8845484009943902E-004
   8.7900000000000006E-002    -1.6323782620020211E-004
   8.9000000000000024E-002    -3.1886571377981454E-005
   9.0100000000000013E-002     8.5517931438516825E-005
   9.1200000000000003E-002     6.7852997744921595E-005
   9.2300000000000021E-002    -8.4953695477452129E-005
   9.3400000000000011E-002    -2.4204279179684818E-004
   9.4500000000000028E-002    -2.6652196538634598E-004
   9.5600000000000018E-002    -1.4678818115498871E-004
   9.6700000000000008E-002     1.5046293810883071E-006
   9.7800000000000026E-002     5.7494205975672230E-005
   9.8900000000000016E-002     1.2152776434959378E-005
  0.10000000000000001         -3.1712959753349423E-005
  0.10110000000000002          2.3813654479454271E-005
  0.10220000000000001          1.6249997133854777E-004
  0.10330000000000003          2.6336801238358021E-004
  0.10440000000000002          2.2575228649657220E-004
  0.10550000000000001          7.4016192229464650E-005
  0.10660000000000003         -5.9534137108130381E-005
  0.10770000000000002         -6.2094899476505816E-005
  0.10880000000000001          5.4311334679368883E-005
  0.10990000000000003          1.7045714776031673E-004
  0.11100000000000002          1.8203123181592673E-004
  0.11210000000000001          1.0201821714872494E-004
  0.11320000000000002          4.2158560972893611E-005
  0.11430000000000001          9.0487548732198775E-005
  0.11540000000000003          2.1608070528600365E-004
  0.11650000000000002          2.9500320670194924E-004
  0.11760000000000001          2.3363847867585719E-004
  0.11870000000000003          6.4086903876159340E-005
  0.11980000000000002         -8.4002451330889016E-005
  0.12090000000000001         -1.0656465747160837E-004
  0.12200000000000003         -2.2960066416999325E-005
  0.12310000000000001          5.3833904530620202E-005
  0.12420000000000003          3.3449068723712116E-005
  0.12530000000000002         -5.6510409194743261E-005
  0.12640000000000001         -1.0387730435468256E-004
  0.12750000000000003         -3.1850402592681348E-005
  0.12860000000000002          1.1239870946155861E-004
  0.12970000000000001          1.9429251551628113E-004
  0.13080000000000003          1.2414639058988541E-004
  0.13190000000000002         -5.3255200327839702E-005
  0.13300000000000001         -1.9895107834599912E-004
  0.13410000000000000         -2.0612699154298753E-004
  0.13520000000000004         -1.0010125697590411E-004
  0.13630000000000003         -3.1177658001979580E-006
  0.13740000000000002         -8.1452535596326925E-006
  0.13850000000000001         -8.7058724602684379E-005
  0.13960000000000000         -1.2322046677581966E-004
  0.14070000000000005         -3.9626731449970976E-005
  0.14180000000000004          1.1215276026632637E-004
  0.14290000000000003          1.9389465160202235E-004
  0.14400000000000002          1.1681133037200198E-004
  0.14510000000000001         -6.4811189076863229E-005
  0.14620000000000000         -1.9924042862839997E-004
  0.14730000000000004         -1.8090999219566584E-004
  0.14840000000000003         -5.0535294576548040E-005
  0.14950000000000002          4.9153641157317907E-005
  0.15060000000000001          1.8724678739090450E-005
  0.15170000000000000         -9.7216783615294844E-005
  0.15280000000000005         -1.5668943524360657E-004
  0.15390000000000004         -6.9408262788783759E-005
  0.15500000000000003          1.0289983765687793E-004
  0.15610000000000002          2.0019710063934326E-004
  0.15720000000000001          1.2294197222217917E-004
  0.15830000000000000         -6.4021798607427627E-005
  0.15940000000000004         -1.8976414867211133E-004
  0.16050000000000003         -1.4405191177502275E-004
  0.16160000000000002          1.3692444554180838E-005
  0.16270000000000001          1.1588653433136642E-004
  0.16380000000000000          5.8742487453855574E-005
  0.16490000000000005         -8.9568857220001519E-005
  0.16600000000000004         -1.5711397281847894E-004
  0.16710000000000003         -4.7013341827550903E-005
  0.16820000000000002          1.5568212256766856E-004
  0.16930000000000001          2.6224134489893913E-004
  0.17040000000000000          1.6897241584956646E-004
  0.17150000000000004         -3.5004337405553088E-005
  0.17260000000000003         -1.5449849888682365E-004
  0.17370000000000002         -8.4773753769695759E-005
  0.17480000000000001          8.2576487329788506E-005
  0.17590000000000000          1.5535298734903336E-004
  0.17700000000000005          4.2711038986453786E-005
  0.17810000000000004         -1.4537216338794678E-004
  0.17920000000000003         -2.0808374392800033E-004
  0.18030000000000002         -6.4205356466118246E-005
  0.18140000000000001          1.5549585805274546E-004
  0.18250000000000000          2.3501651594415307E-004
  0.18360000000000004          9.3695285613648593E-005
  0.18470000000000003         -1.2718277866952121E-004
  0.18580000000000002         -2.0641680748667568E-004
  0.18690000000000001         -7.0998794399201870E-005
  0.18800000000000000          1.2626273382920772E-004
  0.18910000000000005          1.6520902863703668E-004
  0.19020000000000004         -7.4914992183039431E-006
  0.19130000000000003         -2.1436651877593249E-004
  0.19240000000000002         -2.2690155310556293E-004
  0.19350000000000001         -7.7189115472720005E-006
  0.19460000000000005          2.3938302183523774E-004
  0.19570000000000004          2.7192899142391980E-004
  0.19680000000000003          6.0293685237411410E-005
  0.19790000000000002         -1.7513131024315953E-004
  0.19900000000000001         -1.8765821005217731E-004
  0.20010000000000000          3.7348087062127888E-005
  0.20120000000000005          2.6035174960270524E-004
  0.20230000000000004          2.3285576025955379E-004
  0.20340000000000003         -3.9274422306334600E-005
  0.20450000000000002         -2.9109514434821904E-004
  0.20560000000000000         -2.6620412245392799E-004
  0.20670000000000005          1.5106877071957570E-005
  0.20780000000000004          2.6843551313504577E-004
  0.20890000000000003          2.3370760027319193E-004
