 -0.12000000000000000          0.0000000000000000
 -0.11889999999999999          0.0000000000000000
 -0.11780000000000000          0.0000000000000000
 -0.11670000000000000          0.0000000000000000
 -0.11559999999999999          0.0000000000000000
 -0.11449999999999999          0.0000000000000000
 -0.11340000000000000          0.0000000000000000
 -0.11230000000000000          0.0000000000000000
 -0.11119999999999999          0.0000000000000000
 -0.11009999999999999          0.0000000000000000
 -0.10900000000000000          0.0000000000000000
 -0.10790000000000000          0.0000000000000000
 -0.10679999999999999         -1.1139322107333340E-035
 -0.10569999999999999         -2.8167849962313779E-034
 -0.10460000000000000         -3.7021055818995586E-033
 -0.10349999999999999         -2.1367694029498045E-032
 -0.10239999999999999         -7.4784474524101848E-032
 -0.10130000000000000         -2.0324659377977404E-031
 -0.10020000000000000         -3.0749803742934252E-031
  -9.9099999999999994E-002     9.8166219725870110E-031
  -9.7999999999999990E-002     6.7346279407197436E-030
  -9.6899999999999986E-002     9.3450085609015137E-030
  -9.5799999999999996E-002    -3.2552462133818552E-029
  -9.4699999999999993E-002    -1.2074693619827335E-028
  -9.3599999999999989E-002     6.1147180361638868E-029
  -9.2499999999999999E-002     9.9232481123082914E-028
  -9.1399999999999995E-002     1.2017212555448397E-027
  -9.0299999999999991E-002    -4.7493289909773351E-027
  -8.9200000000000002E-002    -1.6418931798914241E-026
  -8.8099999999999984E-002    -1.1430636887111238E-027
  -8.6999999999999994E-002     9.2577202940519383E-026
  -8.5899999999999990E-002     1.7788808482353159E-025
  -8.4799999999999986E-002    -1.5000600566967287E-025
  -8.3699999999999997E-002    -1.1523130859063280E-024
  -8.2599999999999993E-002    -1.3975387813337844E-024
  -8.1499999999999989E-002     2.6843410158819429E-024
  -8.0399999999999999E-002     1.0954246381061090E-023
  -7.9299999999999995E-002     8.3288888894929744E-024
  -7.8199999999999992E-002    -3.0090834172391341E-023
  -7.7100000000000002E-002    -8.7198646046551554E-023
  -7.5999999999999984E-002    -3.8693097286562321E-023
  -7.4899999999999994E-002     2.6324869008851407E-022
  -7.3799999999999991E-002     6.1816458246374566E-022
  -7.2699999999999987E-002     1.5519006890745846E-022
  -7.1599999999999997E-002    -1.9282737242895726E-021
  -7.0499999999999993E-002    -4.0526114680773037E-021
  -6.9399999999999989E-002    -7.9776768757725982E-022
  -6.8300000000000000E-002     1.2121405337743333E-020
  -6.7199999999999996E-002     2.4868700440266609E-020
  -6.6099999999999992E-002     6.8219055301540035E-021
  -6.5000000000000002E-002    -6.5551924507462169E-020
  -6.3899999999999985E-002    -1.4162283344612270E-019
  -6.2799999999999995E-002    -6.3307434538784884E-020
  -6.1699999999999991E-002     3.0091680386639815E-019
  -6.0599999999999994E-002     7.3499753713858689E-019
  -5.9499999999999990E-002     4.9559761259048042E-019
  -5.8399999999999994E-002    -1.1312336975613148E-018
  -5.7299999999999990E-002    -3.4095038612988871E-018
  -5.6199999999999986E-002    -3.1834382950202885E-018
  -5.5099999999999996E-002     3.1494033283313348E-018
  -5.3999999999999992E-002     1.3868429913544644E-017
  -5.2899999999999989E-002     1.7033946720208512E-017
  -5.1799999999999985E-002    -3.8004130819743500E-018
  -5.0699999999999995E-002    -4.8299780724853181E-017
  -4.9599999999999991E-002    -7.6980471828838951E-017
  -4.8499999999999988E-002    -2.2884988930767652E-017
  -4.7399999999999998E-002     1.3800698545191455E-016
  -4.6299999999999994E-002     2.9548987886938603E-016
  -4.5199999999999990E-002     2.0876296949340627E-016
  -4.4099999999999986E-002    -2.8878653953415430E-016
  -4.2999999999999997E-002    -9.5847971910250880E-016
  -4.1899999999999993E-002    -1.0434775695353465E-015
  -4.0799999999999989E-002     2.2545428311464429E-016
  -3.9699999999999985E-002     2.5674820122457412E-015
  -3.8599999999999995E-002     3.9419714813594773E-015
  -3.7499999999999992E-002     1.5235065990956459E-015
  -3.6399999999999988E-002    -5.3059384719277101E-015
  -3.5299999999999984E-002    -1.2013949405621782E-014
  -3.4199999999999994E-002    -9.9441125906568617E-015
  -3.3099999999999991E-002     6.4114646988603415E-015
  -3.1999999999999987E-002     2.9667976110753572E-014
  -3.0899999999999997E-002     3.7503057977910162E-014
  -2.9799999999999993E-002     7.3417605613132660E-015
  -2.8699999999999989E-002    -5.6564436701168549E-014
  -2.7599999999999986E-002    -1.0664065523647778E-013
  -2.6499999999999996E-002    -7.4108532082273887E-014
  -2.5399999999999992E-002     6.7160070094194474E-014
  -2.4299999999999988E-002     2.3893544478029161E-013
  -2.3199999999999985E-002     2.7202158169210844E-013
  -2.2099999999999995E-002     3.2163989082800021E-014
  -2.0999999999999991E-002    -4.0700591768388916E-013
  -1.9899999999999987E-002    -7.0617556940932857E-013
  -1.8799999999999983E-002    -4.5637181100149915E-013
  -1.7699999999999994E-002     4.2568991951222324E-013
  -1.6599999999999990E-002     1.4091584886813391E-012
  -1.5499999999999986E-002     1.5411964239542275E-012
  -1.4399999999999996E-002     1.9516579650123711E-013
  -1.3299999999999992E-002    -2.0984730880052593E-012
  -1.2199999999999989E-002    -3.5605032377289403E-012
  -1.1099999999999985E-002    -2.3017180609402610E-012
  -9.9999999999999950E-003     1.8348755674579831E-012
  -8.8999999999999913E-003     6.2467058435655698E-012
  -7.7999999999999875E-003     6.7986003111919491E-012
  -6.6999999999999837E-003     1.1559932698579356E-012
  -5.5999999999999939E-003    -8.1092112191871735E-012
  -4.4999999999999901E-003    -1.3812445111283100E-011
  -3.3999999999999864E-003    -9.0634149491064520E-012
  -2.2999999999999826E-003     6.0173099142302178E-012
  -1.1999999999999927E-003     2.1528240995438708E-011
  -9.9999999999988987E-005     2.3244010882716992E-011
   1.0000000000000148E-003     4.3340170861883021E-012
   2.1000000000000185E-003    -2.5416391213894940E-011
   3.2000000000000084E-003    -4.2586753568052416E-011
   4.3000000000000121E-003    -2.6991733501069426E-011
   5.4000000000000159E-003     1.8432590523365100E-011
   6.5000000000000058E-003     6.2312884019366521E-011
   7.6000000000000234E-003     6.4098455709871160E-011
   8.7000000000000133E-003     8.3046442986289826E-012
   9.8000000000000032E-003    -7.3023739832756007E-011
   1.0900000000000021E-002    -1.1422075785194608E-010
   1.2000000000000011E-002    -6.5153146766583347E-011
   1.3100000000000001E-002     5.8304819305909916E-011
   1.4200000000000018E-002     1.6812795600174013E-010
   1.5300000000000008E-002     1.6144036107945681E-010
   1.6400000000000026E-002     8.4668322700154341E-012
   1.7500000000000016E-002    -1.9902372805358226E-010
   1.8600000000000005E-002    -2.9369942589063669E-010
   1.9700000000000023E-002    -1.5904109973430280E-010
   2.0800000000000013E-002     1.5351354909487469E-010
   2.1900000000000003E-002     4.2275077882791834E-010
   2.3000000000000020E-002     4.0412603818928972E-010
   2.4100000000000010E-002     3.5806101139623792E-011
   2.5200000000000000E-002    -4.5973994056147660E-010
   2.6300000000000018E-002    -6.9381095313403307E-010
   2.7400000000000008E-002    -4.0278710922159178E-010
   2.8500000000000025E-002     2.9533922529800805E-010
   2.9600000000000015E-002     9.0848478739857796E-010
   3.0700000000000005E-002     8.9981128104099639E-010
   3.1800000000000023E-002     1.3409381938167542E-010
   3.2900000000000013E-002    -9.1284624303966666E-010
   3.4000000000000002E-002    -1.4165908446273079E-009
   3.5100000000000020E-002    -8.2530021705551349E-010
   3.6200000000000010E-002     6.0631571985325650E-010
   3.7300000000000028E-002     1.8458595762993468E-009
   3.8400000000000017E-002     1.7818101438749068E-009
   3.9500000000000007E-002     1.5366430350383098E-010
   4.0600000000000025E-002    -2.0229116159953264E-009
   4.1700000000000015E-002    -3.0146902751937432E-009
   4.2800000000000005E-002    -1.6698300520090470E-009
   4.3900000000000022E-002     1.4674172987838574E-009
   4.5000000000000012E-002     4.2070467110022491E-009
   4.6100000000000002E-002     4.1539953699043508E-009
   4.7200000000000020E-002     6.5229588397386351E-010
   4.8300000000000010E-002    -4.2699115354594142E-009
   4.9400000000000027E-002    -6.9555912141083809E-009
   5.0500000000000017E-002    -4.7372745726192989E-009
   5.1600000000000007E-002     1.6946695158281955E-009
   5.2700000000000025E-002     8.1524706985192097E-009
   5.3800000000000014E-002     9.5953511802804314E-009
   5.4900000000000004E-002     3.9623140324351880E-009
   5.6000000000000022E-002    -5.6587627916826477E-009
   5.7100000000000012E-002    -1.2552964889778195E-008
   5.8200000000000002E-002    -1.1014090972594204E-008
   5.9300000000000019E-002    -9.3834595649155972E-010
   6.0400000000000009E-002     1.1248673992270142E-008
   6.1500000000000027E-002     1.6605023134275143E-008
   6.2600000000000017E-002     1.0187001464601053E-008
   6.3700000000000007E-002    -4.6716621682207915E-009
   6.4800000000000024E-002    -1.7910032568124734E-008
   6.5900000000000014E-002    -1.9590771671573748E-008
   6.7000000000000004E-002    -7.3361796637527732E-009
   6.8100000000000022E-002     1.1294174484532959E-008
   6.9200000000000012E-002     2.3705393203954372E-008
   7.0300000000000029E-002     2.1188036214425665E-008
   7.1400000000000019E-002     5.2500959135670655E-009
   7.2500000000000009E-002    -1.3576803681303318E-008
   7.3600000000000027E-002    -2.3646265390198096E-008
   7.4700000000000016E-002    -2.0585591897770428E-008
   7.5800000000000006E-002    -9.3788239396985773E-009
   7.6900000000000024E-002     1.4382722790529101E-009
   7.8000000000000014E-002     8.0958688641885601E-009
   7.9100000000000004E-002     1.4357480537796619E-008
   8.0200000000000021E-002     2.5289882188417323E-008
   8.1300000000000011E-002     3.7363221849773254E-008
   8.2400000000000029E-002     3.5552627508650403E-008
   8.3500000000000019E-002     4.0376915144690884E-009
   8.4600000000000009E-002    -5.4961773798822833E-008
   8.5700000000000026E-002    -1.1040329184197617E-007
   8.6800000000000016E-002    -1.1462771709602748E-007
   8.7900000000000006E-002    -3.7555846432724138E-008
   8.9000000000000024E-002     9.8888676802744158E-008
   9.0100000000000013E-002     2.1641105263370264E-007
   9.1200000000000003E-002     2.2119475318049808E-007
   9.2300000000000021E-002     7.2104640480574744E-008
   9.3400000000000011E-002    -1.7001360674839816E-007
   9.4500000000000028E-002    -3.5705241430150636E-007
   9.5600000000000018E-002    -3.3961589451791951E-007
   9.6700000000000008E-002    -7.7627177574868256E-008
   9.7800000000000026E-002     3.0217668722798408E-007
   9.8900000000000016E-002     5.5814405186538352E-007
  0.10000000000000001          4.8178094402828719E-007
  0.10110000000000002          5.3976634717400884E-008
  0.10220000000000001         -5.0301059673074633E-007
  0.10330000000000003         -8.3582153820316307E-007
  0.10440000000000002         -6.8305115519251558E-007
  0.10550000000000001         -7.1129399259461934E-008
  0.10660000000000003          6.6090137806895655E-007
  0.10770000000000002          1.0519212310100556E-006
  0.10880000000000001          8.2154951996926684E-007
  0.10990000000000003          8.6762355522296275E-008
  0.11100000000000002         -6.7357558464209433E-007
  0.11210000000000001         -9.1663264356611762E-007
  0.11320000000000002         -4.2172837311227340E-007
  0.11430000000000001          4.9674673618937959E-007
  0.11540000000000003          1.1268293746979907E-006
  0.11650000000000002          8.0560232618154259E-007
  0.11760000000000001         -5.8503417221800191E-007
  0.11870000000000003         -2.4033720364968758E-006
  0.11980000000000002         -3.5015859793929849E-006
  0.12090000000000001         -2.8545107397803804E-006
  0.12200000000000003         -2.1971659691644163E-007
  0.12310000000000001          3.5707605547941057E-006
  0.12420000000000003          6.8993463173683267E-006
  0.12530000000000002          8.1166554082301445E-006
  0.12640000000000001          6.3691172726976220E-006
  0.12750000000000003          2.0534873783617513E-006
  0.12860000000000002         -3.3504265957162715E-006
  0.12970000000000001         -7.9799274317338131E-006
  0.13080000000000003         -1.0450805348227732E-005
  0.13190000000000002         -1.0435631338623352E-005
  0.13300000000000001         -8.6823729361640289E-006
  0.13410000000000000         -6.5018675741157494E-006
  0.13520000000000004         -5.0271055442863144E-006
  0.13630000000000003         -4.6518321141775232E-006
  0.13740000000000002         -4.9481022870168090E-006
  0.13850000000000001         -5.1028723646595608E-006
  0.13960000000000000         -4.6301252041303087E-006
  0.14070000000000005         -3.9448591451218817E-006
  0.14180000000000004         -4.4203557081345934E-006
  0.14290000000000003         -7.7986478572711349E-006
  0.14400000000000002         -1.5189813893812243E-005
  0.14510000000000001         -2.6199262720183469E-005
  0.14620000000000000         -3.8767975638620555E-005
  0.14730000000000004         -5.0005583034362644E-005
  0.14840000000000003         -5.7739172916626558E-005
  0.14950000000000002         -6.1977916629984975E-005
  0.15060000000000001         -6.5370906668249518E-005
  0.15170000000000000         -7.2183051088359207E-005
  0.15280000000000005         -8.6171246948651969E-005
  0.15390000000000004         -1.0853121784748510E-004
  0.15500000000000003         -1.3724120799452066E-004
  0.15610000000000002         -1.6843245248310268E-004
  0.15720000000000001         -1.9915842858608812E-004
  0.15830000000000000         -2.2990221623331308E-004
  0.15940000000000004         -2.6505778077989817E-004
  0.16050000000000003         -3.1074724392965436E-004
  0.16160000000000002         -3.7106883246451616E-004
  0.16270000000000001         -4.4511395390145481E-004
  0.16380000000000000         -5.2697409410029650E-004
  0.16490000000000005         -6.0924369608983397E-004
  0.16600000000000004         -6.8822631146758795E-004
  0.16710000000000003         -7.6763995457440615E-004
  0.16820000000000002         -8.5808860603719950E-004
  0.16930000000000001         -9.7195897251367569E-004
  0.17040000000000000         -1.1164874304085970E-003
  0.17150000000000004         -1.2890069046989083E-003
  0.17260000000000003         -1.4777147443965077E-003
  0.17370000000000002         -1.6679455293342471E-003
  0.17480000000000001         -1.8505993066355586E-003
  0.17590000000000000         -2.0276377908885479E-003
  0.17700000000000005         -2.2111488506197929E-003
  0.17810000000000004         -2.4160740431398153E-003
  0.17920000000000003         -2.6508225128054619E-003
  0.18030000000000002         -2.9113658238202333E-003
  0.18140000000000001         -3.1821420416235924E-003
  0.18250000000000000         -3.4434865228831768E-003
  0.18360000000000004         -3.6812720354646444E-003
  0.18470000000000003         -3.8924401160329580E-003
  0.18580000000000002         -4.0840418078005314E-003
  0.18690000000000001         -4.2658289894461632E-003
  0.18800000000000000         -4.4412896968424320E-003
  0.18910000000000005         -4.6020755544304848E-003
  0.19020000000000004         -4.7295875847339630E-003
  0.19130000000000003         -4.8015420325100422E-003
  0.19240000000000002         -4.7995634377002716E-003
  0.19350000000000001         -4.7142934054136276E-003
  0.19460000000000005         -4.5448886230587959E-003
  0.19570000000000004         -4.2938762344419956E-003
  0.19680000000000003         -3.9604087360203266E-003
  0.19790000000000002         -3.5371631383895874E-003
  0.19900000000000001         -3.0115158297121525E-003
  0.20010000000000000         -2.3696827702224255E-003
  0.20120000000000005         -1.6019239556044340E-003
  0.20230000000000004         -7.0448848418891430E-004
  0.20340000000000003          3.2098521478474140E-004
  0.20450000000000002          1.4702725457027555E-003
  0.20560000000000000          2.7405449654906988E-003
  0.20670000000000005          4.1301534511148930E-003
  0.20780000000000004          5.6358678266406059E-003
  0.20890000000000003          7.2502521798014641E-003
