 -0.12000000000000000          0.0000000000000000
 -0.11889999999999999          0.0000000000000000
 -0.11780000000000000          0.0000000000000000
 -0.11670000000000000          0.0000000000000000
 -0.11559999999999999          0.0000000000000000
 -0.11449999999999999          0.0000000000000000
 -0.11340000000000000          0.0000000000000000
 -0.11230000000000000          0.0000000000000000
 -0.11119999999999999          0.0000000000000000
 -0.11009999999999999         -2.7672482959388339E-032
 -0.10900000000000000         -6.1502828340389757E-031
 -0.10790000000000000         -5.7972718182553997E-030
 -0.10679999999999999         -3.0933835376917067E-029
 -0.10569999999999999         -1.0555390079423438E-028
 -0.10460000000000000         -2.4214770153854187E-028
 -0.10349999999999999         -3.6618112885335267E-028
 -0.10239999999999999         -2.6779169948930096E-028
 -0.10130000000000000          4.0876505289008288E-028
 -0.10020000000000000          2.0825904786675379E-027
  -9.9099999999999994E-002     3.9991723442907070E-027
  -9.7999999999999990E-002     1.0550601736099205E-028
  -9.6899999999999986E-002    -2.2664881305189464E-026
  -9.5799999999999996E-002    -6.1785003581348714E-026
  -9.4699999999999993E-002    -4.0021807239010376E-026
  -9.3599999999999989E-002     2.0379272388108246E-025
  -9.2499999999999999E-002     6.6156493543963252E-025
  -9.1399999999999995E-002     6.2253895107841097E-025
  -9.0299999999999991E-002    -1.3329267344612048E-024
  -8.9200000000000002E-002    -5.3236838280082689E-024
  -8.8099999999999984E-002    -6.3997930490778603E-024
  -8.6999999999999994E-002     5.4939066007195745E-024
  -8.5899999999999990E-002     3.3154757306495267E-023
  -8.4799999999999986E-002     4.9568548296105409E-023
  -8.3699999999999997E-002    -4.9300225147803534E-024
  -8.2599999999999993E-002    -1.6108185012750074E-022
  -8.1499999999999989E-002    -3.0293255880671053E-022
  -8.0399999999999999E-002    -1.3022137170153957E-022
  -7.9299999999999995E-002     5.9018947955004432E-022
  -7.8199999999999992E-002     1.4847151854471132E-021
  -7.7100000000000002E-002     1.2741204742925284E-021
  -7.5999999999999984E-002    -1.4001956435633243E-021
  -7.4899999999999994E-002    -5.8183516740907006E-021
  -7.3799999999999991E-002    -7.4291748454222669E-021
  -7.2699999999999987E-002     1.3614667635461012E-022
  -7.1599999999999997E-002     1.7625787443304391E-020
  -7.0499999999999993E-002     3.1986431283746291E-020
  -6.9399999999999989E-002     1.8748644735166779E-020
  -6.8300000000000000E-002    -3.6376534057332364E-020
  -6.7199999999999996E-002    -1.0610007256556723E-019
  -6.6099999999999992E-002    -1.1345450308003353E-019
  -6.5000000000000002E-002     1.7967671530230214E-020
  -6.3899999999999985E-002     2.6392639839697487E-019
  -6.2799999999999995E-002     4.3156974897460159E-019
  -6.1699999999999991E-002     2.4000234467859236E-019
  -6.0599999999999994E-002    -4.1717763349679146E-019
  -5.9499999999999990E-002    -1.1895105362696304E-018
  -5.8399999999999994E-002    -1.2889577050283587E-018
  -5.7299999999999990E-002    -3.3976382268304524E-020
  -5.6199999999999986E-002     2.2952179571154416E-018
  -5.5099999999999996E-002     4.0206395803089367E-018
  -5.3999999999999992E-002     2.8427513452359827E-018
  -5.2899999999999989E-002    -2.1548216257225819E-018
  -5.1799999999999985E-002    -8.5749297697227840E-018
  -5.0699999999999995E-002    -1.0932390379595850E-017
  -4.9599999999999991E-002    -4.1851823477579850E-018
  -4.8499999999999988E-002     1.0972949526571163E-017
  -4.7399999999999998E-002     2.5299047719693434E-017
  -4.6299999999999994E-002     2.4862086252389847E-017
  -4.5199999999999990E-002     1.5479353403143703E-018
  -4.4099999999999986E-002    -3.6241700929149230E-017
  -4.2999999999999997E-002    -6.2620834770600104E-017
  -4.1899999999999993E-002    -4.8683367535951172E-017
  -4.0799999999999989E-002     1.3413409439107800E-017
  -3.9699999999999985E-002     9.3909993614157543E-017
  -3.8599999999999995E-002     1.3430891901354108E-016
  -3.7499999999999992E-002     8.4520395165827209E-017
  -3.6399999999999988E-002    -5.2272692810998421E-017
  -3.5299999999999984E-002    -2.0197963848421821E-016
  -3.4199999999999994E-002    -2.5364986587659221E-016
  -3.3099999999999991E-002    -1.3476684620065043E-016
  -3.1999999999999987E-002     1.2012818457818520E-016
  -3.0899999999999997E-002     3.6454596042996697E-016
  -2.9799999999999993E-002     4.2066589012228423E-016
  -2.8699999999999989E-002     2.0436333478157962E-016
  -2.7599999999999986E-002    -1.9219769172774173E-016
  -2.6499999999999996E-002    -5.3376993487135494E-016
  -2.5399999999999992E-002    -5.8844321169910065E-016
  -2.4299999999999988E-002    -2.9438606259021567E-016
  -2.3199999999999985E-002     1.7932514673986091E-016
  -2.2099999999999995E-002     5.4058320320127251E-016
  -2.0999999999999991E-002     5.8617009290602533E-016
  -1.9899999999999987E-002     3.5587422240443466E-016
  -1.8799999999999983E-002     8.9578803134935986E-017
  -1.7699999999999994E-002    -2.7428157263255418E-018
  -1.6599999999999990E-002     2.5718084183122997E-017
  -1.5499999999999986E-002    -1.4438163629894221E-016
  -1.4399999999999996E-002    -7.9094629007494242E-016
  -1.3299999999999992E-002    -1.7291119885803658E-015
  -1.2199999999999989E-002    -2.1625185247787755E-015
  -1.1099999999999985E-002    -1.0959794244632466E-015
  -9.9999999999999950E-003     1.7992932210624760E-015
  -8.8999999999999913E-003     5.4350046937491105E-015
  -7.7999999999999875E-003     7.3877036283723392E-015
  -6.6999999999999837E-003     5.1412638320366862E-015
  -5.5999999999999939E-003    -1.9864510799889445E-015
  -4.4999999999999901E-003    -1.1435913793624713E-014
  -3.3999999999999864E-003    -1.7788355966170954E-014
  -2.2999999999999826E-003    -1.5358662285762728E-014
  -1.1999999999999927E-003    -1.9862420746092095E-015
  -9.9999999999988987E-005     1.8161201234827458E-014
   1.0000000000000148E-003     3.4985852241523410E-014
   2.1000000000000185E-003     3.6832211271816545E-014
   3.2000000000000084E-003     1.7258059131081138E-014
   4.3000000000000121E-003    -1.9338793871945432E-014
   5.4000000000000159E-003    -5.7032164906510585E-014
   6.5000000000000058E-003    -7.4389374326265523E-014
   7.6000000000000234E-003    -5.5391536626578364E-014
   8.7000000000000133E-003    -9.5472001778233278E-017
   9.8000000000000032E-003     7.1197103659707828E-014
   1.0900000000000021E-002     1.2419098139194312E-013
   1.2000000000000011E-002     1.2612174217323247E-013
   1.3100000000000001E-002     6.3892942043890233E-014
   1.4200000000000018E-002    -4.4723204089755497E-014
   1.5300000000000008E-002    -1.5443761991907473E-013
   1.6400000000000026E-002    -2.1130818449177635E-013
   1.7500000000000016E-002    -1.7952681713191004E-013
   1.8600000000000005E-002    -6.2642972135495273E-014
   1.9700000000000023E-002     9.3521463359960699E-014
   2.0800000000000013E-002     2.2067748019563571E-013
   2.1900000000000003E-002     2.6246417691132284E-013
   2.3000000000000020E-002     2.0526778248073502E-013
   2.4100000000000010E-002     8.6481481155996354E-014
   2.5200000000000000E-002    -2.7886577731251264E-014
   2.6300000000000018E-002    -8.6133899492024657E-014
   2.7400000000000008E-002    -8.8803157806838923E-014
   2.8500000000000025E-002    -9.4299215788393176E-014
   2.9600000000000015E-002    -1.8090647794892500E-013
   3.0700000000000005E-002    -3.8135605242260728E-013
   3.1800000000000023E-002    -6.2917986792809799E-013
   3.2900000000000013E-002    -7.5834434218324809E-013
   3.4000000000000002E-002    -5.7274470539533939E-013
   3.5100000000000020E-002     3.9508361046689672E-014
   3.6200000000000010E-002     1.0066160145011382E-012
   3.7300000000000028E-002     2.0514332420284997E-012
   3.8400000000000017E-002     2.7747702139452324E-012
   3.9500000000000007E-002     2.8119984639418671E-012
   4.0600000000000025E-002     1.9837755570184523E-012
   4.1700000000000015E-002     3.5782886527967184E-013
   4.2800000000000005E-002    -1.8128357972754805E-012
   4.3900000000000022E-002    -4.2336455521874150E-012
   4.5000000000000012E-002    -6.6944639935673234E-012
   4.6100000000000002E-002    -9.0789129686408288E-012
   4.7200000000000020E-002    -1.1224386871344638E-011
   4.8300000000000010E-002    -1.2697162765640257E-011
   4.9400000000000027E-002    -1.2615721835251836E-011
   5.0500000000000017E-002    -9.6486239137272278E-012
   5.1600000000000007E-002    -2.2276629325912456E-012
   5.2700000000000025E-002     1.1101085328757421E-011
   5.3800000000000014E-002     3.1346293616341114E-011
   5.4900000000000004E-002     5.8911778233472489E-011
   5.6000000000000022E-002     9.3669953737940403E-011
   5.7100000000000012E-002     1.3521503361424436E-010
   5.8200000000000002E-002     1.8317730665629028E-010
   5.9300000000000019E-002     2.3750454380966346E-010
   6.0400000000000009E-002     2.9870644846496930E-010
   6.1500000000000027E-002     3.6813888049103127E-010
   6.2600000000000017E-002     4.4839965074316979E-010
   6.3700000000000007E-002     5.4380050462654594E-010
   6.4800000000000024E-002     6.6073763127505458E-010
   6.5900000000000014E-002     8.0771483945696332E-010
   6.7000000000000004E-002     9.9486630045220181E-010
   6.8100000000000022E-002     1.2330683141215104E-009
   6.9200000000000012E-002     1.5330031688520762E-009
   7.0300000000000029E-002     1.9046755284080064E-009
   7.1400000000000019E-002     2.3577721997014578E-009
   7.2500000000000009E-002     2.9029112447176431E-009
   7.3600000000000027E-002     3.5534211129117921E-009
   7.4700000000000016E-002     4.3270307337195391E-009
   7.5800000000000006E-002     5.2468962508100958E-009
   7.6900000000000024E-002     6.3417275875110590E-009
   7.8000000000000014E-002     7.6452426611695046E-009
   7.9100000000000004E-002     9.1955083547645700E-009
   8.0200000000000021E-002     1.1034727798175936E-008
   8.1300000000000011E-002     1.3209765725719080E-008
   8.2400000000000029E-002     1.5773226280657582E-008
   8.3500000000000019E-002     1.8784581001796141E-008
   8.4600000000000009E-002     2.2310810976478024E-008
   8.5700000000000026E-002     2.6426333121776224E-008
   8.6800000000000016E-002     3.1212440632089056E-008
   8.7900000000000006E-002     3.6756802046511439E-008
   8.9000000000000024E-002     4.3153619344593608E-008
   9.0100000000000013E-002     5.0504688431374234E-008
   9.1200000000000003E-002     5.8921092005448372E-008
   9.2300000000000021E-002     6.8524784069268208E-008
   9.3400000000000011E-002     7.9449300471878814E-008
   9.4500000000000028E-002     9.1839048366182396E-008
   9.5600000000000018E-002     1.0584717102801733E-007
   9.6700000000000008E-002     1.2163251028596278E-007
   9.7800000000000026E-002     1.3935634513018158E-007
   9.8900000000000016E-002     1.5917964901746018E-007
  0.10000000000000001          1.8126100087556551E-007
  0.10110000000000002          2.0575510006892728E-007
  0.10220000000000001          2.3281133110231167E-007
  0.10330000000000003          2.6257194463141786E-007
  0.10440000000000002          2.9516937161133683E-007
  0.10550000000000001          3.3072254268518009E-007
  0.10660000000000003          3.6933226965629729E-007
  0.10770000000000002          4.1107537640527880E-007
  0.10880000000000001          4.5599804820994905E-007
  0.10990000000000003          5.0410858420946170E-007
  0.11100000000000002          5.5536980880788178E-007
  0.11210000000000001          6.0969199466853752E-007
  0.11320000000000002          6.6692729205897194E-007
  0.11430000000000001          7.2686509611230576E-007
  0.11540000000000003          7.8922954571680748E-007
  0.11650000000000002          8.5367679503178806E-007
  0.11760000000000001          9.1979256922058994E-007
  0.11870000000000003          9.8708835594152333E-007
  0.11980000000000002          1.0549965736572631E-006
  0.12090000000000001          1.1228659104745020E-006
  0.12200000000000003          1.1899581977559137E-006
  0.12310000000000001          1.2554479553728015E-006
  0.12420000000000003          1.3184267118049320E-006
  0.12530000000000002          1.3779101664113114E-006
  0.12640000000000001          1.4328484212455805E-006
  0.12750000000000003          1.4821373497397872E-006
  0.12860000000000002          1.5246307611960219E-006
  0.12970000000000001          1.5591529063385678E-006
  0.13080000000000003          1.5845116649870761E-006
  0.13190000000000002          1.5995145759006846E-006
  0.13300000000000001          1.6029866856115405E-006
  0.13410000000000000          1.5937915804897784E-006
  0.13520000000000004          1.5708537830505520E-006
  0.13630000000000003          1.5331827398767928E-006
  0.13740000000000002          1.4798963547946187E-006
  0.13850000000000001          1.4102448631092557E-006
  0.13960000000000000          1.3236337963462574E-006
  0.14070000000000005          1.2196468333058874E-006
  0.14180000000000004          1.0980671731886105E-006
  0.14290000000000003          9.5889777185220737E-007
  0.14400000000000002          8.0237828115059528E-007
  0.14510000000000001          6.2899874819777324E-007
  0.14620000000000000          4.3950930717073788E-007
  0.14730000000000004          2.3492520995205268E-007
  0.14840000000000003          1.6527543778011022E-008
  0.14950000000000002         -2.1414059858670953E-007
  0.15060000000000001         -4.5528264536187635E-007
  0.15170000000000000         -7.0486186132256989E-007
  0.15280000000000005         -9.6061978638317669E-007
  0.15390000000000004         -1.2200995342936949E-006
  0.15500000000000003         -1.4806740864514722E-006
  0.15610000000000002         -1.7395790337104700E-006
  0.15720000000000001         -1.9939498088206165E-006
  0.15830000000000000         -2.2408621589420363E-006
  0.15940000000000004         -2.4773762561380863E-006
  0.16050000000000003         -2.7005817173630930E-006
  0.16160000000000002         -2.9076454666210338E-006
  0.16270000000000001         -3.0958581191953272E-006
  0.16380000000000000         -3.2626801385049475E-006
  0.16490000000000005         -3.4057852644764353E-006
  0.16600000000000004         -3.5231030324212043E-006
  0.16710000000000003         -3.6128571991866920E-006
  0.16820000000000002         -3.6736007587023778E-006
  0.16930000000000001         -3.7042445910628885E-006
  0.17040000000000000         -3.7040815641375957E-006
  0.17150000000000004         -3.6728024497278966E-006
  0.17260000000000003         -3.6105054732615827E-006
  0.17370000000000002         -3.5176972232875414E-006
  0.17480000000000001         -3.3952867397601949E-006
  0.17590000000000000         -3.2445725537399994E-006
  0.17700000000000005         -3.0672224511363311E-006
  0.17810000000000004         -2.8652489163505379E-006
  0.17920000000000003         -2.6409772999613779E-006
  0.18030000000000002         -2.3970101210579742E-006
  0.18140000000000001         -2.1361850031098584E-006
  0.18250000000000000         -1.8615293129187194E-006
  0.18360000000000004         -1.5762111615913454E-006
  0.18470000000000003         -1.2834874496547855E-006
  0.18580000000000002         -9.8665088898997055E-007
  0.18690000000000001         -6.8897793426003773E-007
  0.18800000000000000         -3.9367802173728705E-007
  0.18910000000000005         -1.0384624005155274E-007
  0.19020000000000004          1.7758006265466975E-007
  0.19130000000000003          4.4786045805267349E-007
  0.19240000000000002          7.0448595579364337E-007
  0.19350000000000001          9.4520919446949847E-007
  0.19460000000000005          1.1680695024551824E-006
  0.19570000000000004          1.3714129636355210E-006
  0.19680000000000003          1.5539067135250662E-006
  0.19790000000000002          1.7145466699730605E-006
  0.19900000000000001          1.8526587837186526E-006
  0.20010000000000000          1.9678948319779010E-006
  0.20120000000000005          2.0602208223863272E-006
  0.20230000000000004          2.1299013042153092E-006
  0.20340000000000003          2.1774794731754810E-006
  0.20450000000000002          2.2037509097572183E-006
  0.20560000000000000          2.2097378860053141E-006
  0.20670000000000005          2.1966577605780913E-006
  0.20780000000000004          2.1658929654222447E-006
  0.20890000000000003          2.1189578092162265E-006
