 -0.12000000000000000          0.0000000000000000
 -0.11889999999999999          0.0000000000000000
 -0.11780000000000000          0.0000000000000000
 -0.11670000000000000          0.0000000000000000
 -0.11559999999999999          0.0000000000000000
 -0.11449999999999999          0.0000000000000000
 -0.11340000000000000          0.0000000000000000
 -0.11230000000000000          0.0000000000000000
 -0.11119999999999999          0.0000000000000000
 -0.11009999999999999          0.0000000000000000
 -0.10900000000000000          0.0000000000000000
 -0.10790000000000000         -2.7958874262240193E-028
 -0.10679999999999999         -3.3836301118109802E-027
 -0.10569999999999999         -1.7252723879365829E-026
 -0.10460000000000000         -3.6693769480230123E-026
 -0.10349999999999999          6.1533628123519381E-026
 -0.10239999999999999          6.9396315699422002E-025
 -0.10130000000000000          2.2812242186288221E-024
 -0.10020000000000000          3.1816040234382127E-024
  -9.9099999999999994E-002    -4.3859131995827602E-024
  -9.7999999999999990E-002    -3.4078911012405304E-023
  -9.6899999999999986E-002    -8.4342104978099369E-023
  -9.5799999999999996E-002    -8.5817237005539210E-023
  -9.4699999999999993E-002     1.3906816276366734E-022
  -9.3599999999999989E-002     7.6361493287323859E-022
  -9.2499999999999999E-002     1.5375341814606403E-021
  -9.1399999999999995E-002     1.2117854681119821E-021
  -9.0299999999999991E-002    -2.3559798192516898E-021
  -8.9200000000000002E-002    -1.0106539576199775E-020
  -8.8099999999999984E-002    -1.7471746056849130E-020
  -8.6999999999999994E-002    -1.1204193708773438E-020
  -8.5899999999999990E-002     2.5139939748588709E-020
  -8.4799999999999986E-002     9.0863967906663059E-020
  -8.3699999999999997E-002     1.4018055357525700E-019
  -8.2599999999999993E-002     7.6793237946223924E-020
  -8.1499999999999989E-002    -1.8755818911393542E-019
  -8.0399999999999999E-002    -6.0210833509374048E-019
  -7.9299999999999995E-002    -8.5363271116913124E-019
  -7.8199999999999992E-002    -4.2200909205713713E-019
  -7.7100000000000002E-002     1.0384409900354224E-018
  -7.5999999999999984E-002     3.0856930503718881E-018
  -7.4899999999999994E-002     4.1240929915694125E-018
  -7.3799999999999991E-002     1.9684557657628534E-018
  -7.2699999999999987E-002    -4.3804197197873447E-018
  -7.1599999999999997E-002    -1.2564976902257060E-017
  -7.0499999999999993E-002    -1.6273010039831181E-017
  -6.9399999999999989E-002    -8.1480872028525581E-018
  -6.8300000000000000E-002     1.3968445148589043E-017
  -6.7199999999999996E-002     4.1125669741960374E-017
  -6.6099999999999992E-002     5.3543288553994174E-017
  -6.5000000000000002E-002     3.0812464582710480E-017
  -6.3899999999999985E-002    -3.1202510020031284E-017
  -6.2799999999999995E-002    -1.0772001216874676E-016
  -6.1699999999999991E-002    -1.4932220742670913E-016
  -6.0599999999999994E-002    -1.0730828798193216E-016
  -5.9499999999999990E-002     3.0925798252797595E-017
  -5.8399999999999994E-002     2.1864760575984754E-016
  -5.7299999999999990E-002     3.5785233550384907E-016
  -5.6199999999999986E-002     3.4075015796363351E-016
  -5.5099999999999996E-002     1.0748695237679872E-016
  -5.3999999999999992E-002    -3.0524931307831127E-016
  -5.2899999999999989E-002    -7.4526299743288022E-016
  -5.1799999999999985E-002    -9.6928754187211846E-016
  -5.0699999999999995E-002    -7.2382845812569573E-016
  -4.9599999999999991E-002     1.1191216351316550E-016
  -4.8499999999999988E-002     1.3550502747324868E-015
  -4.7399999999999998E-002     2.4268586611337663E-015
  -4.6299999999999994E-002     2.4934917784789467E-015
  -4.5199999999999990E-002     9.1987407494902593E-016
  -4.4099999999999986E-002    -2.1142842335973794E-015
  -4.2999999999999997E-002    -5.2568906056004762E-015
  -4.1899999999999993E-002    -6.3579533924175511E-015
  -4.0799999999999989E-002    -3.6872267459892201E-015
  -3.9699999999999985E-002     2.5687811490285924E-015
  -3.8599999999999995E-002     9.6123772190623985E-015
  -3.7499999999999992E-002     1.3035164514083562E-014
  -3.6399999999999988E-002     9.3745650958242284E-015
  -3.5299999999999984E-002    -1.2015178238670011E-015
  -3.4199999999999994E-002    -1.4034406740860619E-014
  -3.3099999999999991E-002    -2.1987362559990065E-014
  -3.1999999999999987E-002    -1.9450878353723805E-014
  -3.0899999999999997E-002    -5.8872063616515011E-015
  -2.9799999999999993E-002     1.3422245018451621E-014
  -2.8699999999999989E-002     2.9880547499196511E-014
  -2.7599999999999986E-002     3.5585839559381521E-014
  -2.6499999999999996E-002     2.6425874495908906E-014
  -2.5399999999999992E-002     3.1865080896592872E-015
  -2.4299999999999988E-002    -2.8483051556444164E-014
  -2.3199999999999985E-002    -5.8101940413838454E-014
  -2.2099999999999995E-002    -7.1107175865763733E-014
  -2.0999999999999991E-002    -5.2954070571846132E-014
  -1.9899999999999987E-002     1.9694216943426336E-015
  -1.8799999999999983E-002     8.0112037338132824E-014
  -1.7699999999999994E-002     1.4580661168456938E-013
  -1.6599999999999990E-002     1.5356884871826210E-013
  -1.5499999999999986E-002     7.4611967808540375E-014
  -1.4399999999999996E-002    -7.6250956232686712E-014
  -1.3299999999999992E-002    -2.3360030272992494E-013
  -1.2199999999999989E-002    -3.0670255289459714E-013
  -1.1099999999999985E-002    -2.2930439556693993E-013
  -9.9999999999999950E-003    -6.4786394937752911E-015
  -8.8999999999999913E-003     2.7276873251422251E-013
  -7.7999999999999875E-003     4.7089730118715645E-013
  -6.6999999999999837E-003     4.7004847930631755E-013
  -5.5999999999999939E-003     2.3670738221077958E-013
  -4.4999999999999901E-003    -1.5261975168899544E-013
  -3.3999999999999864E-003    -5.3832638216913531E-013
  -2.2999999999999826E-003    -7.4344507329862641E-013
  -1.1999999999999927E-003    -6.4829408117847431E-013
  -9.9999999999988987E-005    -2.4512957310686423E-013
   1.0000000000000148E-003     3.4491650529634710E-013
   2.1000000000000185E-003     8.9928390255289425E-013
   3.2000000000000084E-003     1.1643666716562584E-012
   4.3000000000000121E-003     9.5644455896937153E-013
   5.4000000000000159E-003     2.6276517853945913E-013
   6.5000000000000058E-003    -7.0500506474391322E-013
   7.6000000000000234E-003    -1.5512847083287706E-012
   8.7000000000000133E-003    -1.8436120685638713E-012
   9.8000000000000032E-003    -1.3207560045636058E-012
   1.0900000000000021E-002    -6.5540116194438836E-014
   1.2000000000000011E-002     1.4608319979028672E-012
   1.3100000000000001E-002     2.5729479311009662E-012
   1.4200000000000018E-002     2.6605256626260898E-012
   1.5300000000000008E-002     1.5038922798055188E-012
   1.6400000000000026E-002    -5.5263627875279386E-013
   1.7500000000000016E-002    -2.6782003264419485E-012
   1.8600000000000005E-002    -3.8815153348414899E-012
   1.9700000000000023E-002    -3.4606059337582984E-012
   2.0800000000000013E-002    -1.3752017103199621E-012
   2.1900000000000003E-002     1.6461302806969336E-012
   2.3000000000000020E-002     4.3464585229580077E-012
   2.4100000000000010E-002     5.4540694877092122E-012
   2.5200000000000000E-002     4.2583892141678792E-012
   2.6300000000000018E-002     9.9079989004935420E-013
   2.7400000000000008E-002    -3.1756051781239858E-012
   2.8500000000000025E-002    -6.5342640152843412E-012
   2.9600000000000015E-002    -7.5157423687355340E-012
   3.0700000000000005E-002    -5.3644441319611325E-012
   3.1800000000000023E-002    -5.5457304330361334E-013
   3.2900000000000013E-002     5.2401494601839183E-012
   3.4000000000000002E-002     9.6675592878292527E-012
   3.5100000000000020E-002     1.0584595699913990E-011
   3.6200000000000010E-002     7.0219390198300591E-012
   3.7300000000000028E-002    -1.7189057794318729E-013
   3.8400000000000017E-002    -8.3772667622272756E-012
   3.9500000000000007E-002    -1.4087999863909850E-011
   4.0600000000000025E-002    -1.4395443170833744E-011
   4.1700000000000015E-002    -8.4542260345155107E-012
   4.2800000000000005E-002     1.8236642664731795E-012
   4.3900000000000022E-002     1.2333165738676044E-011
   4.5000000000000012E-002     1.8484175995370222E-011
   4.6100000000000002E-002     1.7305972627168487E-011
   4.7200000000000020E-002     8.9136857617244658E-012
   4.8300000000000010E-002    -3.4308807964761323E-012
   4.9400000000000027E-002    -1.4728648856099369E-011
   5.0500000000000017E-002    -2.0436423386893665E-011
   5.1600000000000007E-002    -1.8381652103216517E-011
   5.2700000000000025E-002    -9.5323202456421008E-012
   5.3800000000000014E-002     2.6198028121870998E-012
   5.4900000000000004E-002     1.3625178242604452E-011
   5.6000000000000022E-002     1.9787919566804923E-011
   5.7100000000000012E-002     1.9311731033755386E-011
   5.8200000000000002E-002     1.2589636798343573E-011
   5.9300000000000019E-002     1.7971098784444473E-012
   6.0400000000000009E-002    -9.8361579298211765E-012
   6.1500000000000027E-002    -1.8789811720432148E-011
   6.2600000000000017E-002    -2.2008129693662504E-011
   6.3700000000000007E-002    -1.7738975219283581E-011
   6.4800000000000024E-002    -6.4109342834406391E-012
   6.5900000000000014E-002     8.8308032761275079E-012
   6.7000000000000004E-002     2.2528806944976942E-011
   6.8100000000000022E-002     2.8637581889201513E-011
   6.9200000000000012E-002     2.3229702883487136E-011
   7.0300000000000029E-002     6.9924331082271696E-012
   7.1400000000000019E-002    -1.4037671199063073E-011
   7.2500000000000009E-002    -3.0460897693096456E-011
   7.3600000000000027E-002    -3.3756022282949161E-011
   7.4700000000000016E-002    -2.0821589244435224E-011
   7.5800000000000006E-002     3.7063412235138760E-012
   7.6900000000000024E-002     2.8974721927310654E-011
   7.8000000000000014E-002     4.2875300532152494E-011
   7.9100000000000004E-002     3.8055662787694899E-011
   8.0200000000000021E-002     1.5833785671492961E-011
   8.1300000000000011E-002    -1.4126163780381340E-011
   8.2400000000000029E-002    -3.8290971088317249E-011
   8.3500000000000019E-002    -4.5624993366688571E-011
   8.4600000000000009E-002    -3.2654701859202717E-011
   8.5700000000000026E-002    -4.8322613271922776E-012
   8.6800000000000016E-002     2.6238379524645694E-011
   8.7900000000000006E-002     4.8102896665902506E-011
   8.9000000000000024E-002     5.2656594362598952E-011
   9.0100000000000013E-002     3.8981141231575478E-011
   9.1200000000000003E-002     1.2963095007145764E-011
   9.2300000000000021E-002    -1.5603317249368587E-011
   9.3400000000000011E-002    -3.6808701919799347E-011
   9.4500000000000028E-002    -4.3792854759194810E-011
   9.5600000000000018E-002    -3.4473465748696697E-011
   9.6700000000000008E-002    -1.1838330662983232E-011
   9.7800000000000026E-002     1.6865404905974657E-011
   9.8900000000000016E-002     4.1946914691726178E-011
  0.10000000000000001          5.4096560564431684E-011
  0.10110000000000002          4.7847718842586318E-011
  0.10220000000000001          2.4545886156968066E-011
  0.10330000000000003         -6.9670163735380264E-012
  0.10440000000000002         -3.3147967010149770E-011
  0.10550000000000001         -4.1655519311678546E-011
  0.10660000000000003         -2.7829035950666103E-011
  0.10770000000000002          1.8964383015351860E-012
  0.10880000000000001          3.2233514468682500E-011
  0.10990000000000003          4.6641170092787121E-011
  0.11100000000000002          3.6462225599942499E-011
  0.11210000000000001          6.3419681832488362E-012
  0.11320000000000002         -2.7562530383051786E-011
  0.11430000000000001         -4.6113054347207694E-011
  0.11540000000000003         -3.8063642515684393E-011
  0.11650000000000002         -6.8795485801131928E-012
  0.11760000000000001          3.0567000319781101E-011
  0.11870000000000003          5.3016150497464665E-011
  0.11980000000000002          4.6686713522925416E-011
  0.12090000000000001          1.3203858145738323E-011
  0.12200000000000003         -3.1019790902586664E-011
  0.12310000000000001         -6.3463928556828364E-011
  0.12420000000000003         -6.7826570748774628E-011
  0.12530000000000002         -4.2858848414706330E-011
  0.12640000000000001         -2.6210210217481045E-012
  0.12750000000000003          3.1619474399890990E-011
  0.12860000000000002          4.2917953912979812E-011
  0.12970000000000001          2.7238327912626481E-011
  0.13080000000000003         -5.9256263090778916E-012
  0.13190000000000002         -4.0254442140730262E-011
  0.13300000000000001         -6.1700790310315057E-011
  0.13410000000000000         -6.4610067296300144E-011
  0.13520000000000004         -5.1811270551649358E-011
  0.13630000000000003         -3.0236011611117775E-011
  0.13740000000000002         -6.1522618596820955E-012
  0.13850000000000001          1.6667207544673879E-011
  0.13960000000000000          3.5119018804152802E-011
  0.14070000000000005          4.4232381646303054E-011
  0.14180000000000004          3.7137307118406682E-011
  0.14290000000000003          9.2381770636085214E-012
  0.14400000000000002         -3.6169404277197614E-011
  0.14510000000000001         -8.4950060874611211E-011
  0.14620000000000000         -1.1517589659781891E-010
  0.14730000000000004         -1.0705461517268589E-010
  0.14840000000000003         -5.4508578206657887E-011
  0.14950000000000002          2.7824780673979532E-011
  0.15060000000000001          1.0783014064985608E-010
  0.15170000000000000          1.4964593453292707E-010
  0.15280000000000005          1.3161330358890666E-010
  0.15390000000000004          5.8838503513847229E-011
  0.15500000000000003         -3.7450736956046171E-011
  0.15610000000000002         -1.1404891614441581E-010
  0.15720000000000001         -1.3663538356301075E-010
  0.15830000000000000         -9.5657107235247452E-011
  0.15940000000000004         -9.7229247222885284E-012
  0.16050000000000003          8.4606391337338493E-011
  0.16160000000000002          1.5007900477925773E-010
  0.16270000000000001          1.6394731405799945E-010
  0.16380000000000000          1.2476354671608902E-010
  0.16490000000000005          5.0021153885637659E-011
  0.16600000000000004         -3.2205096228699048E-011
  0.16710000000000003         -9.3301866233019837E-011
  0.16820000000000002         -1.1273185163140909E-010
  0.16930000000000001         -8.3687848317914870E-011
  0.17040000000000000         -1.4990505364798068E-011
  0.17150000000000004          7.1138088475475314E-011
  0.17260000000000003          1.4543168058711586E-010
  0.17370000000000002          1.8082427222232411E-010
  0.17480000000000001          1.6182626072502870E-010
  0.17590000000000000          9.1090322784648237E-011
  0.17700000000000005         -9.7527021181154083E-012
  0.17810000000000004         -1.0569971287122115E-010
  0.17920000000000003         -1.6026401039592741E-010
  0.18030000000000002         -1.5015032273080209E-010
  0.18140000000000001         -7.6663973780366490E-011
  0.18250000000000000          3.2026582774680179E-011
  0.18360000000000004          1.3118318931137907E-010
  0.18470000000000003          1.7927187512256637E-010
  0.18580000000000002          1.5762595395596435E-010
  0.18690000000000001          7.8822795512856203E-011
  0.18800000000000000         -2.0964693522862454E-011
  0.18910000000000005         -1.0108659742602555E-010
  0.19020000000000004         -1.3523548947347308E-010
  0.19130000000000003         -1.1963426083116957E-010
  0.19240000000000002         -6.8480214554522689E-011
  0.19350000000000001         -2.8830431965387593E-012
  0.19460000000000005          5.8614370301857122E-011
  0.19570000000000004          1.0245557180432741E-010
  0.19680000000000003          1.1876902239471576E-010
  0.19790000000000002          1.0133360817121684E-010
  0.19900000000000001          5.0961814629379987E-011
  0.20010000000000000         -2.0465950115178266E-011
  0.20120000000000005         -9.0048773992990050E-011
  0.20230000000000004         -1.3082596117541812E-010
  0.20340000000000003         -1.2270442995010455E-010
  0.20450000000000002         -6.1696148190293343E-011
  0.20560000000000000          3.6545568654622329E-011
  0.20670000000000005          1.4016868221666812E-010
  0.20780000000000004          2.1084972656737477E-010
  0.20890000000000003          2.1768006841504928E-010
