 -0.12000000000000000          0.0000000000000000
 -0.11889999999999999          0.0000000000000000
 -0.11780000000000000          0.0000000000000000
 -0.11670000000000000          0.0000000000000000
 -0.11559999999999999          0.0000000000000000
 -0.11449999999999999          0.0000000000000000
 -0.11340000000000000          0.0000000000000000
 -0.11230000000000000          0.0000000000000000
 -0.11119999999999999          0.0000000000000000
 -0.11009999999999999          0.0000000000000000
 -0.10900000000000000         -1.1073083659593372E-028
 -0.10790000000000000         -1.9563996968513974E-027
 -0.10679999999999999         -7.7855756520452897E-027
 -0.10569999999999999          2.1994015194313259E-026
 -0.10460000000000000          2.7294900399818768E-025
 -0.10349999999999999          7.6135653020338258E-025
 -0.10239999999999999         -6.3484434303514695E-025
 -0.10130000000000000         -1.0056151117433219E-023
 -0.10020000000000000         -2.6200863229994284E-023
  -9.9099999999999994E-002    -3.4092906785370508E-025
  -9.7999999999999990E-002     1.8047867760943706E-022
  -9.6899999999999986E-002     4.9632785555161918E-022
  -9.5799999999999996E-002     2.7352546509075407E-022
  -9.4699999999999993E-002    -1.9459171474820305E-021
  -9.3599999999999989E-002    -6.2368166106469520E-021
  -9.2499999999999999E-002    -6.1786199309098716E-021
  -9.1399999999999995E-002     1.2670746160738742E-020
  -9.0299999999999991E-002     5.5643153799083593E-020
  -8.9200000000000002E-002     7.8533768126703277E-020
  -8.8099999999999984E-002    -3.1601369015080053E-020
  -8.6999999999999994E-002    -3.5486712607954344E-019
  -8.5899999999999990E-002    -6.7521853843787498E-019
  -8.4799999999999986E-002    -2.9216768867803064E-019
  -8.3699999999999997E-002     1.5318266182703595E-018
  -8.2599999999999993E-002     4.1557707003077433E-018
  -8.1499999999999989E-002     4.1629349115930650E-018
  -8.0399999999999999E-002    -3.3218409143417423E-018
  -7.9299999999999995E-002    -1.8401201826503537E-017
  -7.8199999999999992E-002    -2.8341798515745244E-017
  -7.7100000000000002E-002    -8.6760550811492292E-018
  -7.5999999999999984E-002     5.4797006503771396E-017
  -7.4899999999999994E-002     1.2899370786018154E-016
  -7.3799999999999991E-002     1.1908262828391817E-016
  -7.2699999999999987E-002    -7.2284878511285732E-017
  -7.1599999999999997E-002    -4.0842639638335760E-016
  -7.0499999999999993E-002    -6.0974174927869162E-016
  -6.9399999999999989E-002    -2.5646116822852923E-016
  -6.8300000000000000E-002     8.0847759568206069E-016
  -6.7199999999999996E-002     2.0039145700207232E-015
  -6.6099999999999992E-002     2.0110656456779176E-015
  -6.5000000000000002E-002    -3.0093468606367548E-016
  -6.3899999999999985E-002    -4.3477557437523323E-015
  -6.2799999999999995E-002    -7.0547663170257222E-015
  -6.1699999999999991E-002    -4.3821757745969581E-015
  -6.0599999999999994E-002     4.8570597142773980E-015
  -5.9499999999999990E-002     1.5623146629476989E-014
  -5.8399999999999994E-002     1.7897516490215405E-014
  -5.7299999999999990E-002     4.2370548902932997E-015
  -5.6199999999999986E-002    -2.0813700155747350E-014
  -5.5099999999999996E-002    -3.8792787612849239E-014
  -5.3999999999999992E-002    -2.9320377506122930E-014
  -5.2899999999999989E-002     9.5842616544441865E-015
  -5.1799999999999985E-002     5.1049300149510340E-014
  -5.0699999999999995E-002     5.5594123190639069E-014
  -4.9599999999999991E-002     9.2295767721768153E-015
  -4.8499999999999988E-002    -4.9481740319740064E-014
  -4.7399999999999998E-002    -5.1229047317181281E-014
  -4.6299999999999994E-002     3.2716796665496067E-014
  -4.5199999999999990E-002     1.2818285116070888E-013
  -4.4099999999999986E-002     8.7076186376395387E-014
  -4.2999999999999997E-002    -1.7016870226295444E-013
  -4.1899999999999993E-002    -4.9843045272709996E-013
  -4.0799999999999989E-002    -5.3553065844716419E-013
  -3.9699999999999985E-002     2.9334766901830886E-014
  -3.8599999999999995E-002     1.0655494498898466E-012
  -3.7499999999999992E-002     1.8434611476214613E-012
  -3.6399999999999988E-002     1.4117136279412357E-012
  -3.5299999999999984E-002    -5.8613541537716474E-013
  -3.4199999999999994E-002    -3.2474431130302683E-012
  -3.3099999999999991E-002    -4.6191076137624965E-012
  -3.1999999999999987E-002    -2.9687571845293803E-012
  -3.0899999999999997E-002     1.6265842839313649E-012
  -2.9799999999999993E-002     6.6979802780531283E-012
  -2.8699999999999989E-002     8.6619444256141875E-012
  -2.7599999999999986E-002     5.3863601946757544E-012
  -2.6499999999999996E-002    -1.8499401229638002E-012
  -2.5399999999999992E-002    -8.8295482036926387E-012
  -2.4299999999999988E-002    -1.1339352200268049E-011
  -2.3199999999999985E-002    -8.3729082694938839E-012
  -2.2099999999999995E-002    -2.7266858475955003E-012
  -2.0999999999999991E-002     1.8888866165633900E-012
  -1.9899999999999987E-002     4.7741298761505568E-012
  -1.8799999999999983E-002     9.0927543272556477E-012
  -1.7699999999999994E-002     1.7739431451557763E-011
  -1.6599999999999990E-002     2.7258128046381280E-011
  -1.5499999999999986E-002     2.6293103111418858E-011
  -1.4399999999999996E-002     2.9088246568387266E-012
  -1.3299999999999992E-002    -4.2403965755388739E-011
  -1.2199999999999989E-002    -8.8484525262444436E-011
  -1.1099999999999985E-002    -1.0030435509955637E-010
  -9.9999999999999950E-003    -5.1199839506965716E-011
  -8.8999999999999913E-003     5.2621653562345827E-011
  -7.7999999999999875E-003     1.6457521456736401E-010
  -6.6999999999999837E-003     2.1792709303802837E-010
  -5.5999999999999939E-003     1.6520261547636750E-010
  -4.4999999999999901E-003     1.2026744183879501E-011
  -3.3999999999999864E-003    -1.7880519287416519E-010
  -2.2999999999999826E-003    -3.1820804324844687E-010
  -1.1999999999999927E-003    -3.3754957162734911E-010
  -9.9999999999988987E-005    -2.2138126054560558E-010
   1.0000000000000148E-003    -7.9323613649817659E-012
   2.1000000000000185E-003     2.3600901788434214E-010
   3.2000000000000084E-003     4.4191847403673989E-010
   4.3000000000000121E-003     5.4932330906254379E-010
   5.4000000000000159E-003     5.0269732820851232E-010
   6.5000000000000058E-003     2.5834095973564786E-010
   7.6000000000000234E-003    -1.8183680949857006E-010
   8.7000000000000133E-003    -7.2307387855019556E-010
   9.8000000000000032E-003    -1.1606743344216852E-009
   1.0900000000000021E-002    -1.2359238077408463E-009
   1.2000000000000011E-002    -7.6555728423244318E-010
   1.3100000000000001E-002     2.1512075454310775E-010
   1.4200000000000018E-002     1.3895656847395799E-009
   1.5300000000000008E-002     2.2461426052444722E-009
   1.6400000000000026E-002     2.3008936977930716E-009
   1.7500000000000016E-002     1.3552898803226299E-009
   1.8600000000000005E-002    -3.5197489367533308E-010
   1.9700000000000023E-002    -2.1972339503406602E-009
   2.0800000000000013E-002    -3.4204012955285634E-009
   2.1900000000000003E-002    -3.4544584970319647E-009
   2.3000000000000020E-002    -2.1759714030622490E-009
   2.4100000000000010E-002     3.8345264463668371E-011
   2.5200000000000000E-002     2.4595228076407238E-009
   2.6300000000000018E-002     4.2714147774347566E-009
   2.7400000000000008E-002     4.8318899992239039E-009
   2.8500000000000025E-002     3.8483203290695656E-009
   2.9600000000000015E-002     1.4541257087330450E-009
   3.0700000000000005E-002    -1.7893024839565896E-009
   3.1800000000000023E-002    -4.9604622631704842E-009
   3.2900000000000013E-002    -6.9536363334066209E-009
   3.4000000000000002E-002    -6.8006444919888054E-009
   3.5100000000000020E-002    -4.0936440903749372E-009
   3.6200000000000010E-002     6.6199146164791500E-010
   3.7300000000000028E-002     6.0013962688287847E-009
   3.8400000000000017E-002     9.9102175354914834E-009
   3.9500000000000007E-002     1.0607676514950981E-008
   4.0600000000000025E-002     7.3699535363402902E-009
   4.1700000000000015E-002     9.7079455585458163E-010
   4.2800000000000005E-002    -6.5227379053567347E-009
   4.3900000000000022E-002    -1.2525605441737753E-008
   4.5000000000000012E-002    -1.4905145562238431E-008
   4.6100000000000002E-002    -1.2697253026772160E-008
   4.7200000000000020E-002    -6.3122085336431155E-009
   4.8300000000000010E-002     2.7187037066056519E-009
   4.9400000000000027E-002     1.2206256450042474E-008
   5.0500000000000017E-002     1.9755743707605689E-008
   5.1600000000000007E-002     2.3168976071019642E-008
   5.2700000000000025E-002     2.0887480189912822E-008
   5.3800000000000014E-002     1.2506927937749879E-008
   5.4900000000000004E-002    -8.1535322937753563E-010
   5.6000000000000022E-002    -1.6384040790740073E-008
   5.7100000000000012E-002    -3.0636485348622955E-008
   5.8200000000000002E-002    -4.0319982019809686E-008
   5.9300000000000019E-002    -4.3664606153015484E-008
   6.0400000000000009E-002    -4.0951533719635336E-008
   6.1500000000000027E-002    -3.4188694542081066E-008
   6.2600000000000017E-002    -2.6141387721168030E-008
   6.3700000000000007E-002    -1.9355670843879125E-008
   6.4800000000000024E-002    -1.5761411731318731E-008
   6.5900000000000014E-002    -1.6962404814080401E-008
   6.7000000000000004E-002    -2.4750926641559090E-008
   6.8100000000000022E-002    -4.1160166830422895E-008
   6.9200000000000012E-002    -6.7703624040404975E-008
   7.0300000000000029E-002    -1.0415084261694574E-007
   7.1400000000000019E-002    -1.4775089596241742E-007
   7.2500000000000009E-002    -1.9376987836494663E-007
   7.3600000000000027E-002    -2.3747753630232182E-007
   7.4700000000000016E-002    -2.7672456326399697E-007
   7.5800000000000006E-002    -3.1367935093840060E-007
   7.6900000000000024E-002    -3.5461570746520010E-007
   7.8000000000000014E-002    -4.0774915532892919E-007
   7.9100000000000004E-002    -4.8032762833827292E-007
   8.0200000000000021E-002    -5.7666483144203085E-007
   8.1300000000000011E-002    -6.9818105430385913E-007
   8.2400000000000029E-002    -8.4517108689396991E-007
   8.3500000000000019E-002    -1.0188783789999434E-006
   8.4600000000000009E-002    -1.2223414387335652E-006
   8.5700000000000026E-002    -1.4594871799999964E-006
   8.6800000000000016E-002    -1.7333509276795667E-006
   8.7900000000000006E-002    -2.0450474949029740E-006
   8.9000000000000024E-002    -2.3946076908032410E-006
   9.0100000000000013E-002    -2.7833827971335268E-006
   9.1200000000000003E-002    -3.2164543881663121E-006
   9.2300000000000021E-002    -3.7033212265669135E-006
   9.3400000000000011E-002    -4.2562269300105982E-006
   9.4500000000000028E-002    -4.8870715545490384E-006
   9.5600000000000018E-002    -5.6047670113912318E-006
   9.6700000000000008E-002    -6.4144765019591432E-006
   9.7800000000000026E-002    -7.3188289206882473E-006
   9.8900000000000016E-002    -8.3198601714684628E-006
  0.10000000000000001         -9.4200859166448936E-006
  0.10110000000000002         -1.0621990440995432E-005
  0.10220000000000001         -1.1926538718398660E-005
  0.10330000000000003         -1.3332125490705948E-005
  0.10440000000000002         -1.4835030924587045E-005
  0.10550000000000001         -1.6431189578725025E-005
  0.10660000000000003         -1.8117874788003974E-005
  0.10770000000000002         -1.9893654098268598E-005
  0.10880000000000001         -2.1755926354671828E-005
  0.10990000000000003         -2.3697009964962490E-005
  0.11100000000000002         -2.5700799596961588E-005
  0.11210000000000001         -2.7741947633330710E-005
  0.11320000000000002         -2.9788106985506602E-005
  0.11430000000000001         -3.1803923775441945E-005
  0.11540000000000003         -3.3754397009033710E-005
  0.11650000000000002         -3.5605578887043521E-005
  0.11760000000000001         -3.7322301068343222E-005
  0.11870000000000003         -3.8864462112542242E-005
  0.11980000000000002         -4.0184186218539253E-005
  0.12090000000000001         -4.1225535824196413E-005
  0.12200000000000003         -4.1926905396394432E-005
  0.12310000000000001         -4.2224564822390676E-005
  0.12420000000000003         -4.2055460653500631E-005
  0.12530000000000002         -4.1358274756930768E-005
  0.12640000000000001         -4.0073162381304428E-005
  0.12750000000000003         -3.8141384720802307E-005
  0.12860000000000002         -3.5505869163898751E-005
  0.12970000000000001         -3.2113006454892457E-005
  0.13080000000000003         -2.7915208193007857E-005
  0.13190000000000002         -2.2873478883411735E-005
  0.13300000000000001         -1.6959531421889551E-005
  0.13410000000000000         -1.0157354154216591E-005
  0.13520000000000004         -2.4641426534799393E-006
  0.13630000000000003          6.1093987824278884E-006
  0.13740000000000002          1.5539166270173155E-005
  0.13850000000000001          2.5787705453694798E-005
  0.13960000000000000          3.6803212424274534E-005
  0.14070000000000005          4.8517063987674192E-005
  0.14180000000000004          6.0840422520413995E-005
  0.14290000000000003          7.3661380156408995E-005
  0.14400000000000002          8.6844374891370535E-005
  0.14510000000000001          1.0023247159551829E-004
  0.14620000000000000          1.1365180398570374E-004
  0.14730000000000004          1.2691646406892687E-004
  0.14840000000000003          1.3983197277411819E-004
  0.14950000000000002          1.5219679335132241E-004
  0.15060000000000001          1.6380302258767188E-004
  0.15170000000000000          1.7443766409996897E-004
  0.15280000000000005          1.8388558237347752E-004
  0.15390000000000004          1.9193452317267656E-004
  0.15500000000000003          1.9838089065160602E-004
  0.15610000000000002          2.0303482597228140E-004
  0.15720000000000001          2.0572388893924654E-004
  0.15830000000000000          2.0629544451367110E-004
  0.15940000000000004          2.0461907843127847E-004
  0.16050000000000003          2.0059058442711830E-004
  0.16160000000000002          1.9413782865740359E-004
  0.16270000000000001          1.8522709433455020E-004
  0.16380000000000000          1.7386750550940633E-004
  0.16490000000000005          1.6011175466701388E-004
  0.16600000000000004          1.4405303227249533E-004
  0.16710000000000003          1.2582000636029989E-004
  0.16820000000000002          1.0557315545156598E-004
  0.16930000000000001          8.3504266513045877E-005
  0.17040000000000000          5.9839021560037509E-005
  0.17150000000000004          3.4839064028346911E-005
  0.17260000000000003          8.8004699136945419E-006
  0.17370000000000002         -1.7952137568499893E-005
  0.17480000000000001         -4.5074706576997414E-005
  0.17590000000000000         -7.2212766099255532E-005
  0.17700000000000005         -9.9008415418211371E-005
  0.17810000000000004         -1.2510539090726525E-004
  0.17920000000000003         -1.5015389362815768E-004
  0.18030000000000002         -1.7381650104653090E-004
  0.18140000000000001         -1.9577521015889943E-004
  0.18250000000000000         -2.1573837148025632E-004
  0.18360000000000004         -2.3344556393567473E-004
  0.18470000000000003         -2.4866993771865964E-004
  0.18580000000000002         -2.6121927658095956E-004
  0.18690000000000001         -2.7093809330835938E-004
  0.18800000000000000         -2.7771206805482507E-004
  0.18910000000000005         -2.8147344710305333E-004
  0.19020000000000004         -2.8220584499649704E-004
  0.19130000000000003         -2.7994593256153166E-004
  0.19240000000000002         -2.7478052652440965E-004
  0.19350000000000001         -2.6684004114940763E-004
  0.19460000000000005         -2.5629074661992490E-004
  0.19570000000000004         -2.4332859902642667E-004
  0.19680000000000003         -2.2817651915829629E-004
  0.19790000000000002         -2.1108478540554643E-004
  0.19900000000000001         -1.9233157217968255E-004
  0.20010000000000000         -1.7222014139406383E-004
  0.20120000000000005         -1.5107076615095139E-004
  0.20230000000000004         -1.2920849258080125E-004
  0.20340000000000003         -1.0695085802581161E-004
  0.20450000000000002         -8.4599749243352562E-005
  0.20560000000000000         -6.2439306930173188E-005
  0.20670000000000005         -4.0738177631283179E-005
  0.20780000000000004         -1.9752276784856804E-005
  0.20890000000000003          2.7582615302890190E-007
