 -0.12000000000000000          0.0000000000000000
 -0.11889999999999999          0.0000000000000000
 -0.11780000000000000          0.0000000000000000
 -0.11670000000000000          0.0000000000000000
 -0.11559999999999999          0.0000000000000000
 -0.11449999999999999          0.0000000000000000
 -0.11340000000000000          0.0000000000000000
 -0.11230000000000000          0.0000000000000000
 -0.11119999999999999          0.0000000000000000
 -0.11009999999999999          0.0000000000000000
 -0.10900000000000000          0.0000000000000000
 -0.10790000000000000         -9.0349596066913388E-031
 -0.10679999999999999         -7.7201368256920755E-030
 -0.10569999999999999         -7.5091858068381421E-030
 -0.10460000000000000          1.5283262814521089E-028
 -0.10349999999999999          6.8515559624683536E-028
 -0.10239999999999999          5.1536970495078847E-029
 -0.10130000000000000         -8.3910217745705497E-027
 -0.10020000000000000         -2.7360934836859171E-026
  -9.9099999999999994E-002    -7.7932624236393280E-027
  -9.7999999999999990E-002     1.9410045832479436E-025
  -9.6899999999999986E-002     6.0221749972946509E-025
  -9.5799999999999996E-002     3.9866969250755047E-025
  -9.4699999999999993E-002    -2.4623474713284717E-024
  -9.3599999999999989E-002    -8.4310022005084030E-024
  -9.2499999999999999E-002    -8.6320804786665233E-024
  -9.1399999999999995E-002     1.8584901861568463E-023
  -9.0299999999999991E-002     8.2287210672420018E-023
  -8.9200000000000002E-002     1.1400131863936446E-022
  -8.8099999999999984E-002    -6.6032504528400366E-023
  -8.6999999999999994E-002    -5.8036292324363205E-022
  -8.5899999999999990E-002    -1.0468646169228924E-021
  -8.4799999999999986E-002    -2.7147094312742198E-022
  -8.3699999999999997E-002     2.9067613420737478E-021
  -8.2599999999999993E-002     7.0511953107510144E-021
  -8.1499999999999989E-002     5.8033949723019061E-021
  -8.0399999999999999E-002    -9.0516306480146436E-021
  -7.9299999999999995E-002    -3.5354048347337324E-020
  -7.8199999999999992E-002    -4.6326815661529177E-020
  -7.7100000000000002E-002     3.1551693749680689E-021
  -7.5999999999999984E-002     1.2850676038544925E-019
  -7.4899999999999994E-002     2.4441543079474519E-019
  -7.3799999999999991E-002     1.5497703112563484E-019
  -7.2699999999999987E-002    -2.9479494355046976E-019
  -7.1599999999999997E-002    -9.2882497981384999E-019
  -7.0499999999999993E-002    -1.0756771456949564E-018
  -6.9399999999999989E-002     7.4031740707655390E-020
  -6.8300000000000000E-002     2.4957186793824762E-018
  -6.7199999999999996E-002     4.4254142092071667E-018
  -6.6099999999999992E-002     2.8372675513650624E-018
  -6.5000000000000002E-002    -3.9161211740097989E-018
  -6.3899999999999985E-002    -1.2643162013755572E-017
  -6.2799999999999995E-002    -1.4719141332982968E-017
  -6.1699999999999991E-002    -1.7069996905664798E-018
  -6.0599999999999994E-002     2.4384642565907915E-017
  -5.9499999999999990E-002     4.4852257367854672E-017
  -5.8399999999999994E-002     3.2740496859118479E-017
  -5.7299999999999990E-002    -2.2782284531551843E-017
  -5.6199999999999986E-002    -9.2840720397367396E-017
  -5.5099999999999996E-002    -1.1369164738644878E-016
  -5.3999999999999992E-002    -3.3503627222480301E-017
  -5.2899999999999989E-002     1.2462460603912545E-016
  -5.1799999999999985E-002     2.4369169656241743E-016
  -5.0699999999999995E-002     1.8491207018083187E-016
  -4.9599999999999991E-002    -7.6854885959518700E-017
  -4.8499999999999988E-002    -3.6882244449219673E-016
  -4.7399999999999998E-002    -4.0759736288623245E-016
  -4.6299999999999994E-002    -5.1628984167032105E-017
  -4.5199999999999990E-002     4.7626296225812916E-016
  -4.4099999999999986E-002     6.6061227168973916E-016
  -4.2999999999999997E-002     1.3117252806342581E-016
  -4.1899999999999993E-002    -8.3616763212339580E-016
  -4.0799999999999989E-002    -1.2890270211093294E-015
  -3.9699999999999985E-002    -3.2491371234441189E-016
  -3.8599999999999995E-002     1.8341971194782208E-015
  -3.7499999999999992E-002     3.4277871187505691E-015
  -3.6399999999999988E-002     2.2127653662428479E-015
  -3.5299999999999984E-002    -2.3744789907085076E-015
  -3.4199999999999994E-002    -7.6708142265967220E-015
  -3.3099999999999991E-002    -8.7665157183741509E-015
  -3.1999999999999987E-002    -2.2283778775266392E-015
  -3.0899999999999997E-002     9.8794323077715761E-015
  -2.9799999999999993E-002     1.9452238688637095E-014
  -2.8699999999999989E-002     1.7198736331587236E-014
  -2.7599999999999986E-002     3.9671365125850473E-016
  -2.6499999999999996E-002    -2.2533475194271013E-014
  -2.5399999999999992E-002    -3.5752505150215066E-014
  -2.4299999999999988E-002    -2.7091169748066218E-014
  -2.3199999999999985E-002     1.3363367758287975E-015
  -2.2099999999999995E-002     3.2343824341897476E-014
  -2.0999999999999991E-002     4.5330015105036689E-014
  -1.9899999999999987E-002     3.2315103148721977E-014
  -1.8799999999999983E-002     4.7782437220518590E-015
  -1.7699999999999994E-002    -1.6212266514621827E-014
  -1.6599999999999990E-002    -1.9613479880476424E-014
  -1.5499999999999986E-002    -1.5975105759720096E-014
  -1.4399999999999996E-002    -2.7360661750564647E-014
  -1.3299999999999992E-002    -6.0768949009144813E-014
  -1.2199999999999989E-002    -8.8768490442373699E-014
  -1.1099999999999985E-002    -6.1201952251781211E-014
  -9.9999999999999950E-003     5.1586227558511263E-014
  -8.8999999999999913E-003     2.1451606766961784E-013
  -7.7999999999999875E-003     3.2454654198474375E-013
  -6.6999999999999837E-003     2.6686094198140331E-013
  -5.5999999999999939E-003     2.5441026323521016E-015
  -4.4999999999999901E-003    -3.7419202393758344E-013
  -3.3999999999999864E-003    -6.6169568739213314E-013
  -2.2999999999999826E-003    -6.5886722076455295E-013
  -1.1999999999999927E-003    -2.9380108914310588E-013
  -9.9999999999988987E-005     3.1125696096055699E-013
   1.0000000000000148E-003     8.8662763112271059E-013
   2.1000000000000185E-003     1.1496084032641685E-012
   3.2000000000000084E-003     9.4634564941353805E-013
   4.3000000000000121E-003     3.2054808568778015E-013
   5.4000000000000159E-003    -5.1828148977389743E-013
   6.5000000000000058E-003    -1.2897419677387889E-012
   7.6000000000000234E-003    -1.7356267248067048E-012
   8.7000000000000133E-003    -1.6720553977847552E-012
   9.8000000000000032E-003    -1.0125689349493872E-012
   1.0900000000000021E-002     1.9819238752331186E-013
   1.2000000000000011E-002     1.7250474052682430E-012
   1.3100000000000001E-002     3.1014242823229621E-012
   1.4200000000000018E-002     3.6925263194320657E-012
   1.5300000000000008E-002     2.9197800861108236E-012
   1.6400000000000026E-002     6.0111301786874849E-013
   1.7500000000000016E-002    -2.7598964780217727E-012
   1.8600000000000005E-002    -5.9530744049574036E-012
   1.9700000000000023E-002    -7.4385211532024265E-012
   2.0800000000000013E-002    -6.0401770390905440E-012
   2.1900000000000003E-002    -1.6491166071608276E-012
   2.3000000000000020E-002     4.4613379830693578E-012
   2.4100000000000010E-002     9.9679943119101999E-012
   2.5200000000000000E-002     1.2411459880679043E-011
   2.6300000000000018E-002     1.0291168091314251E-011
   2.7400000000000008E-002     3.8107342802129462E-012
   2.8500000000000025E-002    -5.0892914014999402E-012
   2.9600000000000015E-002    -1.3406487725520222E-011
   3.0700000000000005E-002    -1.8122203390702474E-011
   3.1800000000000023E-002    -1.7183626049854794E-011
   3.2900000000000013E-002    -1.0139939235487283E-011
   3.4000000000000002E-002     1.6249428018422218E-012
   3.5100000000000020E-002     1.5025708108296065E-011
   3.6200000000000010E-002     2.5812223886090280E-011
   3.7300000000000028E-002     2.9619865588026428E-011
   3.8400000000000017E-002     2.3498697779289479E-011
   3.9500000000000007E-002     7.4982233963516443E-012
   4.0600000000000025E-002    -1.4482707567931019E-011
   4.1700000000000015E-002    -3.5336903542182441E-011
   4.2800000000000005E-002    -4.7034369454745928E-011
   4.3900000000000022E-002    -4.3794322335255487E-011
   4.5000000000000012E-002    -2.4733251904884845E-011
   4.6100000000000002E-002     5.3291264630328516E-012
   4.7200000000000020E-002     3.7364816102281040E-011
   4.8300000000000010E-002     6.1259324002360671E-011
   4.9400000000000027E-002     6.9162751914486620E-011
   5.0500000000000017E-002     5.7754561549883121E-011
   5.1600000000000007E-002     2.8845774727170870E-011
   5.2700000000000025E-002    -1.1413211521704714E-011
   5.3800000000000014E-002    -5.4037930380390620E-011
   5.4900000000000004E-002    -8.8910948048415150E-011
   5.6000000000000022E-002    -1.0659623878028768E-010
   5.7100000000000012E-002    -1.0040279024847720E-010
   5.8200000000000002E-002    -6.8560331023537202E-011
   5.9300000000000019E-002    -1.5769961725364823E-011
   6.0400000000000009E-002     4.7015873833045063E-011
   6.1500000000000027E-002     1.0542634126808892E-010
   6.2600000000000017E-002     1.4683190774356092E-010
   6.3700000000000007E-002     1.6607749897534774E-010
   6.4800000000000024E-002     1.6913276335017713E-010
   6.5900000000000014E-002     1.7244992933651559E-010
   6.7000000000000004E-002     1.9769280656944943E-010
   6.8100000000000022E-002     2.6393043306427444E-010
   6.9200000000000012E-002     3.8095460119791369E-010
   7.0300000000000029E-002     5.4699611506947576E-010
   7.1400000000000019E-002     7.5184924952509391E-010
   7.2500000000000009E-002     9.8358587941049791E-010
   7.3600000000000027E-002     1.2354071099451858E-009
   7.4700000000000016E-002     1.5097068040148542E-009
   7.5800000000000006E-002     1.8185843941864732E-009
   7.6900000000000024E-002     2.1821933149368533E-009
   7.8000000000000014E-002     2.6269502129139255E-009
   7.9100000000000004E-002     3.1845670545038729E-009
   8.0200000000000021E-002     3.8912659761081159E-009
   8.1300000000000011E-002     4.7859267660044225E-009
   8.2400000000000029E-002     5.9069011904000490E-009
   8.3500000000000019E-002     7.2889383417873432E-009
   8.4600000000000009E-002     8.9625702415219166E-009
   8.5700000000000026E-002     1.0957478480122518E-008
   8.6800000000000016E-002     1.3309271906791764E-008
   8.7900000000000006E-002     1.6067165375943659E-008
   8.9000000000000024E-002     1.9299571718534025E-008
   9.0100000000000013E-002     2.3095887868862519E-008
   9.1200000000000003E-002     2.7564622584463905E-008
   9.2300000000000021E-002     3.2829650109533759E-008
   9.3400000000000011E-002     3.9026595288760291E-008
   9.4500000000000028E-002     4.6300808520527426E-008
   9.5600000000000018E-002     5.4807145488666720E-008
   9.6700000000000008E-002     6.4711045411058876E-008
   9.7800000000000026E-002     7.6190147524357599E-008
   9.8900000000000016E-002     8.9435950201277592E-008
  0.10000000000000001          1.0465570454698536E-007
  0.10110000000000002          1.2207492261495645E-007
  0.10220000000000001          1.4194063169270521E-007
  0.10330000000000003          1.6452409568046278E-007
  0.10440000000000002          1.9012128404938267E-007
  0.10550000000000001          2.1904905622704973E-007
  0.10660000000000003          2.5163714667542081E-007
  0.10770000000000002          2.8821841624449007E-007
  0.10880000000000001          3.2912066671997309E-007
  0.10990000000000003          3.7466338653757703E-007
  0.11100000000000002          4.2515887344052317E-007
  0.11210000000000001          4.8091408189065987E-007
  0.11320000000000002          5.4222886092247791E-007
  0.11430000000000001          6.0938782553421333E-007
  0.11540000000000003          6.8264751007518498E-007
  0.11650000000000002          7.6222136158321518E-007
  0.11760000000000001          8.4826615420752205E-007
  0.11870000000000003          9.4086999524733983E-007
  0.11980000000000002          1.0400412975286599E-006
  0.12090000000000001          1.1456984339019982E-006
  0.12200000000000003          1.2576600738611887E-006
  0.12310000000000001          1.3756359749095282E-006
  0.12420000000000003          1.4992182286732714E-006
  0.12530000000000002          1.6278703469652100E-006
  0.12640000000000001          1.7609160067877383E-006
  0.12750000000000003          1.8975255215991638E-006
  0.12860000000000002          2.0367060642456636E-006
  0.12970000000000001          2.1772962099930737E-006
  0.13080000000000003          2.3179659365268890E-006
  0.13190000000000002          2.4572207166784210E-006
  0.13300000000000001          2.5934059522114694E-006
  0.13410000000000000          2.7247122034168569E-006
  0.13520000000000004          2.8491845114331227E-006
  0.13630000000000003          2.9647360406670487E-006
  0.13740000000000002          3.0691667234350462E-006
  0.13850000000000001          3.1601855425833492E-006
  0.13960000000000000          3.2354362247133395E-006
  0.14070000000000005          3.2925236155278981E-006
  0.14180000000000004          3.3290464216406690E-006
  0.14290000000000003          3.3426367735955864E-006
  0.14400000000000002          3.3310070648440160E-006
  0.14510000000000001          3.2920002013270278E-006
  0.14620000000000000          3.2236405331786955E-006
  0.14730000000000004          3.1241818305716151E-006
  0.14840000000000003          2.9921532131993445E-006
  0.14950000000000002          2.8264003049116582E-006
  0.15060000000000001          2.6261197945132153E-006
  0.15170000000000000          2.3908919501991477E-006
  0.15280000000000005          2.1207113150012447E-006
  0.15390000000000004          1.8160212675866205E-006
  0.15500000000000003          1.4777534715904039E-006
  0.15610000000000002          1.1073632322222693E-006
  0.15720000000000001          7.0685160835637362E-007
  0.15830000000000000          2.7876612307409232E-007
  0.15940000000000004         -1.7382070893745549E-007
  0.16050000000000003         -6.4734626903373282E-007
  0.16160000000000002         -1.1377957207514555E-006
  0.16270000000000001         -1.6407381053795689E-006
  0.16380000000000000         -2.1513651518034749E-006
  0.16490000000000005         -2.6645386697055073E-006
  0.16600000000000004         -3.1748536457598675E-006
  0.16710000000000003         -3.6767125948244939E-006
  0.16820000000000002         -4.1644070734037086E-006
  0.16930000000000001         -4.6321993067977019E-006
  0.17040000000000000         -5.0744101827149279E-006
  0.17150000000000004         -5.4855090638739057E-006
  0.17260000000000003         -5.8602090575732291E-006
  0.17370000000000002         -6.1935616031405516E-006
  0.17480000000000001         -6.4810474214027636E-006
  0.17590000000000000         -6.7186551859776955E-006
  0.17700000000000005         -6.9029556470923126E-006
  0.17810000000000004         -7.0311634772224352E-006
  0.17920000000000003         -7.1011954787536524E-006
  0.18030000000000002         -7.1117074185167439E-006
  0.18140000000000001         -7.0621194936393294E-006
  0.18250000000000000         -6.9526267907349393E-006
  0.18360000000000004         -6.7842006501450669E-006
  0.18470000000000003         -6.5585813899815548E-006
  0.18580000000000002         -6.2782669374428224E-006
  0.18690000000000001         -5.9464782680151984E-006
  0.18800000000000000         -5.5671121117484290E-006
  0.18910000000000005         -5.1446650104480796E-006
  0.19020000000000004         -4.6841523726470768E-006
  0.19130000000000003         -4.1910266190825496E-006
  0.19240000000000002         -3.6710891890834318E-006
  0.19350000000000001         -3.1303979994845577E-006
  0.19460000000000005         -2.5751712655619485E-006
  0.19570000000000004         -2.0116865471209167E-006
  0.19680000000000003         -1.4461865021075937E-006
  0.19790000000000002         -8.8479271198593779E-007
  0.19900000000000001         -3.3342305982841935E-007
  0.20010000000000000          2.0229344954714179E-007
  0.20120000000000005          7.1710621796228224E-007
  0.20230000000000004          1.2062271252943901E-006
  0.20340000000000003          1.6653953025524970E-006
  0.20450000000000002          2.0909180875605671E-006
  0.20560000000000000          2.4796900106593966E-006
  0.20670000000000005          2.8292033675825223E-006
  0.20780000000000004          3.1375541311717825E-006
  0.20890000000000003          3.4034446798614226E-006
