 -0.12000000000000000          0.0000000000000000
 -0.11889999999999999          0.0000000000000000
 -0.11780000000000000          0.0000000000000000
 -0.11670000000000000          9.2626528669370600E-010
 -0.11559999999999999          2.8624518311204383E-009
 -0.11449999999999999          1.7142001151881914E-009
 -0.11340000000000000         -8.2524769240421847E-009
 -0.11230000000000000         -2.4499346551465351E-008
 -0.11119999999999999         -3.1229379970909577E-008
 -0.11009999999999999         -1.1428565649396205E-008
 -0.10900000000000000          3.3013431988138109E-008
 -0.10790000000000000          7.7948406840278039E-008
 -0.10679999999999999          9.8384049351807334E-008
 -0.10569999999999999          8.8532722486434068E-008
 -0.10460000000000000          5.1359965169694988E-008
 -0.10349999999999999         -2.7998149576546894E-008
 -0.10239999999999999         -1.7451139910917846E-007
 -0.10130000000000000         -3.6528402347357769E-007
 -0.10020000000000000         -4.8666487373338896E-007
  -9.9099999999999994E-002    -3.9143498042903957E-007
  -9.7999999999999990E-002    -3.8245694611305225E-008
  -9.6899999999999986E-002     4.3201407606829889E-007
  -9.5799999999999996E-002     8.0425752457813360E-007
  -9.4699999999999993E-002     9.9737724212900503E-007
  -9.3599999999999989E-002     1.1169751132911188E-006
  -9.2499999999999999E-002     1.2148061614425387E-006
  -9.1399999999999995E-002     9.8177895324624842E-007
  -9.0299999999999991E-002    -1.7986117484269926E-007
  -8.9200000000000002E-002    -2.5393078431079630E-006
  -8.8099999999999984E-002    -5.3321164159569889E-006
  -8.6999999999999994E-002    -6.7551077336247545E-006
  -8.5899999999999990E-002    -4.9988252612820361E-006
  -8.4799999999999986E-002     3.0015061724952830E-007
  -8.3699999999999997E-002     7.3598757808213122E-006
  -8.2599999999999993E-002     1.2989927199669182E-005
  -8.1499999999999989E-002     1.4282291886047460E-005
  -8.0399999999999999E-002     1.0040794222732075E-005
  -7.9299999999999995E-002     1.1399050663385424E-006
  -7.8199999999999992E-002    -9.9488233900046907E-006
  -7.7100000000000002E-002    -1.9734779925784096E-005
  -7.5999999999999984E-002    -2.4248476620414294E-005
  -7.4899999999999994E-002    -2.0192355805193074E-005
  -7.3799999999999991E-002    -7.0233727456070483E-006
  -7.2699999999999987E-002     1.1224375157325994E-005
  -7.1599999999999997E-002     2.6594721930450760E-005
  -7.0499999999999993E-002     3.1321054848376662E-005
  -6.9399999999999989E-002     2.3246931959874928E-005
  -6.8300000000000000E-002     8.2127171481261030E-006
  -6.7199999999999996E-002    -3.4613276511663571E-006
  -6.6099999999999992E-002    -4.5622923607879784E-006
  -6.5000000000000002E-002     3.2061457204690669E-006
  -6.3899999999999985E-002     1.0346679118811153E-005
  -6.2799999999999995E-002     7.3189239628845826E-006
  -6.1699999999999991E-002    -7.0970359047350939E-006
  -6.0599999999999994E-002    -2.3652157324249856E-005
  -5.9499999999999990E-002    -2.8538259357446805E-005
  -5.8399999999999994E-002    -1.2770567082043272E-005
  -5.7299999999999990E-002     2.1856918465346098E-005
  -5.6199999999999986E-002     6.3794184825383127E-005
  -5.5099999999999996E-002     9.7882861155085266E-005
  -5.3999999999999992E-002     1.1217276914976537E-004
  -5.2899999999999989E-002     1.0243024735245854E-004
  -5.1799999999999985E-002     7.3969284130726010E-005
  -5.0699999999999995E-002     4.0973758586915210E-005
  -4.9599999999999991E-002     2.2347101548803039E-005
  -4.8499999999999988E-002     3.3581494790269062E-005
  -4.7399999999999998E-002     7.7696771768387407E-005
  -4.6299999999999994E-002     1.4172610826790333E-004
  -4.5199999999999990E-002     2.0349114493001252E-004
  -4.4099999999999986E-002     2.4582940386608243E-004
  -4.2999999999999997E-002     2.6809639530256391E-004
  -4.1899999999999993E-002     2.8540019411593676E-004
  -4.0799999999999989E-002     3.1576442415826023E-004
  -3.9699999999999985E-002     3.6616102443076670E-004
  -3.8599999999999995E-002     4.2964069871231914E-004
  -3.7499999999999992E-002     4.9562146887183189E-004
  -3.6399999999999988E-002     5.6284945458173752E-004
  -3.5299999999999984E-002     6.4201216446235776E-004
  -3.4199999999999994E-002     7.4534176383167505E-004
  -3.3099999999999991E-002     8.7379990145564079E-004
  -3.1999999999999987E-002     1.0153061011806130E-003
  -3.0899999999999997E-002     1.1564303422346711E-003
  -2.9799999999999993E-002     1.2960390886291862E-003
  -2.8699999999999989E-002     1.4468231238424778E-003
  -2.7599999999999986E-002     1.6224818537011743E-003
  -2.6499999999999996E-002     1.8230332061648369E-003
  -2.5399999999999992E-002     2.0331584382802248E-003
  -2.4299999999999988E-002     2.2356964182108641E-003
  -2.3199999999999985E-002     2.4273367598652840E-003
  -2.2099999999999995E-002     2.6210979558527470E-003
  -2.0999999999999991E-002     2.8335917741060257E-003
  -1.9899999999999987E-002     3.0695730820298195E-003
  -1.8799999999999983E-002     3.3186168875545263E-003
  -1.7699999999999994E-002     3.5651286598294973E-003
  -1.6599999999999990E-002     3.7993448786437511E-003
  -1.5499999999999986E-002     4.0169921703636646E-003
  -1.4399999999999996E-002     4.2093587107956409E-003
  -1.3299999999999992E-002     4.3573444709181786E-003
  -1.2199999999999989E-002     4.4392435811460018E-003
  -1.1099999999999985E-002     4.4471356086432934E-003
  -9.9999999999999950E-003     4.3936362490057945E-003
  -8.8999999999999913E-003     4.2984089814126492E-003
  -7.7999999999999875E-003     4.1637411341071129E-003
  -6.6999999999999837E-003     3.9606285281479359E-003
  -5.5999999999999939E-003     3.6402221303433180E-003
  -4.4999999999999901E-003     3.1612629536539316E-003
  -3.3999999999999864E-003     2.5101969949901104E-003
  -2.2999999999999826E-003     1.6969604184851050E-003
  -1.1999999999999927E-003     7.3270668508484960E-004
  -9.9999999999988987E-005    -3.8876954931765795E-004
   1.0000000000000148E-003    -1.6897908644750714E-003
   2.1000000000000185E-003    -3.1917602755129337E-003
   3.2000000000000084E-003    -4.9014566466212273E-003
   4.3000000000000121E-003    -6.8134642206132412E-003
   5.4000000000000159E-003    -8.9228963479399681E-003
   6.5000000000000058E-003    -1.1231160722672939E-002
   7.6000000000000234E-003    -1.3738879933953285E-002
   8.7000000000000133E-003    -1.6431905329227448E-002
   9.8000000000000032E-003    -1.9278878346085548E-002
   1.0900000000000021E-002    -2.2242594510316849E-002
   1.2000000000000011E-002    -2.5294877588748932E-002
   1.3100000000000001E-002    -2.8417030349373817E-002
   1.4200000000000018E-002    -3.1584199517965317E-002
   1.5300000000000008E-002    -3.4748412668704987E-002
   1.6400000000000026E-002    -3.7837002426385880E-002
   1.7500000000000016E-002    -4.0767848491668701E-002
   1.8600000000000005E-002    -4.3465889990329742E-002
   1.9700000000000023E-002    -4.5864690095186234E-002
   2.0800000000000013E-002    -4.7894168645143509E-002
   2.1900000000000003E-002    -4.9471139907836914E-002
   2.3000000000000020E-002    -5.0504948943853378E-002
   2.4100000000000010E-002    -5.0913639366626740E-002
   2.5200000000000000E-002    -5.0632577389478683E-002
   2.6300000000000018E-002    -4.9604199826717377E-002
   2.7400000000000008E-002    -4.7759260982275009E-002
   2.8500000000000025E-002    -4.5011408627033234E-002
   2.9600000000000015E-002    -4.1275031864643097E-002
   3.0700000000000005E-002    -3.6492578685283661E-002
   3.1800000000000023E-002    -3.0648389831185341E-002
   3.2900000000000013E-002    -2.3756705224514008E-002
   3.4000000000000002E-002    -1.5838347375392914E-002
   3.5100000000000020E-002    -6.9120768457651138E-003
   3.6200000000000010E-002     2.9919922817498446E-003
   3.7300000000000028E-002     1.3809473253786564E-002
   3.8400000000000017E-002     2.5432389229536057E-002
   3.9500000000000007E-002     3.7725977599620819E-002
   4.0600000000000025E-002     5.0548274070024490E-002
   4.1700000000000015E-002     6.3750714063644409E-002
   4.2800000000000005E-002     7.7163442969322205E-002
   4.3900000000000022E-002     9.0574689209461212E-002
   4.5000000000000012E-002    0.10373826324939728
   4.6100000000000002E-002    0.11639661341905594
   4.7200000000000020E-002    0.12831175327301025
   4.8300000000000010E-002    0.13926061987876892
   4.9400000000000027E-002    0.14901813864707947
   5.0500000000000017E-002    0.15733371675014496
   5.1600000000000007E-002    0.16394303739070892
   5.2700000000000025E-002    0.16860212385654449
   5.3800000000000014E-002    0.17111390829086304
   5.4900000000000004E-002    0.17133031785488129
   5.6000000000000022E-002    0.16913655400276184
   5.7100000000000012E-002    0.16442967951297760
   5.8200000000000002E-002    0.15713523328304291
   5.9300000000000019E-002    0.14723294973373413
   6.0400000000000009E-002    0.13477467000484467
   6.1500000000000027E-002    0.11987373232841492
   6.2600000000000017E-002    0.10267484188079834
   6.3700000000000007E-002     8.3342477679252625E-002
   6.4800000000000024E-002     6.2075067311525345E-002
   6.5900000000000014E-002     3.9133854210376740E-002
   6.7000000000000004E-002     1.4854362234473228E-002
   6.8100000000000022E-002    -1.0375780984759331E-002
   6.9200000000000012E-002    -3.6154557019472122E-002
   7.0300000000000029E-002    -6.2088608741760254E-002
   7.1400000000000019E-002    -8.7783917784690857E-002
   7.2500000000000009E-002   -0.11282617598772049
   7.3600000000000027E-002   -0.13678105175495148
   7.4700000000000016E-002   -0.15921507775783539
   7.5800000000000006E-002   -0.17973586916923523
   7.6900000000000024E-002   -0.19800139963626862
   7.8000000000000014E-002   -0.21371169388294220
   7.9100000000000004E-002   -0.22659018635749817
   8.0200000000000021E-002   -0.23639011383056641
   8.1300000000000011E-002   -0.24292072653770447
   8.2400000000000029E-002   -0.24607342481613159
   8.3500000000000019E-002   -0.24582175910472870
   8.4600000000000009E-002   -0.24219404160976410
   8.5700000000000026E-002   -0.23525817692279816
   8.6800000000000016E-002   -0.22512538731098175
   8.7900000000000006E-002   -0.21197229623794556
   8.9000000000000024E-002   -0.19606024026870728
   9.0100000000000013E-002   -0.17770883440971375
   9.1200000000000003E-002   -0.15727044641971588
   9.2300000000000021E-002   -0.13510127365589142
   9.3400000000000011E-002   -0.11156946420669556
   9.4500000000000028E-002    -8.7073765695095062E-002
   9.5600000000000018E-002    -6.2046486884355545E-002
   9.6700000000000008E-002    -3.6927733570337296E-002
   9.7800000000000026E-002    -1.2126888148486614E-002
   9.8900000000000016E-002     1.1995247565209866E-002
  0.10000000000000001          3.5110287368297577E-002
  0.10110000000000002          5.6899871677160263E-002
  0.10220000000000001          7.7052086591720581E-002
  0.10330000000000003          9.5290072262287140E-002
  0.10440000000000002         0.11140446364879608
  0.10550000000000001         0.12526060640811920
  0.10660000000000003         0.13677516579627991
  0.10770000000000002         0.14588938653469086
  0.10880000000000001         0.15256552398204803
  0.10990000000000003         0.15681387484073639
  0.11100000000000002         0.15871629118919373
  0.11210000000000001         0.15841728448867798
  0.11320000000000002         0.15608841180801392
  0.11430000000000001         0.15189480781555176
  0.11540000000000003         0.14599607884883881
  0.11650000000000002         0.13857460021972656
  0.11760000000000001         0.12985570728778839
  0.11870000000000003         0.12009485810995102
  0.11980000000000002         0.10954108089208603
  0.12090000000000001          9.8410338163375854E-002
  0.12200000000000003          8.6891993880271912E-002
  0.12310000000000001          7.5171925127506256E-002
  0.12420000000000003          6.3452161848545074E-002
  0.12530000000000002          5.1936507225036621E-002
  0.12640000000000001          4.0795132517814636E-002
  0.12750000000000003          3.0146811157464981E-002
  0.12860000000000002          2.0075324922800064E-002
  0.12970000000000001          1.0661816224455833E-002
  0.13080000000000003          1.9967448897659779E-003
  0.13190000000000002         -5.8378907851874828E-003
  0.13300000000000001         -1.2800797820091248E-002
  0.13410000000000000         -1.8900716677308083E-002
  0.13520000000000004         -2.4172460660338402E-002
  0.13630000000000003         -2.8643017634749413E-002
  0.13740000000000002         -3.2318569719791412E-002
  0.13850000000000001         -3.5204067826271057E-002
  0.13960000000000000         -3.7331365048885345E-002
  0.14070000000000005         -3.8765981793403625E-002
  0.14180000000000004         -3.9584487676620483E-002
  0.14290000000000003         -3.9849884808063507E-002
  0.14400000000000002         -3.9607048034667969E-002
  0.14510000000000001         -3.8903802633285522E-002
  0.14620000000000000         -3.7809319794178009E-002
  0.14730000000000004         -3.6409243941307068E-002
  0.14840000000000003         -3.4779325127601624E-002
  0.14950000000000002         -3.2965462654829025E-002
  0.15060000000000001         -3.0989855527877808E-002
  0.15170000000000000         -2.8877303004264832E-002
  0.15280000000000005         -2.6673477143049240E-002
  0.15390000000000004         -2.4437414482235909E-002
  0.15500000000000003         -2.2217528894543648E-002
  0.15610000000000002         -2.0037366077303886E-002
  0.15720000000000001         -1.7905196174979210E-002
  0.15830000000000000         -1.5835881233215332E-002
  0.15940000000000004         -1.3859120197594166E-002
  0.16050000000000003         -1.2006141245365143E-002
  0.16160000000000002         -1.0289210826158524E-002
  0.16270000000000001         -8.6982203647494316E-003
  0.16380000000000000         -7.2191823273897171E-003
  0.16490000000000005         -5.8548096567392349E-003
  0.16600000000000004         -4.6243509277701378E-003
  0.16710000000000003         -3.5425741225481033E-003
  0.16820000000000002         -2.5999755598604679E-003
  0.16930000000000001         -1.7667907522991300E-003
  0.17040000000000000         -1.0170002933591604E-003
  0.17150000000000004         -3.4824828617274761E-004
  0.17260000000000003          2.2298177646007389E-004
  0.17370000000000002          6.8540853681042790E-004
  0.17480000000000001          1.0502726072445512E-003
  0.17590000000000000          1.3439799658954144E-003
  0.17700000000000005          1.5857523540034890E-003
  0.17810000000000004          1.7748535610735416E-003
  0.17920000000000003          1.9021912012249231E-003
  0.18030000000000002          1.9724934827536345E-003
  0.18140000000000001          2.0115743391215801E-003
  0.18250000000000000          2.0482563413679600E-003
  0.18360000000000004          2.0891856402158737E-003
  0.18470000000000003          2.1134633570909500E-003
  0.18580000000000002          2.0947419106960297E-003
  0.18690000000000001          2.0288208033889532E-003
  0.18800000000000000          1.9391092937439680E-003
  0.18910000000000005          1.8543381011113524E-003
  0.19020000000000004          1.7823217203840613E-003
  0.19130000000000003          1.7066686414182186E-003
  0.19240000000000002          1.6090332064777613E-003
  0.19350000000000001          1.4923894777894020E-003
  0.19460000000000005          1.3798192376270890E-003
  0.19570000000000004          1.2902654707431793E-003
  0.19680000000000003          1.2177167227491736E-003
  0.19790000000000002          1.1367853730916977E-003
  0.19900000000000001          1.0297719854861498E-003
  0.20010000000000000          9.0656586689874530E-004
  0.20120000000000005          7.9613091656938195E-004
  0.20230000000000004          7.1788456989452243E-004
  0.20340000000000003          6.6267675720155239E-004
  0.20450000000000002          6.0327007668092847E-004
  0.20560000000000000          5.2338640671223402E-004
  0.20670000000000005          4.3515092693269253E-004
  0.20780000000000004          3.6721114884130657E-004
  0.20890000000000003          3.3623364288359880E-004
