 -0.12000000000000000          0.0000000000000000
 -0.11889999999999999          0.0000000000000000
 -0.11780000000000000          0.0000000000000000
 -0.11670000000000000          0.0000000000000000
 -0.11559999999999999          0.0000000000000000
 -0.11449999999999999          0.0000000000000000
 -0.11340000000000000          0.0000000000000000
 -0.11230000000000000          0.0000000000000000
 -0.11119999999999999          0.0000000000000000
 -0.11009999999999999          0.0000000000000000
 -0.10900000000000000          0.0000000000000000
 -0.10790000000000000          1.0414404544515757E-027
 -0.10679999999999999         -9.1657740873909584E-027
 -0.10569999999999999          1.9226416270076286E-025
 -0.10460000000000000          8.0179408254688399E-025
 -0.10349999999999999         -2.1969774238252916E-024
 -0.10239999999999999         -3.8190984953806431E-024
 -0.10130000000000000          7.8414067710853136E-023
 -0.10020000000000000          2.4056607392060221E-022
  -9.9099999999999994E-002    -5.6933477400638714E-022
  -9.7999999999999990E-002    -3.7648487423433167E-021
  -9.6899999999999986E-002    -1.3543105455800727E-021
  -9.5799999999999996E-002     3.1771920086456563E-020
  -9.4699999999999993E-002     7.5047434489339546E-020
  -9.3599999999999989E-002    -8.8731095621892148E-020
  -9.2499999999999999E-002    -7.0964372758080061E-019
  -9.1399999999999995E-002    -8.9145295973870420E-019
  -9.0299999999999991E-002     2.4653510179392763E-018
  -8.9200000000000002E-002     1.0196388231603318E-017
  -8.8099999999999984E-002     7.8533147741243862E-018
  -8.6999999999999994E-002    -3.5615141393642363E-017
  -8.5899999999999990E-002    -1.1097967288246712E-016
  -8.4799999999999986E-002    -6.3086213200667338E-017
  -8.3699999999999997E-002     3.5860317727203080E-016
  -8.2599999999999993E-002     9.8894304729227290E-016
  -8.1499999999999989E-002     5.3921238625525983E-016
  -8.0399999999999999E-002    -2.7586711127264296E-015
  -7.9299999999999995E-002    -7.4822003180339235E-015
  -7.8199999999999992E-002    -4.7833614951191695E-015
  -7.7100000000000002E-002     1.6745505942170405E-014
  -7.5999999999999984E-002     4.8737259345475736E-014
  -7.4899999999999994E-002     3.9314526027039998E-014
  -7.3799999999999991E-002    -7.9649896162110878E-014
  -7.2699999999999987E-002    -2.7384889603361551E-013
  -7.1599999999999997E-002    -2.7983534543404853E-013
  -7.0499999999999993E-002     2.7620928547827939E-013
  -6.9399999999999989E-002     1.3201990499076000E-012
  -6.8300000000000000E-002     1.6911660873780709E-012
  -6.7199999999999996E-002    -4.6988097007066854E-013
  -6.6099999999999992E-002    -5.3877054727313745E-012
  -6.5000000000000002E-002    -8.6631500584299914E-012
  -6.3899999999999985E-002    -2.0230063284276678E-012
  -6.2799999999999995E-002     1.8066265497496126E-011
  -6.1699999999999991E-002     3.7637663818923528E-011
  -6.0599999999999994E-002     2.4092509237627624E-011
  -5.9499999999999990E-002    -4.6042662737999507E-011
  -5.8399999999999994E-002    -1.3805381837705966E-010
  -5.7299999999999990E-002    -1.3949040533756119E-010
  -5.6199999999999986E-002     6.3985816645129034E-011
  -5.5099999999999996E-002     4.2038347802808573E-010
  -5.3999999999999992E-002     5.9573218580410980E-010
  -5.2899999999999989E-002     1.3799093812050245E-010
  -5.1799999999999985E-002    -1.0140860373653027E-009
  -5.0699999999999995E-002    -2.0339081530096337E-009
  -4.9599999999999991E-002    -1.4221964717009428E-009
  -4.8499999999999988E-002     1.6566027438713604E-009
  -4.7399999999999998E-002     5.6330278219718366E-009
  -4.6299999999999994E-002     6.3057301602498228E-009
  -4.5199999999999990E-002    -2.0542706424819812E-010
  -4.4099999999999986E-002    -1.2304482766012370E-008
  -4.2999999999999997E-002    -2.0174411474727094E-008
  -4.1899999999999993E-002    -1.0855149668032027E-008
  -4.0799999999999989E-002     1.8748984587091400E-008
  -3.9699999999999985E-002     5.0409525442773884E-008
  -3.8599999999999995E-002     4.9497316467750352E-008
  -3.7499999999999992E-002    -7.3371264619481735E-009
  -3.6399999999999988E-002    -9.7438153545681416E-008
  -3.5299999999999984E-002    -1.4524081848321657E-007
  -3.4199999999999994E-002    -6.9959568804733863E-008
  -3.3099999999999991E-002     1.2935578297401662E-007
  -3.1999999999999987E-002     3.2144151873580995E-007
  -3.0899999999999997E-002     3.0080474289206904E-007
  -2.9799999999999993E-002    -3.9707888532802826E-008
  -2.8699999999999989E-002    -5.3894143547950080E-007
  -2.7599999999999986E-002    -7.8156244853744283E-007
  -2.6499999999999996E-002    -3.8366698618119699E-007
  -2.5399999999999992E-002     6.0042947325200657E-007
  -2.4299999999999988E-002     1.5053342394821811E-006
  -2.3199999999999985E-002     1.4106379921940970E-006
  -2.2099999999999995E-002    -7.3431131397683203E-008
  -2.0999999999999991E-002    -2.1729385935032042E-006
  -1.9899999999999987E-002    -3.1702129490440711E-006
  -1.8799999999999983E-002    -1.6440606032119831E-006
  -1.7699999999999994E-002     2.0389604742376832E-006
  -1.6599999999999990E-002     5.3272365221346263E-006
  -1.5499999999999986E-002     5.0167132030765060E-006
  -1.4399999999999996E-002     1.4420312055563045E-008
  -1.3299999999999992E-002    -6.8285858105809893E-006
  -1.2199999999999989E-002    -9.9114722615922801E-006
  -1.1099999999999985E-002    -5.0954358812305145E-006
  -9.9999999999999950E-003     5.9445815168146510E-006
  -8.8999999999999913E-003     1.5259050996974111E-005
  -7.7999999999999875E-003     1.3822524124407209E-005
  -6.6999999999999837E-003    -5.3817160505786887E-007
  -5.5999999999999939E-003    -1.8929971702164039E-005
  -4.4999999999999901E-003    -2.5979908969020471E-005
  -3.3999999999999864E-003    -1.1792273653554730E-005
  -2.2999999999999826E-003     1.7378433767589740E-005
  -1.1999999999999927E-003     3.9861097320681438E-005
  -9.9999999999988987E-005     3.3463213185314089E-005
   1.0000000000000148E-003    -4.7620674195059109E-006
   2.1000000000000185E-003    -5.0254726374987513E-005
   3.2000000000000084E-003    -6.4873216615524143E-005
   4.3000000000000121E-003    -2.6808034817804582E-005
   5.4000000000000159E-003     4.5653086999664083E-005
   6.5000000000000058E-003     9.9151337053626776E-005
   7.6000000000000234E-003     8.2305879914201796E-005
   8.7000000000000133E-003    -9.2499549282365479E-006
   9.8000000000000032E-003    -1.1697501031449065E-004
   1.0900000000000021E-002    -1.5373567293863744E-004
   1.2000000000000011E-002    -7.1100854256656021E-005
   1.3100000000000001E-002     9.0188448666594923E-005
   1.4200000000000018E-002     2.1370520698837936E-004
   1.5300000000000008E-002     1.8813187489286065E-004
   1.6400000000000026E-002     2.0747390863107285E-006
   1.7500000000000016E-002    -2.2429910313803703E-004
   1.8600000000000005E-002    -3.1149727874435484E-004
   1.9700000000000023E-002    -1.5845053712837398E-004
   2.0800000000000013E-002     1.5624880325049162E-004
   2.1900000000000003E-002     4.0263397386297584E-004
   2.3000000000000020E-002     3.6070236819796264E-004
   2.4100000000000010E-002     7.0240535023913253E-006
   2.5200000000000000E-002    -4.2492410284467041E-004
   2.6300000000000018E-002    -5.8754894416779280E-004
   2.7400000000000008E-002    -2.8718644171021879E-004
   2.8500000000000025E-002     3.2154683140106499E-004
   2.9600000000000015E-002     7.9295091563835740E-004
   3.0700000000000005E-002     7.0247723488137126E-004
   3.1800000000000023E-002     5.0992239266633987E-006
   3.2900000000000013E-002    -8.4943039109930396E-004
   3.4000000000000002E-002    -1.1887464206665754E-003
   3.5100000000000020E-002    -6.2828254885971546E-004
   3.6200000000000010E-002     5.5573793360963464E-004
   3.7300000000000028E-002     1.5247875126078725E-003
   3.8400000000000017E-002     1.4561114367097616E-003
   3.9500000000000007E-002     2.1512972307391465E-004
   4.0600000000000025E-002    -1.4111102791503072E-003
   4.1700000000000015E-002    -2.1886734757572412E-003
   4.2800000000000005E-002    -1.3568730792030692E-003
   4.3900000000000022E-002     6.7849748302251101E-004
   4.5000000000000012E-002     2.4806172586977482E-003
   4.6100000000000002E-002     2.5732375215739012E-003
   4.7200000000000020E-002     6.2375841662287712E-004
   4.8300000000000010E-002    -2.1102719474583864E-003
   4.9400000000000027E-002    -3.5493276081979275E-003
   5.0500000000000017E-002    -2.3425188846886158E-003
   5.1600000000000007E-002     9.3313149409368634E-004
   5.2700000000000025E-002     3.9480468258261681E-003
   5.3800000000000014E-002     4.2358916252851486E-003
   5.4900000000000004E-002     1.1602080194279552E-003
   5.6000000000000022E-002    -3.3035711385309696E-003
   5.7100000000000012E-002    -5.7757664471864700E-003
   5.8200000000000002E-002    -3.9864652790129185E-003
   5.9300000000000019E-002     1.2402872089296579E-003
   6.0400000000000009E-002     6.2056849710643291E-003
   6.1500000000000027E-002     6.8969102576375008E-003
   6.2600000000000017E-002     2.1627256646752357E-003
   6.3700000000000007E-002    -4.9607232213020325E-003
   6.4800000000000024E-002    -9.0972194448113441E-003
   6.5900000000000014E-002    -6.5104421228170395E-003
   6.7000000000000004E-002     1.6785759944468737E-003
   6.8100000000000022E-002     9.7173973917961121E-003
   6.9200000000000012E-002     1.1179058812558651E-002
   7.0300000000000029E-002     3.9903814904391766E-003
   7.1400000000000019E-002    -7.3400069959461689E-003
   7.2500000000000009E-002    -1.4440297149121761E-002
   7.3600000000000027E-002    -1.1217630468308926E-002
   7.4700000000000016E-002     1.0303811868652701E-003
   7.5800000000000006E-002     1.3739033602178097E-002
   7.6900000000000024E-002     1.6996551305055618E-002
   7.8000000000000014E-002     7.2648264467716217E-003
   7.9100000000000004E-002    -9.0389251708984375E-003
   8.0200000000000021E-002    -1.9481588155031204E-002
   8.1300000000000011E-002    -1.4870541170239449E-002
   8.2400000000000029E-002     2.9098510276526213E-003
   8.3500000000000019E-002     2.0943596959114075E-002
   8.4600000000000009E-002     2.4203265085816383E-002
   8.5700000000000026E-002     7.3829749599099159E-003
   8.6800000000000016E-002    -1.9407255575060844E-002
   8.7900000000000006E-002    -3.6425858736038208E-002
   8.9000000000000024E-002    -2.8496250510215759E-002
   9.0100000000000013E-002     2.4736963678151369E-003
   9.1200000000000003E-002     3.6668974906206131E-002
   9.2300000000000021E-002     4.9316495656967163E-002
   9.3400000000000011E-002     2.8983673080801964E-002
   9.4500000000000028E-002    -1.2316287495195866E-002
   9.5600000000000018E-002    -4.5902572572231293E-002
   9.6700000000000008E-002    -4.6651780605316162E-002
   9.7800000000000026E-002    -1.2491574510931969E-002
   9.8900000000000016E-002     3.1891360878944397E-002
  0.10000000000000001          5.1519732922315598E-002
  0.10110000000000002          2.7070505544543266E-002
  0.10220000000000001         -2.8687288984656334E-002
  0.10330000000000003         -7.7391274273395538E-002
  0.10440000000000002         -8.1574641168117523E-002
  0.10550000000000001         -3.2648123800754547E-002
  0.10660000000000003          4.0801648050546646E-002
  0.10770000000000002          9.2222869396209717E-002
  0.10880000000000001          9.1196261346340179E-002
  0.10990000000000003          4.7411195933818817E-002
  0.11100000000000002          5.3789969533681870E-003
  0.11210000000000001          1.1801919899880886E-002
  0.11320000000000002          7.8754477202892303E-002
  0.11430000000000001         0.17089052498340607
  0.11540000000000003         0.22861710190773010
  0.11650000000000002         0.21246352791786194
  0.11760000000000001         0.13645607233047485
  0.11870000000000003          6.4266167581081390E-002
  0.11980000000000002          6.8308897316455841E-002
  0.12090000000000001         0.18002374470233917
  0.12200000000000003         0.36791115999221802
  0.12310000000000001         0.56089293956756592
  0.12420000000000003         0.70119547843933105
  0.12530000000000002         0.78790873289108276
  0.12640000000000001         0.87802386283874512
  0.12750000000000003          1.0431824922561646
  0.12860000000000002          1.3147122859954834
  0.12970000000000001          1.6602294445037842
  0.13080000000000003          2.0124201774597168
  0.13190000000000002          2.3303768634796143
  0.13300000000000001          2.6465761661529541
  0.13410000000000000          3.0603535175323486
  0.13520000000000004          3.6780893802642822
  0.13630000000000003          4.5423307418823242
  0.13740000000000002          5.6040806770324707
  0.13850000000000001          6.7631182670593262
  0.13960000000000000          7.9503355026245117
  0.14070000000000005          9.1923398971557617
  0.14180000000000004          10.607995033264160
  0.14290000000000003          12.336794853210449
  0.14400000000000002          14.451040267944336
  0.14510000000000001          16.918840408325195
  0.14620000000000000          19.649154663085938
  0.14730000000000004          22.587392807006836
  0.14840000000000003          25.787498474121094
  0.14950000000000002          29.401348114013672
  0.15060000000000001          33.585994720458984
  0.15170000000000000          38.395969390869141
  0.15280000000000005          43.745075225830078
  0.15390000000000004          49.474308013916016
  0.15500000000000003          55.484722137451172
  0.15610000000000002          61.836673736572266
  0.15720000000000001          68.734878540039062
  0.15830000000000000          76.400489807128906
  0.15940000000000004          84.911743164062500
  0.16050000000000003          94.128921508789062
  0.16160000000000002          103.76423645019531
  0.16270000000000001          113.55055999755859
  0.16380000000000000          123.39555358886719
  0.16490000000000005          133.40290832519531
  0.16600000000000004          143.74569702148438
  0.16710000000000003          154.47773742675781
  0.16820000000000002          165.41549682617188
  0.16930000000000001          176.18132019042969
  0.17040000000000000          186.37651062011719
  0.17150000000000004          195.75411987304688
  0.17260000000000003          204.26599121093750
  0.17370000000000002          211.94514465332031
  0.17480000000000001          218.71174621582031
  0.17590000000000000          224.24333190917969
  0.17700000000000005          228.01365661621094
  0.17810000000000004          229.47514343261719
  0.17920000000000003          228.26107788085938
  0.18030000000000002          224.24655151367188
  0.18140000000000001          217.44557189941406
  0.18250000000000000          207.81124877929688
  0.18360000000000004          195.08169555664062
  0.18470000000000003          178.81083679199219
  0.18580000000000002          158.54635620117188
  0.18690000000000001          134.04335021972656
  0.18800000000000000          105.33728790283203
  0.18910000000000005          72.656990051269531
  0.19020000000000004          36.216197967529297
  0.19130000000000003         -3.9318094253540039
  0.19240000000000002         -47.886878967285156
  0.19350000000000001         -95.722038269042969
  0.19460000000000005         -147.26794433593750
  0.19570000000000004         -202.02661132812500
  0.19680000000000003         -259.24972534179688
  0.19790000000000002         -318.15005493164062
  0.19900000000000001         -378.07162475585938
  0.20010000000000000         -438.50051879882812
  0.20120000000000005         -498.91525268554688
  0.20230000000000004         -558.60668945312500
  0.20340000000000003         -616.61944580078125
  0.20450000000000002         -671.85296630859375
  0.20560000000000000         -723.26171875000000
  0.20670000000000005         -769.99841308593750
  0.20780000000000004         -811.39025878906250
  0.20890000000000003         -846.78625488281250
