 -0.12000000000000000          0.0000000000000000
 -0.11889999999999999          0.0000000000000000
 -0.11780000000000000          0.0000000000000000
 -0.11670000000000000          0.0000000000000000
 -0.11559999999999999          0.0000000000000000
 -0.11449999999999999          0.0000000000000000
 -0.11340000000000000          0.0000000000000000
 -0.11230000000000000          0.0000000000000000
 -0.11119999999999999         -2.2169909605762167E-026
 -0.11009999999999999          2.4219577929811559E-025
 -0.10900000000000000          1.3426449091678487E-024
 -0.10790000000000000         -2.8739319015382348E-024
 -0.10679999999999999         -2.6363982310254075E-023
 -0.10569999999999999         -1.2453098667060022E-023
 -0.10460000000000000          2.5934868799084622E-022
 -0.10349999999999999          6.3898313924528199E-022
 -0.10239999999999999         -8.2790838406974837E-022
 -0.10130000000000000         -6.5515277336710516E-021
 -0.10020000000000000         -8.7236139532525877E-021
  -9.9099999999999994E-002     2.0749588174584017E-020
  -9.7999999999999990E-002     9.3188435900816565E-020
  -9.6899999999999986E-002     9.3011929775264527E-020
  -9.5799999999999996E-002    -2.4776853665469960E-019
  -9.4699999999999993E-002    -9.3672693280799250E-019
  -9.3599999999999989E-002    -9.0530658063774231E-019
  -9.2499999999999999E-002     1.8684028940005831E-018
  -9.1399999999999995E-002     7.2430597956715524E-018
  -9.0299999999999991E-002     7.9092785056472739E-018
  -8.9200000000000002E-002    -9.1311127787136389E-018
  -8.8099999999999984E-002    -4.4276480104513661E-017
  -8.6999999999999994E-002    -5.8129594769016886E-017
  -8.5899999999999990E-002     2.2009856658104925E-017
  -8.4799999999999986E-002     2.1404394198685101E-016
  -8.3699999999999997E-002     3.4764392089331984E-016
  -8.2599999999999993E-002     7.0317300384152798E-017
  -8.1499999999999989E-002    -7.9748157277948297E-016
  -8.0399999999999999E-002    -1.6748976447913543E-015
  -7.9299999999999995E-002    -1.0969681236709292E-015
  -7.8199999999999992E-002     2.0918166846714591E-015
  -7.7100000000000002E-002     6.4493173307237153E-015
  -7.5999999999999984E-002     6.8318005637705518E-015
  -7.4899999999999994E-002    -2.3555096878547475E-015
  -7.3799999999999991E-002    -1.9386354771933761E-014
  -7.2699999999999987E-002    -2.9337623096929027E-014
  -7.1599999999999997E-002    -1.0649072701668198E-014
  -7.0499999999999993E-002     4.2204199255388777E-014
  -6.9399999999999989E-002     9.5066790268931445E-014
  -6.8300000000000000E-002     8.0407597626615951E-014
  -6.7199999999999996E-002    -4.7089339805933550E-014
  -6.6099999999999992E-002    -2.3367844660150683E-013
  -6.5000000000000002E-002    -3.0753687357137904E-013
  -6.3899999999999985E-002    -8.8577189745302209E-014
  -6.2799999999999995E-002     4.0509322242129886E-013
  -6.1699999999999991E-002     8.2766589805730040E-013
  -6.0599999999999994E-002     6.6105861019558065E-013
  -5.9499999999999990E-002    -3.2532234284926576E-013
  -5.8399999999999994E-002    -1.6287216800942028E-012
  -5.7299999999999990E-002    -2.0882668424343498E-012
  -5.6199999999999986E-002    -7.1932856806483647E-013
  -5.5099999999999996E-002     2.1501812916963070E-012
  -5.3999999999999992E-002     4.4865669339422265E-012
  -5.2899999999999989E-002     3.7172209754743335E-012
  -5.1799999999999985E-002    -9.5175158986576802E-013
  -5.0699999999999995E-002    -6.8860212670829313E-012
  -4.9599999999999991E-002    -9.0389024390291617E-012
  -4.8499999999999988E-002    -3.8124178293463817E-012
  -4.7399999999999998E-002     6.8670468617026970E-012
  -4.6299999999999994E-002     1.5209574918961799E-011
  -4.5199999999999990E-002     1.2767206562791511E-011
  -4.4099999999999986E-002    -1.8085895194669410E-012
  -4.2999999999999997E-002    -1.9069801293625233E-011
  -4.1899999999999993E-002    -2.4116965369191945E-011
  -4.0799999999999989E-002    -8.8598833131170451E-012
  -3.9699999999999985E-002     1.8334106802186945E-011
  -3.8599999999999995E-002     3.5629676292669998E-011
  -3.7499999999999992E-002     2.4305906246024911E-011
  -3.6399999999999988E-002    -1.2825687560613641E-011
  -3.5299999999999984E-002    -4.8041702560563948E-011
  -3.4199999999999994E-002    -4.7698515276417552E-011
  -3.3099999999999991E-002    -1.8638298369955120E-012
  -3.1999999999999987E-002     6.0130088408438809E-011
  -3.0899999999999997E-002     8.6091078710381908E-011
  -2.9799999999999993E-002     4.2181386855633107E-011
  -2.8699999999999989E-002    -5.2409080547599629E-011
  -2.7599999999999986E-002    -1.2967957263576579E-010
  -2.6499999999999996E-002    -1.2040649033373541E-010
  -2.5399999999999992E-002    -1.2355971280852973E-011
  -2.4299999999999988E-002     1.2875907284826127E-010
  -2.3199999999999985E-002     1.9948891150090020E-010
  -2.2099999999999995E-002     1.3576495483391682E-010
  -2.0999999999999991E-002    -3.1550217299836092E-011
  -1.9899999999999987E-002    -1.9045599819467185E-010
  -1.8799999999999983E-002    -2.2704033098008836E-010
  -1.7699999999999994E-002    -1.1262649840526606E-010
  -1.6599999999999990E-002     6.9976767436141785E-011
  -1.5499999999999986E-002     1.8627496767287255E-010
  -1.4399999999999996E-002     1.5396546537704836E-010
  -1.3299999999999992E-002     1.0776103967491402E-011
  -1.2199999999999989E-002    -1.1085571349767065E-010
  -1.1099999999999985E-002    -8.9609521192191011E-011
  -9.9999999999999950E-003     7.6289558004205560E-011
  -8.8999999999999913E-003     2.4625010364154321E-010
  -7.7999999999999875E-003     2.3153505501749549E-010
  -6.6999999999999837E-003    -4.9599237911257532E-011
  -5.5999999999999939E-003    -4.6883885662651892E-010
  -4.4999999999999901E-003    -7.3018840973659849E-010
  -3.3999999999999864E-003    -5.5772236828843802E-010
  -2.2999999999999826E-003     8.2823865821257669E-011
  -1.1999999999999927E-003     8.9055784968650187E-010
  -9.9999999999988987E-005     1.3644942953305872E-009
   1.0000000000000148E-003     1.1160566915080494E-009
   2.1000000000000185E-003     1.6254808610227656E-010
   3.2000000000000084E-003    -1.0190447374824885E-009
   4.3000000000000121E-003    -1.7560668474914110E-009
   5.4000000000000159E-003    -1.6105939915078693E-009
   6.5000000000000058E-003    -6.7672528691886669E-010
   7.6000000000000234E-003     4.8622711412704689E-010
   8.7000000000000133E-003     1.2525182002676161E-009
   9.8000000000000032E-003     1.3621263006413642E-009
   1.0900000000000021E-002     1.0426566277033089E-009
   1.2000000000000011E-002     7.1966105297249783E-010
   1.3100000000000001E-002     5.6662707859089778E-010
   1.4200000000000018E-002     3.0997732158866143E-010
   1.5300000000000008E-002    -4.8995457690992339E-010
   1.6400000000000026E-002    -1.8838497428674827E-009
   1.7500000000000016E-002    -3.2043772080214694E-009
   1.8600000000000005E-002    -3.3495828333229838E-009
   1.9700000000000023E-002    -1.5826924215645022E-009
   2.0800000000000013E-002     1.7241863492500897E-009
   2.1900000000000003E-002     5.0330766221406975E-009
   2.3000000000000020E-002     6.4424026113840682E-009
   2.4100000000000010E-002     4.8726089829642660E-009
   2.5200000000000000E-002     8.2512413568380794E-010
   2.6300000000000018E-002    -3.8364018628556096E-009
   2.7400000000000008E-002    -6.9590950779740979E-009
   2.8500000000000025E-002    -7.3123280763809362E-009
   2.9600000000000015E-002    -5.1437267778453588E-009
   3.0700000000000005E-002    -1.7652735939677200E-009
   3.1800000000000023E-002     1.4656370561638710E-009
   3.2900000000000013E-002     4.0060532668917403E-009
   3.4000000000000002E-002     6.2077734064303058E-009
   3.5100000000000020E-002     8.5733935506482339E-009
   3.6200000000000010E-002     1.0763671731695013E-008
   3.7300000000000028E-002     1.1181797709980401E-008
   3.8400000000000017E-002     7.6424848671763357E-009
   3.9500000000000007E-002    -1.1049565706855446E-009
   4.0600000000000025E-002    -1.3945102850243529E-008
   4.1700000000000015E-002    -2.7175644845556235E-008
   4.2800000000000005E-002    -3.5999477177028893E-008
   4.3900000000000022E-002    -3.7100324590255696E-008
   4.5000000000000012E-002    -3.0766784675506642E-008
   4.6100000000000002E-002    -2.1090126978151602E-008
   4.7200000000000020E-002    -1.3923761699174975E-008
   4.8300000000000010E-002    -1.3835729006927977E-008
   4.9400000000000027E-002    -2.2058467052943342E-008
   5.0500000000000017E-002    -3.6753831977875961E-008
   5.1600000000000007E-002    -5.5192053594055324E-008
   5.2700000000000025E-002    -7.6012426575289282E-008
   5.3800000000000014E-002    -9.9775448347827478E-008
   5.4900000000000004E-002    -1.2754476585996599E-007
   5.6000000000000022E-002    -1.5899836114385835E-007
   5.7100000000000012E-002    -1.9204719592380570E-007
   5.8200000000000002E-002    -2.2467119720204209E-007
   5.9300000000000019E-002    -2.5770103206923523E-007
   6.0400000000000009E-002    -2.9626812647620682E-007
   6.1500000000000027E-002    -3.4850941688091552E-007
   6.2600000000000017E-002    -4.2217141071887454E-007
   6.3700000000000007E-002    -5.2134799943814869E-007
   6.4800000000000024E-002    -6.4547270994808059E-007
   6.5900000000000014E-002    -7.9105257100309245E-007
   6.7000000000000004E-002    -9.5482516826450592E-007
   6.8100000000000022E-002    -1.1363644034645404E-006
   6.9200000000000012E-002    -1.3389052355705644E-006
   7.0300000000000029E-002    -1.5684900063206442E-006
   7.1400000000000019E-002    -1.8324249140277971E-006
   7.2500000000000009E-002    -2.1380519683589227E-006
   7.3600000000000027E-002    -2.4923026558099082E-006
   7.4700000000000016E-002    -2.9018947316217236E-006
   7.5800000000000006E-002    -3.3736891964508686E-006
   7.6900000000000024E-002    -3.9146689232438803E-006
   7.8000000000000014E-002    -4.5312672227737494E-006
   7.9100000000000004E-002    -5.2283362492744345E-006
   8.0200000000000021E-002    -6.0086276789661497E-006
   8.1300000000000011E-002    -6.8736908360733651E-006
   8.2400000000000029E-002    -7.8261764429043978E-006
   8.3500000000000019E-002    -8.8721035353955813E-006
   8.4600000000000009E-002    -1.0021028174378444E-005
   8.5700000000000026E-002    -1.1283181265753228E-005
   8.6800000000000016E-002    -1.2665017493418418E-005
   8.7900000000000006E-002    -1.4166390428727027E-005
   8.9000000000000024E-002    -1.5781804904690944E-005
   9.0100000000000013E-002    -1.7505086361779831E-005
   9.1200000000000003E-002    -1.9333689124323428E-005
   9.2300000000000021E-002    -2.1268666387186386E-005
   9.3400000000000011E-002    -2.3309588868869469E-005
   9.4500000000000028E-002    -2.5448003725614399E-005
   9.5600000000000018E-002    -2.7664473236654885E-005
   9.6700000000000008E-002    -2.9931441531516612E-005
   9.7800000000000026E-002    -3.2219453714787960E-005
   9.8900000000000016E-002    -3.4501445043133572E-005
  0.10000000000000001         -3.6751567677129060E-005
  0.10110000000000002         -3.8939644582569599E-005
  0.10220000000000001         -4.1026087274076417E-005
  0.10330000000000003         -4.2961542931152508E-005
  0.10440000000000002         -4.4691318180412054E-005
  0.10550000000000001         -4.6161010686773807E-005
  0.10660000000000003         -4.7319474106188864E-005
  0.10770000000000002         -4.8117402911884710E-005
  0.10880000000000001         -4.8503494326723740E-005
  0.10990000000000003         -4.8421261453768238E-005
  0.11100000000000002         -4.7808051022002473E-005
  0.11210000000000001         -4.6596578613389283E-005
  0.11320000000000002         -4.4718482968164608E-005
  0.11430000000000001         -4.2109269998036325E-005
  0.11540000000000003         -3.8713420508429408E-005
  0.11650000000000002         -3.4488082746975124E-005
  0.11760000000000001         -2.9403974622255191E-005
  0.11870000000000003         -2.3443610189133324E-005
  0.11980000000000002         -1.6599196897004731E-005
  0.12090000000000001         -8.8727147158351727E-006
  0.12200000000000003         -2.7879090680471563E-007
  0.12310000000000001          9.1519141278695315E-006
  0.12420000000000003          1.9372464521438815E-005
  0.12530000000000002          3.0322822567541152E-005
  0.12640000000000001          4.1932318708859384E-005
  0.12750000000000003          5.4117848776513711E-005
  0.12860000000000002          6.6776919993571937E-005
  0.12970000000000001          7.9779791121836752E-005
  0.13080000000000003          9.2968257376924157E-005
  0.13190000000000002          1.0616404324537143E-004
  0.13300000000000001          1.1918193922610953E-004
  0.13410000000000000          1.3183915871195495E-004
  0.13520000000000004          1.4395592734217644E-004
  0.13630000000000003          1.5534920385107398E-004
  0.13740000000000002          1.6582768876105547E-004
  0.13850000000000001          1.7519455286674201E-004
  0.13960000000000000          1.8325699784327298E-004
  0.14070000000000005          1.8983565678354353E-004
  0.14180000000000004          1.9476813031360507E-004
  0.14290000000000003          1.9790740043390542E-004
  0.14400000000000002          1.9912094285245985E-004
  0.14510000000000001          1.9829579105135053E-004
  0.14620000000000000          1.9534821331035346E-004
  0.14730000000000004          1.9023138156626374E-004
  0.14840000000000003          1.8293671018909663E-004
  0.14950000000000002          1.7349005793221295E-004
  0.15060000000000001          1.6194766794797033E-004
  0.15170000000000000          1.4839544019196182E-004
  0.15280000000000005          1.3295070675667375E-004
  0.15390000000000004          1.1576268298085779E-004
  0.15500000000000003          9.7009055025409907E-005
  0.15610000000000002          7.6891941716894507E-005
  0.15720000000000001          5.5635817261645570E-005
  0.15830000000000000          3.3487405744381249E-005
  0.15940000000000004          1.0714215932239313E-005
  0.16050000000000003         -1.2402732863847632E-005
  0.16160000000000002         -3.5579931136453524E-005
  0.16270000000000001         -5.8540572354104370E-005
  0.16380000000000000         -8.1016587500926107E-005
  0.16490000000000005         -1.0274581291014329E-004
  0.16600000000000004         -1.2347250594757497E-004
  0.16710000000000003         -1.4295634173322469E-004
  0.16820000000000002         -1.6098665946628898E-004
  0.16930000000000001         -1.7739212489686906E-004
  0.17040000000000000         -1.9203890406060964E-004
  0.17150000000000004         -2.0482091349549592E-004
  0.17260000000000003         -2.1565373754128814E-004
  0.17370000000000002         -2.2447887749876827E-004
  0.17480000000000001         -2.3127479653339833E-004
  0.17590000000000000         -2.3606389004271477E-004
  0.17700000000000005         -2.3890669399406761E-004
  0.17810000000000004         -2.3988734756130725E-004
  0.17920000000000003         -2.3910253366921097E-004
  0.18030000000000002         -2.3666246852371842E-004
  0.18140000000000001         -2.3269974917639047E-004
  0.18250000000000000         -2.2737320978194475E-004
  0.18360000000000004         -2.2085852106101811E-004
  0.18470000000000003         -2.1333013137336820E-004
  0.18580000000000002         -2.0494738419074565E-004
  0.18690000000000001         -1.9585339759942144E-004
  0.18800000000000000         -1.8618202011566609E-004
  0.18910000000000005         -1.7606173059903085E-004
  0.19020000000000004         -1.6560965741518885E-004
  0.19130000000000003         -1.5491974772885442E-004
  0.19240000000000002         -1.4405707770492882E-004
  0.19350000000000001         -1.3306261098477989E-004
  0.19460000000000005         -1.2196299212519079E-004
  0.19570000000000004         -1.1077420640503988E-004
  0.19680000000000003         -9.9495409813243896E-005
  0.19790000000000002         -8.8100860011763871E-005
  0.19900000000000001         -7.6541604357771575E-005
  0.20010000000000000         -6.4758503867778927E-005
  0.20120000000000005         -5.2694816986331716E-005
  0.20230000000000004         -4.0299059037351981E-005
  0.20340000000000003         -2.7518728529685177E-005
  0.20450000000000002         -1.4295892469817773E-005
  0.20560000000000000         -5.7546395737517742E-007
  0.20670000000000005          1.3677098650077824E-005
  0.20780000000000004          2.8461518013500609E-005
  0.20890000000000003          4.3744250433519483E-005
