 -0.12000000000000000          0.0000000000000000
 -0.11889999999999999          0.0000000000000000
 -0.11780000000000000          0.0000000000000000
 -0.11670000000000000         -1.7021779818993110E-010
 -0.11559999999999999          1.4496304157063378E-009
 -0.11449999999999999          7.3777002285169146E-009
 -0.11340000000000000          9.3987528870798087E-009
 -0.11230000000000000         -1.3149084487906748E-008
 -0.11119999999999999         -5.8946007186477800E-008
 -0.11009999999999999         -6.3935949867754971E-008
 -0.10900000000000000          5.6102450685102667E-008
 -0.10790000000000000          2.5817590199039842E-007
 -0.10679999999999999          2.8653110462073528E-007
 -0.10569999999999999         -1.2471207355702063E-007
 -0.10460000000000000         -8.2352886465741904E-007
 -0.10349999999999999         -1.0762174724732176E-006
 -0.10239999999999999         -1.3473680837705615E-007
 -0.10130000000000000          1.7444805280319997E-006
 -0.10020000000000000          2.9375200938375201E-006
  -9.9099999999999994E-002     1.6335164900738164E-006
  -9.7999999999999990E-002    -2.0888357994408580E-006
  -9.6899999999999986E-002    -5.4086835916677956E-006
  -9.5799999999999996E-002    -4.7307530621765181E-006
  -9.4699999999999993E-002     6.5208939759031637E-007
  -9.3599999999999989E-002     6.7724599830398802E-006
  -9.2499999999999999E-002     7.7598833740921691E-006
  -9.1399999999999995E-002     1.5329306961575639E-006
  -9.0299999999999991E-002    -7.0207506723818369E-006
  -8.9200000000000002E-002    -9.5445211627520621E-006
  -8.8099999999999984E-002    -2.2696492578688776E-006
  -8.6999999999999994E-002     9.0135235950583592E-006
  -8.5899999999999990E-002     1.3095762369630393E-005
  -8.4799999999999986E-002     4.0474160414305516E-006
  -8.3699999999999997E-002    -1.1639990589173976E-005
  -8.2599999999999993E-002    -1.9642826373456046E-005
  -8.1499999999999989E-002    -1.1203625945199747E-005
  -8.0399999999999999E-002     7.3841802077367902E-006
  -7.9299999999999995E-002     1.9625300410552882E-005
  -7.8199999999999992E-002     1.4652495337941218E-005
  -7.7100000000000002E-002    -1.3712450481762062E-006
  -7.5999999999999984E-002    -1.0803598343045451E-005
  -7.4899999999999994E-002    -2.8765216484316625E-006
  -7.3799999999999991E-002     1.3532623597711790E-005
  -7.2699999999999987E-002     1.7236894564121030E-005
  -7.1599999999999997E-002    -3.2622947401250713E-006
  -7.0499999999999993E-002    -3.5014385503018275E-005
  -6.9399999999999989E-002    -4.9846028559841216E-005
  -6.8300000000000000E-002    -3.0733564926777035E-005
  -6.7199999999999996E-002     1.0269145604979713E-005
  -6.6099999999999992E-002     4.1632807551650330E-005
  -6.5000000000000002E-002     4.1484825487714261E-005
  -6.3899999999999985E-002     1.7627276974963024E-005
  -6.2799999999999995E-002    -2.1041046238678973E-006
  -6.1699999999999991E-002     4.3265549720672425E-007
  -6.0599999999999994E-002     1.4839852156001143E-005
  -5.9499999999999990E-002     1.4505892977467738E-005
  -5.8399999999999994E-002    -1.2606573363882490E-005
  -5.7299999999999990E-002    -4.8139903810806572E-005
  -5.6199999999999986E-002    -6.0994141676928848E-005
  -5.5099999999999996E-002    -4.0632487070979550E-005
  -5.3999999999999992E-002    -9.4048909886623733E-006
  -5.2899999999999989E-002     1.6802184745756676E-006
  -5.1799999999999985E-002    -1.1197978892596439E-005
  -5.0699999999999995E-002    -1.8012073269346729E-005
  -4.9599999999999991E-002     1.1046507097489666E-005
  -4.8499999999999988E-002     6.5259599068667740E-005
  -4.7399999999999998E-002     9.3649527116212994E-005
  -4.6299999999999994E-002     5.3161813411861658E-005
  -4.5199999999999990E-002    -4.1221810533897951E-005
  -4.4099999999999986E-002    -1.1967387399636209E-004
  -4.2999999999999997E-002    -1.1863747931784019E-004
  -4.1899999999999993E-002    -4.2608553485479206E-005
  -4.0799999999999989E-002     3.7642890674760565E-005
  -3.9699999999999985E-002     5.3427851526066661E-005
  -3.8599999999999995E-002     6.1838213696319144E-006
  -3.7499999999999992E-002    -3.5725537600228563E-005
  -3.6399999999999988E-002    -1.1152025763294660E-005
  -3.5299999999999984E-002     6.5240186813753098E-005
  -3.4199999999999994E-002     1.1509883916005492E-004
  -3.3099999999999991E-002     8.1574777141213417E-005
  -3.1999999999999987E-002    -1.1056969242417836E-006
  -3.0899999999999997E-002    -3.2613115763524547E-005
  -2.9799999999999993E-002     5.1994145906064659E-005
  -2.8699999999999989E-002     2.0851884619332850E-004
  -2.7599999999999986E-002     3.2108117011375725E-004
  -2.6499999999999996E-002     3.2106137950904667E-004
  -2.5399999999999992E-002     2.6547734159976244E-004
  -2.4299999999999988E-002     2.8555598692037165E-004
  -2.3199999999999985E-002     4.4930668082088232E-004
  -2.2099999999999995E-002     6.7930953809991479E-004
  -2.0999999999999991E-002     8.2068191841244698E-004
  -1.9899999999999987E-002     8.0039736349135637E-004
  -1.8799999999999983E-002     7.1554532041773200E-004
  -1.7699999999999994E-002     7.4886262882500887E-004
  -1.6599999999999990E-002     9.8598306067287922E-004
  -1.5499999999999986E-002     1.3192950282245874E-003
  -1.4399999999999996E-002     1.5472066588699818E-003
  -1.3299999999999992E-002     1.5779889654368162E-003
  -1.2199999999999989E-002     1.5300663653761148E-003
  -1.1099999999999985E-002     1.6155298799276352E-003
  -9.9999999999999950E-003     1.9144058460369706E-003
  -8.8999999999999913E-003     2.2721635177731514E-003
  -7.7999999999999875E-003     2.4389084428548813E-003
  -6.6999999999999837E-003     2.3202081210911274E-003
  -5.5999999999999939E-003     2.0846396218985319E-003
  -4.4999999999999901E-003     2.0025251433253288E-003
  -3.3999999999999864E-003     2.1674258168786764E-003
  -2.2999999999999826E-003     2.3812514264136553E-003
  -1.1999999999999927E-003     2.3332985583692789E-003
  -9.9999999999988987E-005     1.9022928318008780E-003
   1.0000000000000148E-003     1.2757304357364774E-003
   2.1000000000000185E-003     7.5534387724474072E-004
   3.2000000000000084E-003     4.3725760770030320E-004
   4.3000000000000121E-003     9.3012138677295297E-005
   5.4000000000000159E-003    -6.1394670046865940E-004
   6.5000000000000058E-003    -1.7897747457027435E-003
   7.6000000000000234E-003    -3.1963791698217392E-003
   8.7000000000000133E-003    -4.4916118495166302E-003
   9.8000000000000032E-003    -5.5863130837678909E-003
   1.0900000000000021E-002    -6.7515107803046703E-003
   1.2000000000000011E-002    -8.3490479737520218E-003
   1.3100000000000001E-002    -1.0454219765961170E-002
   1.4200000000000018E-002    -1.2754295021295547E-002
   1.5300000000000008E-002    -1.4843617565929890E-002
   1.6400000000000026E-002    -1.6621652990579605E-002
   1.7500000000000016E-002    -1.8385283648967743E-002
   1.8600000000000005E-002    -2.0508978515863419E-002
   1.9700000000000023E-002    -2.3027094081044197E-002
   2.0800000000000013E-002    -2.5550521910190582E-002
   2.1900000000000003E-002    -2.7613233774900436E-002
   2.3000000000000020E-002    -2.9101936146616936E-002
   2.4100000000000010E-002    -3.0328648164868355E-002
   2.5200000000000000E-002    -3.1658634543418884E-002
   2.6300000000000018E-002    -3.3068712800741196E-002
   2.7400000000000008E-002    -3.4093901515007019E-002
   2.8500000000000025E-002    -3.4230623394250870E-002
   2.9600000000000015E-002    -3.3392339944839478E-002
   3.0700000000000005E-002    -3.1949989497661591E-002
   3.1800000000000023E-002    -3.0302593484520912E-002
   3.2900000000000013E-002    -2.8411578387022018E-002
   3.4000000000000002E-002    -2.5780942291021347E-002
   3.5100000000000020E-002    -2.1915419027209282E-002
   3.6200000000000010E-002    -1.6799839213490486E-002
   3.7300000000000028E-002    -1.0909272357821465E-002
   3.8400000000000017E-002    -4.7316108830273151E-003
   3.9500000000000007E-002     1.7212236998602748E-003
   4.0600000000000025E-002     8.8992035016417503E-003
   4.1700000000000015E-002     1.7217677086591721E-002
   4.2800000000000005E-002     2.6569671928882599E-002
   4.3900000000000022E-002     3.6348633468151093E-002
   4.5000000000000012E-002     4.5956097543239594E-002
   4.6100000000000002E-002     5.5293004959821701E-002
   4.7200000000000020E-002     6.4718224108219147E-002
   4.8300000000000010E-002     7.4525281786918640E-002
   4.9400000000000027E-002     8.4473080933094025E-002
   5.0500000000000017E-002     9.3847371637821198E-002
   5.1600000000000007E-002    0.10200024396181107
   5.2700000000000025E-002    0.10881407558917999
   5.3800000000000014E-002    0.11462539434432983
   5.4900000000000004E-002    0.11969623714685440
   5.6000000000000022E-002    0.12376831471920013
   5.7100000000000012E-002    0.12616470456123352
   5.8200000000000002E-002    0.12633091211318970
   5.9300000000000019E-002    0.12425532191991806
   6.0400000000000009E-002    0.12035654485225677
   6.1500000000000027E-002    0.11496234685182571
   6.2600000000000017E-002    0.10793601721525192
   6.3700000000000007E-002     9.8813936114311218E-002
   6.4800000000000024E-002     8.7318345904350281E-002
   6.5900000000000014E-002     7.3697403073310852E-002
   6.7000000000000004E-002     5.8556646108627319E-002
   6.8100000000000022E-002     4.2368482798337936E-002
   6.9200000000000012E-002     2.5173781439661980E-002
   7.0300000000000029E-002     6.7780953831970692E-003
   7.1400000000000019E-002    -1.2777834199368954E-002
   7.2500000000000009E-002    -3.2987669110298157E-002
   7.3600000000000027E-002    -5.3115185350179672E-002
   7.4700000000000016E-002    -7.2652332484722137E-002
   7.5800000000000006E-002    -9.1511912643909454E-002
   7.6900000000000024E-002   -0.10976447910070419
   7.8000000000000014E-002   -0.12722116708755493
   7.9100000000000004E-002   -0.14330023527145386
   8.0200000000000021E-002   -0.15733918547630310
   8.1300000000000011E-002   -0.16901044547557831
   8.2400000000000029E-002   -0.17839452624320984
   8.3500000000000019E-002   -0.18566590547561646
   8.4600000000000009E-002   -0.19069389998912811
   8.5700000000000026E-002   -0.19304598867893219
   8.6800000000000016E-002   -0.19234593212604523
   8.7900000000000006E-002   -0.18865694105625153
   8.9000000000000024E-002   -0.18242761492729187
   9.0100000000000013E-002   -0.17409107089042664
   9.1200000000000003E-002   -0.16371186077594757
   9.2300000000000021E-002   -0.15107385814189911
   9.3400000000000011E-002   -0.13611619174480438
   9.4500000000000028E-002   -0.11924072355031967
   9.5600000000000018E-002   -0.10117002576589584
   9.6700000000000008E-002    -8.2489527761936188E-002
   9.7800000000000026E-002    -6.3342586159706116E-002
   9.8900000000000016E-002    -4.3601818382740021E-002
  0.10000000000000001         -2.3345338180661201E-002
  0.10110000000000002         -3.1126732937991619E-003
  0.10220000000000001          1.6321351751685143E-002
  0.10330000000000003          3.4440416842699051E-002
  0.10440000000000002          5.1228322088718414E-002
  0.10550000000000001          6.6918365657329559E-002
  0.10660000000000003          8.1507943570613861E-002
  0.10770000000000002          9.4560176134109497E-002
  0.10880000000000001         0.10549847781658173
  0.10990000000000003         0.11408755928277969
  0.11100000000000002         0.12059499323368073
  0.11210000000000001         0.12546405196189880
  0.11320000000000002         0.12884205579757690
  0.11430000000000001         0.13045904040336609
  0.11540000000000003         0.12997619807720184
  0.11650000000000002         0.12743932008743286
  0.11760000000000001         0.12333463132381439
  0.11870000000000003         0.11821177601814270
  0.11980000000000002         0.11225561797618866
  0.12090000000000001         0.10526369512081146
  0.12200000000000003          9.7052000463008881E-002
  0.12310000000000001          8.7849147617816925E-002
  0.12420000000000003          7.8249961137771606E-002
  0.12530000000000002          6.8776078522205353E-002
  0.12640000000000001          5.9503592550754547E-002
  0.12750000000000003          5.0159513950347900E-002
  0.12860000000000002          4.0574111044406891E-002
  0.12970000000000001          3.1013667583465576E-002
  0.13080000000000003          2.2032447159290314E-002
  0.13190000000000002          1.3987107202410698E-002
  0.13300000000000001          6.7463531158864498E-003
  0.13410000000000000         -1.0509257845114917E-004
  0.13520000000000004         -6.7646694369614124E-003
  0.13630000000000003         -1.2950244359672070E-002
  0.13740000000000002         -1.8154837191104889E-002
  0.13850000000000001         -2.2159559652209282E-002
  0.13960000000000000         -2.5263242423534393E-002
  0.14070000000000005         -2.7984516695141792E-002
  0.14180000000000004         -3.0539803206920624E-002
  0.14290000000000003         -3.2644744962453842E-002
  0.14400000000000002         -3.3846449106931686E-002
  0.14510000000000001         -3.4043889492750168E-002
  0.14620000000000000         -3.3646862953901291E-002
  0.14730000000000004         -3.3207118511199951E-002
  0.14840000000000003         -3.2901413738727570E-002
  0.14950000000000002         -3.2403804361820221E-002
  0.15060000000000001         -3.1276565045118332E-002
  0.15170000000000000         -2.9470227658748627E-002
  0.15280000000000005         -2.7413789182901382E-002
  0.15390000000000004         -2.5606513023376465E-002
  0.15500000000000003         -2.4140372872352600E-002
  0.15610000000000002         -2.2651061415672302E-002
  0.15720000000000001         -2.0740838721394539E-002
  0.15830000000000000         -1.8427005037665367E-002
  0.15940000000000004         -1.6149457544088364E-002
  0.16050000000000003         -1.4337129890918732E-002
  0.16160000000000002         -1.2990885414183140E-002
  0.16270000000000001         -1.1714379303157330E-002
  0.16380000000000000         -1.0149191133677959E-002
  0.16490000000000005         -8.3517106249928474E-003
  0.16600000000000004         -6.7228162661194801E-003
  0.16710000000000003         -5.5777556262910366E-003
  0.16820000000000002         -4.8175984993577003E-003
  0.16930000000000001         -4.0458501316606998E-003
  0.17040000000000000         -2.9948302544653416E-003
  0.17150000000000004         -1.8066087504848838E-003
  0.17260000000000003         -8.7357574375346303E-004
  0.17370000000000002         -4.1720463195815682E-004
  0.17480000000000001         -2.5421456666663289E-004
  0.17590000000000000          6.5529143284948077E-006
  0.17700000000000005          5.5310863535851240E-004
  0.17810000000000004          1.1844697874039412E-003
  0.17920000000000003          1.5416601672768593E-003
  0.18030000000000002          1.5020975843071938E-003
  0.18140000000000001          1.3153228210285306E-003
  0.18250000000000000          1.3405063655227423E-003
  0.18360000000000004          1.6704348381608725E-003
  0.18470000000000003          2.0424209069460630E-003
  0.18580000000000002          2.1266201511025429E-003
  0.18690000000000001          1.8782734405249357E-003
  0.18800000000000000          1.5809907345101237E-003
  0.18910000000000005          1.5402119606733322E-003
  0.19020000000000004          1.7590166535228491E-003
  0.19130000000000003          1.9417197909206152E-003
  0.19240000000000002          1.8160920590162277E-003
  0.19350000000000001          1.4272994594648480E-003
  0.19460000000000005          1.0909601114690304E-003
  0.19570000000000004          1.0609339224174619E-003
  0.19680000000000003          1.2670209398493171E-003
  0.19790000000000002          1.3983862008899450E-003
  0.19900000000000001          1.2364884605631232E-003
  0.20010000000000000          8.8030792539939284E-004
  0.20120000000000005          6.2854966381564736E-004
  0.20230000000000004          6.5404199995100498E-004
  0.20340000000000003          8.2211900735273957E-004
  0.20450000000000002          8.4304891061037779E-004
  0.20560000000000000          5.8783427812159061E-004
  0.20670000000000005          2.2632369655184448E-004
  0.20780000000000004          4.3379037379054353E-005
  0.20890000000000003          1.3624486746266484E-004
