 -0.12000000000000000          0.0000000000000000
 -0.11889999999999999          0.0000000000000000
 -0.11780000000000000          0.0000000000000000
 -0.11670000000000000          0.0000000000000000
 -0.11559999999999999          0.0000000000000000
 -0.11449999999999999          0.0000000000000000
 -0.11340000000000000          0.0000000000000000
 -0.11230000000000000          0.0000000000000000
 -0.11119999999999999          0.0000000000000000
 -0.11009999999999999         -4.8773799683414485E-029
 -0.10900000000000000          5.3283071545733786E-028
 -0.10790000000000000          2.9050448021295129E-027
 -0.10679999999999999         -5.7898191915943502E-027
 -0.10569999999999999         -5.5095715787083237E-026
 -0.10460000000000000         -3.3186638725549322E-026
 -0.10349999999999999          5.1547139636296805E-025
 -0.10239999999999999          1.3725762640641970E-024
 -0.10130000000000000         -1.3059269839038841E-024
 -0.10020000000000000         -1.3040784264231571E-023
  -9.9099999999999994E-002    -2.0497878512676743E-023
  -9.7999999999999990E-002     3.2608307046561431E-023
  -9.6899999999999986E-002     1.8451668618930790E-022
  -9.5799999999999996E-002     2.3723455654567284E-022
  -9.4699999999999993E-002    -3.6057405717135810E-022
  -9.3599999999999989E-002    -1.8235644929161150E-021
  -9.2499999999999999E-002    -2.3522484188175730E-021
  -9.1399999999999995E-002     2.2869217491618410E-021
  -9.0299999999999991E-002     1.3582483372705443E-020
  -8.9200000000000002E-002     1.9687334787288210E-020
  -8.8099999999999984E-002    -6.5059637336306612E-021
  -8.6999999999999994E-002    -7.7720921003202145E-020
  -8.5899999999999990E-002    -1.3439106476921007E-019
  -8.4799999999999986E-002    -2.9299238128639747E-020
  -8.3699999999999997E-002     3.3650560348663861E-019
  -8.2599999999999993E-002     7.3551736845478818E-019
  -8.1499999999999989E-002     4.9120368087538702E-019
  -8.0399999999999999E-002    -1.0189419648532865E-018
  -7.9299999999999995E-002    -3.1935710507289100E-018
  -7.8199999999999992E-002    -3.4322720076594092E-018
  -7.7100000000000002E-002     1.4084254363454377E-018
  -7.5999999999999984E-002     1.0756225724540432E-017
  -7.4899999999999994E-002     1.6438386605337683E-017
  -7.3799999999999991E-002     5.5741050366085303E-018
  -7.2699999999999987E-002    -2.6211593371461934E-017
  -7.1599999999999997E-002    -5.8968666930055976E-017
  -7.0499999999999993E-002    -4.9639558545560420E-017
  -6.9399999999999989E-002     3.3880563501453365E-017
  -6.8300000000000000E-002     1.5950738157074806E-016
  -6.7199999999999996E-002     2.1077728001642600E-016
  -6.6099999999999992E-002     5.5910838285798550E-017
  -6.5000000000000002E-002    -3.0331529863171329E-016
  -6.3899999999999985E-002    -6.2067032718284422E-016
  -6.2799999999999995E-002    -4.9818512784513612E-016
  -6.1699999999999991E-002     2.7053475299605744E-016
  -6.0599999999999994E-002     1.3226798518619796E-015
  -5.9499999999999990E-002     1.7248636948334118E-015
  -5.8399999999999994E-002     6.0697062805218998E-016
  -5.7299999999999990E-002    -1.8583240059478123E-015
  -5.6199999999999986E-002    -3.9872161697535394E-015
  -5.5099999999999996E-002    -3.4408466727313359E-015
  -5.3999999999999992E-002     7.4318273745398286E-016
  -5.2899999999999989E-002     6.4296005212940033E-015
  -5.1799999999999985E-002     8.9210687380619595E-015
  -5.0699999999999995E-002     4.3357469341426345E-015
  -4.9599999999999991E-002    -6.2281777805028252E-015
  -4.8499999999999988E-002    -1.5549837621958024E-014
  -4.7399999999999998E-002    -1.4615497600698434E-014
  -4.6299999999999994E-002    -4.4233680456131188E-016
  -4.5199999999999990E-002     1.8845566586759253E-014
  -4.4099999999999986E-002     2.7645517236660373E-014
  -4.2999999999999997E-002     1.4866668280547751E-014
  -4.1899999999999993E-002    -1.4308044969635857E-014
  -4.0799999999999989E-002    -3.8190655607568680E-014
  -3.9699999999999985E-002    -3.3799789274932893E-014
  -3.8599999999999995E-002     2.1443778319056670E-015
  -3.7499999999999992E-002     4.4585496861322682E-014
  -3.6399999999999988E-002     5.5617375939107094E-014
  -3.5299999999999984E-002     1.6368991326786396E-014
  -3.4199999999999994E-002    -5.0074365227220641E-014
  -3.3099999999999991E-002    -8.8567743633874429E-014
  -3.1999999999999987E-002    -5.4174794126638295E-014
  -3.0899999999999997E-002     4.3718450219590657E-014
  -2.9799999999999993E-002     1.3522558452768590E-013
  -2.8699999999999989E-002     1.3651751983641963E-013
  -2.7599999999999986E-002     1.9925616603737317E-014
  -2.6499999999999996E-002    -1.4877754247761416E-013
  -2.5399999999999992E-002    -2.4496865039941307E-013
  -2.4299999999999988E-002    -1.7596064579364357E-013
  -2.3199999999999985E-002     3.8301322156193349E-014
  -2.2099999999999995E-002     2.6291496106958800E-013
  -2.0999999999999991E-002     3.3698421115190003E-013
  -1.9899999999999987E-002     1.9350448706486473E-013
  -1.8799999999999983E-002    -8.2018966000418220E-014
  -1.7699999999999994E-002    -3.0598424185027118E-013
  -1.6599999999999990E-002    -3.2979727889598243E-013
  -1.5499999999999986E-002    -1.5203536671802576E-013
  -1.4399999999999996E-002     8.0007662550240360E-014
  -1.3299999999999992E-002     1.8668865010753460E-013
  -1.2199999999999989E-002     1.0371509152808794E-013
  -1.1099999999999985E-002    -5.7193907541854688E-014
  -9.9999999999999950E-003    -9.3425863833401790E-014
  -8.8999999999999913E-003     1.1064310952895243E-013
  -7.7999999999999875E-003     4.4832437458633412E-013
  -6.6999999999999837E-003     6.2002025692439733E-013
  -5.5999999999999939E-003     3.3920609376902888E-013
  -4.4999999999999901E-003    -4.1142520705410301E-013
  -3.3999999999999864E-003    -1.2672083434667192E-012
  -2.2999999999999826E-003    -1.6384142306757887E-012
  -1.1999999999999927E-003    -1.0849958084757638E-012
  -9.9999999999988987E-005     3.2081292917346405E-013
   1.0000000000000148E-003     1.9168917755191250E-012
   2.1000000000000185E-003     2.7761376097251711E-012
   3.2000000000000084E-003     2.2744974306765364E-012
   4.3000000000000121E-003     5.3423926523951670E-013
   5.4000000000000159E-003    -1.5888494946797449E-012
   6.5000000000000058E-003    -3.0090673876215224E-012
   7.6000000000000234E-003    -3.0776449097547065E-012
   8.7000000000000133E-003    -1.9393677202356185E-012
   9.8000000000000032E-003    -3.2210497290241502E-013
   1.0900000000000021E-002     1.0573101639002602E-012
   1.2000000000000011E-002     1.9717396118612562E-012
   1.3100000000000001E-002     2.6405644164284592E-012
   1.4200000000000018E-002     3.2183192742729627E-012
   1.5300000000000008E-002     3.3225147893362061E-012
   1.6400000000000026E-002     2.1404193521756820E-012
   1.7500000000000016E-002    -8.2195464627329851E-013
   1.8600000000000005E-002    -4.9092101911396568E-012
   1.9700000000000023E-002    -8.1910363908255235E-012
   2.0800000000000013E-002    -8.3911332743324962E-012
   2.1900000000000003E-002    -4.3978267208477639E-012
   2.3000000000000020E-002     2.6816348620839481E-012
   2.4100000000000010E-002     9.7754582206732721E-012
   2.5200000000000000E-002     1.3401374628074780E-011
   2.6300000000000018E-002     1.1590731846533586E-011
   2.7400000000000008E-002     4.9612909266971705E-012
   2.8500000000000025E-002    -3.7192766227933660E-012
   2.9600000000000015E-002    -1.1125830291780492E-011
   3.0700000000000005E-002    -1.5035476336189291E-011
   3.1800000000000023E-002    -1.5009432932644451E-011
   3.2900000000000013E-002    -1.1811074687728684E-011
   3.4000000000000002E-002    -6.1961165365165272E-012
   3.5100000000000020E-002     1.8460263699615620E-012
   3.6200000000000010E-002     1.2665349671814319E-011
   3.7300000000000028E-002     2.5526105534856569E-011
   3.8400000000000017E-002     3.7265305424805106E-011
   3.9500000000000007E-002     4.2339572819960480E-011
   4.0600000000000025E-002     3.4834402723449287E-011
   4.1700000000000015E-002     1.1660348034348011E-011
   4.2800000000000005E-002    -2.4952014412993329E-011
   4.3900000000000022E-002    -6.7538502568353920E-011
   4.5000000000000012E-002    -1.0657272980774124E-010
   4.6100000000000002E-002    -1.3522542807731242E-010
   4.7200000000000020E-002    -1.5297101085831599E-010
   4.8300000000000010E-002    -1.6585770257204757E-010
   4.9400000000000027E-002    -1.8340960694640529E-010
   5.0500000000000017E-002    -2.1438632813453040E-010
   5.1600000000000007E-002    -2.6426802413048733E-010
   5.2700000000000025E-002    -3.3580882519146371E-010
   5.3800000000000014E-002    -4.3149536721465154E-010
   5.4900000000000004E-002    -5.5531484965953837E-010
   5.6000000000000022E-002    -7.1209382834780399E-010
   5.7100000000000012E-002    -9.0511120820480073E-010
   5.8200000000000002E-002    -1.1345976380638945E-009
   5.9300000000000019E-002    -1.3993878278384386E-009
   6.0400000000000009E-002    -1.7015399089714833E-009
   6.1500000000000027E-002    -2.0511776721576780E-009
   6.2600000000000017E-002    -2.4682607069337337E-009
   6.3700000000000007E-002    -2.9799547274222959E-009
   6.4800000000000024E-002    -3.6152261184696499E-009
   6.5900000000000014E-002    -4.3999945908979043E-009
   6.7000000000000004E-002    -5.3555417878214939E-009
   6.8100000000000022E-002    -6.5006102722975356E-009
   6.9200000000000012E-002    -7.8555437710292608E-009
   7.0300000000000029E-002    -9.4462020427954485E-009
   7.1400000000000019E-002    -1.1306221736617772E-008
   7.2500000000000009E-002    -1.3477536420225533E-008
   7.3600000000000027E-002    -1.6009934711291862E-008
   7.4700000000000016E-002    -1.8960601977369151E-008
   7.5800000000000006E-002    -2.2394104348677502E-008
   7.6900000000000024E-002    -2.6382718232298430E-008
   7.8000000000000014E-002    -3.1006372580577590E-008
   7.9100000000000004E-002    -3.6351501364606520E-008
   8.0200000000000021E-002    -4.2508709441335668E-008
   8.1300000000000011E-002    -4.9570481053251569E-008
   8.2400000000000029E-002    -5.7630828109722643E-008
   8.3500000000000019E-002    -6.6788068409096013E-008
   8.4600000000000009E-002    -7.7149451271907310E-008
   8.5700000000000026E-002    -8.8834326561482158E-008
   8.6800000000000016E-002    -1.0197245359222507E-007
   8.7900000000000006E-002    -1.1669736466046743E-007
   8.9000000000000024E-002    -1.3313851354723738E-007
   9.0100000000000013E-002    -1.5141733911150368E-007
   9.1200000000000003E-002    -1.7164970245175937E-007
   9.2300000000000021E-002    -1.9395145045564277E-007
   9.3400000000000011E-002    -2.1844076059096551E-007
   9.4500000000000028E-002    -2.4523254182895471E-007
   9.5600000000000018E-002    -2.7442635541774507E-007
   9.6700000000000008E-002    -3.0609436407758039E-007
   9.7800000000000026E-002    -3.4027553397208976E-007
   9.8900000000000016E-002    -3.7697716948059679E-007
  0.10000000000000001         -4.1617872170718329E-007
  0.10110000000000002         -4.5783062319060264E-007
  0.10220000000000001         -5.0184593192170723E-007
  0.10330000000000003         -5.4808799632155569E-007
  0.10440000000000002         -5.9636130345097627E-007
  0.10550000000000001         -6.4640892105671810E-007
  0.10660000000000003         -6.9791553869436029E-007
  0.10770000000000002         -7.5051173098472646E-007
  0.10880000000000001         -8.0377378708362812E-007
  0.10990000000000003         -8.5721939058203134E-007
  0.11100000000000002         -9.1030051407869905E-007
  0.11210000000000001         -9.6239705271727871E-007
  0.11320000000000002         -1.0128130725206574E-006
  0.11430000000000001         -1.0607778904159204E-006
  0.11540000000000003         -1.1054535207222216E-006
  0.11650000000000002         -1.1459474080766086E-006
  0.11760000000000001         -1.1813273204097641E-006
  0.11870000000000003         -1.2106361282349098E-006
  0.11980000000000002         -1.2329031733315787E-006
  0.12090000000000001         -1.2471542731873342E-006
  0.12200000000000003         -1.2524232033683802E-006
  0.12310000000000001         -1.2477676136768423E-006
  0.12420000000000003         -1.2322889233473688E-006
  0.12530000000000002         -1.2051482372044120E-006
  0.12640000000000001         -1.1655787375275395E-006
  0.12750000000000003         -1.1128970527352067E-006
  0.12860000000000002         -1.0465194009157130E-006
  0.12970000000000001         -9.6598773779987823E-007
  0.13080000000000003         -8.7100374912552070E-007
  0.13190000000000002         -7.6145755656398251E-007
  0.13300000000000001         -6.3744289491296513E-007
  0.13410000000000000         -4.9925733947020490E-007
  0.13520000000000004         -3.4739673537842464E-007
  0.13630000000000003         -1.8255427391977719E-007
  0.13740000000000002         -5.6284785721061326E-009
  0.13850000000000001          1.8226663200948678E-007
  0.13960000000000000          3.7979950207045476E-007
  0.14070000000000005          5.8543201930660871E-007
  0.14180000000000004          7.9743796277398360E-007
  0.14290000000000003          1.0139218602489564E-006
  0.14400000000000002          1.2328341654210817E-006
  0.14510000000000001          1.4519879414365278E-006
  0.14620000000000000          1.6690848951839143E-006
  0.14730000000000004          1.8817539739757194E-006
  0.14840000000000003          2.0875941117992625E-006
  0.14950000000000002          2.2842150428914465E-006
  0.15060000000000001          2.4692724309716141E-006
  0.15170000000000000          2.6405000426166225E-006
  0.15280000000000005          2.7957423753832700E-006
  0.15390000000000004          2.9329914923437173E-006
  0.15500000000000003          3.0504204460157780E-006
  0.15610000000000002          3.1464114726986736E-006
  0.15720000000000001          3.2195825951930601E-006
  0.15830000000000000          3.2688103601685725E-006
  0.15940000000000004          3.2932550766417990E-006
  0.16050000000000003          3.2923817343544215E-006
  0.16160000000000002          3.2659690987202339E-006
  0.16270000000000001          3.2141060728463344E-006
  0.16380000000000000          3.1371798741020029E-006
  0.16490000000000005          3.0358694402821129E-006
  0.16600000000000004          2.9111390631442191E-006
  0.16710000000000003          2.7642297482088907E-006
  0.16820000000000002          2.5966348857764388E-006
  0.16930000000000001          2.4100590962916613E-006
  0.17040000000000000          2.2063723008614033E-006
  0.17150000000000004          1.9875733414664865E-006
  0.17260000000000003          1.7557661067257868E-006
  0.17370000000000002          1.5131352029129630E-006
  0.17480000000000001          1.2619126437130035E-006
  0.17590000000000000          1.0043306701845722E-006
  0.17700000000000005          7.4257212645534310E-007
  0.17810000000000004          4.7873595576675143E-007
  0.17920000000000003          2.1481997691807919E-007
  0.18030000000000002         -4.7289603344324860E-008
  0.18140000000000001         -3.0583743182432954E-007
  0.18250000000000000         -5.5922902220117976E-007
  0.18360000000000004         -8.0605849461790058E-007
  0.18470000000000003         -1.0451177558934432E-006
  0.18580000000000002         -1.2753847613566904E-006
  0.18690000000000001         -1.4960020280341269E-006
  0.18800000000000000         -1.7062621964214486E-006
  0.18910000000000005         -1.9056022892982583E-006
  0.19020000000000004         -2.0935979136993410E-006
  0.19130000000000003         -2.2699437067785766E-006
  0.19240000000000002         -2.4344215034943772E-006
  0.19350000000000001         -2.5868694137898274E-006
  0.19460000000000005         -2.7271594262856524E-006
  0.19570000000000004         -2.8551880859595258E-006
  0.19680000000000003         -2.9708626243518665E-006
  0.19790000000000002         -3.0740779948246200E-006
  0.19900000000000001         -3.1646845854993444E-006
  0.20010000000000000         -3.2424695746158250E-006
  0.20120000000000005         -3.3071532925532665E-006
  0.20230000000000004         -3.3583980894036358E-006
  0.20340000000000003         -3.3958112908294424E-006
  0.20450000000000002         -3.4189395137218526E-006
  0.20560000000000000         -3.4272622997377766E-006
  0.20670000000000005         -3.4202055303467205E-006
  0.20780000000000004         -3.3971728043979965E-006
  0.20890000000000003         -3.3575900033611106E-006
