 -0.12000000000000000          0.0000000000000000
 -0.11889999999999999          0.0000000000000000
 -0.11780000000000000          0.0000000000000000
 -0.11670000000000000          0.0000000000000000
 -0.11559999999999999          0.0000000000000000
 -0.11449999999999999          0.0000000000000000
 -0.11340000000000000          2.7666539342060818E-019
 -0.11230000000000000         -5.3250904816064081E-019
 -0.11119999999999999         -1.5732368100188310E-017
 -0.11009999999999999         -6.7823119226733633E-017
 -0.10900000000000000         -9.1865593569182030E-017
 -0.10790000000000000          2.4227950735086560E-016
 -0.10679999999999999          1.3339425313242514E-015
 -0.10569999999999999          2.3936911802599938E-015
 -0.10460000000000000         -1.2770867946952499E-016
 -0.10349999999999999         -1.0577738127948956E-014
 -0.10239999999999999         -2.4788166785579512E-014
 -0.10130000000000000         -1.9439953322773032E-014
 -0.10020000000000000          3.8360489101620987E-014
  -9.9099999999999994E-002     1.4289706028701575E-013
  -9.7999999999999990E-002     1.9084637570365185E-013
  -9.6899999999999986E-002     3.8687899523274287E-015
  -9.5799999999999996E-002    -4.8569432980689911E-013
  -9.4699999999999993E-002    -9.7134854413349259E-013
  -9.3599999999999989E-002    -7.4979253491757366E-013
  -9.2499999999999999E-002     7.4294384663415480E-013
  -9.1399999999999995E-002     3.0019899326800288E-012
  -9.0299999999999991E-002     4.0227972862576077E-012
  -8.9200000000000002E-002     1.4114085334505059E-012
  -8.8099999999999984E-002    -5.0571148831055259E-012
  -8.6999999999999994E-002    -1.1453497004988079E-011
  -8.5899999999999990E-002    -1.1090703008755509E-011
  -8.4799999999999986E-002     5.3376485900964689E-014
  -8.3699999999999997E-002     1.7576981536926882E-011
  -8.2599999999999993E-002     2.8752592320938944E-011
  -8.1499999999999989E-002     2.1287931487040257E-011
  -8.0399999999999999E-002    -4.7823832567661915E-012
  -7.9299999999999995E-002    -3.3460102744080924E-011
  -7.8199999999999992E-002    -4.4095775642027411E-011
  -7.7100000000000002E-002    -3.0011299001495279E-011
  -7.5999999999999984E-002    -5.7817934467876729E-012
  -7.4899999999999994E-002     8.5103590841296695E-012
  -7.3799999999999991E-002     1.3688921524109821E-011
  -7.2699999999999987E-002     3.7391086754603016E-011
  -7.1599999999999997E-002     1.0060738353520914E-010
  -7.0499999999999993E-002     1.6866961993763090E-010
  -6.9399999999999989E-002     1.4498677258777302E-010
  -6.8300000000000000E-002    -5.4537006854944119E-011
  -6.7199999999999996E-002    -3.8614086927949919E-010
  -6.6099999999999992E-002    -6.3254712578948203E-010
  -6.5000000000000002E-002    -5.1711279702719606E-010
  -6.3899999999999985E-002     6.1430756315014700E-011
  -6.2799999999999995E-002     8.5532053661893505E-010
  -6.1699999999999991E-002     1.3466818771234875E-009
  -6.0599999999999994E-002     1.0912966086353393E-009
  -5.9499999999999990E-002     9.2713205168966120E-011
  -5.8399999999999994E-002    -1.1160399271401935E-009
  -5.7299999999999990E-002    -1.8086588893241184E-009
  -5.6199999999999986E-002    -1.5895861293916736E-009
  -5.5099999999999996E-002    -6.7385913515889288E-010
  -5.3999999999999992E-002     3.3439134794465050E-010
  -5.2899999999999989E-002     9.7904773177531888E-010
  -5.1799999999999985E-002     1.3019414435438311E-009
  -5.0699999999999995E-002     1.6457253337879067E-009
  -4.9599999999999991E-002     2.0783845755544003E-009
  -4.8499999999999988E-002     2.0448189808059605E-009
  -4.7399999999999998E-002     7.3040579140443628E-010
  -4.6299999999999994E-002    -2.0358383867601183E-009
  -4.5199999999999990E-002    -5.1373540976833693E-009
  -4.4099999999999986E-002    -6.5432650409029807E-009
  -4.2999999999999997E-002    -4.6621670968249658E-009
  -4.1899999999999993E-002     2.7766727805825960E-010
  -4.0799999999999989E-002     5.9798002105525023E-009
  -3.9699999999999985E-002     9.3353103025598330E-009
  -3.8599999999999995E-002     8.3755207214157121E-009
  -3.7499999999999992E-002     3.5284983823672468E-009
  -3.6399999999999988E-002    -2.6982254208701799E-009
  -3.5299999999999984E-002    -7.3011725554287077E-009
  -3.4199999999999994E-002    -8.4561335711447218E-009
  -3.3099999999999991E-002    -6.2217466734197047E-009
  -3.1999999999999987E-002    -2.0782007226229844E-009
  -3.0899999999999997E-002     2.0841550707470265E-009
  -2.9799999999999993E-002     4.7871377972804719E-009
  -2.8699999999999989E-002     5.3146691492156263E-009
  -2.7599999999999986E-002     3.7475329506268564E-009
  -2.6499999999999996E-002     8.6235996121705310E-010
  -2.5399999999999992E-002    -2.1470754063572939E-009
  -2.4299999999999988E-002    -4.1841228259910222E-009
  -2.3199999999999985E-002    -4.7526280688713648E-009
  -2.2099999999999995E-002    -3.9824565867248262E-009
  -2.0999999999999991E-002    -2.0119941268582466E-009
  -1.9899999999999987E-002     1.7556005538225255E-009
  -1.8799999999999983E-002     8.6554239331349891E-009
  -1.7699999999999994E-002     1.9683950469583773E-008
  -1.6599999999999990E-002     3.4083672773022190E-008
  -1.5499999999999986E-002     4.8930303364616525E-008
  -1.4399999999999996E-002     6.0440356719488087E-008
  -1.3299999999999992E-002     6.6276733434741397E-008
  -1.2199999999999989E-002     6.7172848616799658E-008
  -1.1099999999999985E-002     6.6681273835916815E-008
  -9.9999999999999950E-003     6.9391703050318374E-008
  -8.8999999999999913E-003     7.9119935492149435E-008
  -7.7999999999999875E-003     9.8268770898366285E-008
  -6.6999999999999837E-003     1.2819826622491325E-007
  -5.5999999999999939E-003     1.6950082226687318E-007
  -4.4999999999999901E-003     2.2157385615175615E-007
  -3.3999999999999864E-003     2.8224152970326383E-007
  -2.2999999999999826E-003     3.4875472465503380E-007
  -1.1999999999999927E-003     4.2035597402903872E-007
  -9.9999999999988987E-005     5.0067956181014467E-007
   1.0000000000000148E-003     5.9761134707519978E-007
   2.1000000000000185E-003     7.1992889161272104E-007
   3.2000000000000084E-003     8.7286701955243705E-007
   4.3000000000000121E-003     1.0561257113296025E-006
   5.4000000000000159E-003     1.2662369499595229E-006
   6.5000000000000058E-003     1.5017873238322277E-006
   7.6000000000000234E-003     1.7676585457594833E-006
   8.7000000000000133E-003     2.0752404452652654E-006
   9.8000000000000032E-003     2.4387632038271856E-006
   1.0900000000000021E-002     2.8706920147672297E-006
   1.2000000000000011E-002     3.3792907743193841E-006
   1.3100000000000001E-002     3.9692358768664937E-006
   1.4200000000000018E-002     4.6438303797917248E-006
   1.5300000000000008E-002     5.4069328143673502E-006
   1.6400000000000026E-002     6.2640228861715520E-006
   1.7500000000000016E-002     7.2230568548554371E-006
   1.8600000000000005E-002     8.2955239122391512E-006
   1.9700000000000023E-002     9.4969118435991898E-006
   2.0800000000000013E-002     1.0845238648472376E-005
   2.1900000000000003E-002     1.2357473679004395E-005
   2.3000000000000020E-002     1.4045602256375211E-005
   2.4100000000000010E-002     1.5914803952911419E-005
   2.5200000000000000E-002     1.7964928701987227E-005
   2.6300000000000018E-002     2.0194167518640801E-005
   2.7400000000000008E-002     2.2602529497819168E-005
   2.8500000000000025E-002     2.5193170586137478E-005
   2.9600000000000015E-002     2.7971387680738861E-005
   3.0700000000000005E-002     3.0942184821472474E-005
   3.1800000000000023E-002     3.4107360988858425E-005
   3.2900000000000013E-002     3.7462494219656683E-005
   3.4000000000000002E-002     4.0994109440365774E-005
   3.5100000000000020E-002     4.4678145059155600E-005
   3.6200000000000010E-002     4.8480884288442035E-005
   3.7300000000000028E-002     5.2362640417418516E-005
   3.8400000000000017E-002     5.6282504374399296E-005
   3.9500000000000007E-002     6.0200916777836046E-005
   4.0600000000000025E-002     6.4077765273401767E-005
   4.1700000000000015E-002     6.7866887548013278E-005
   4.2800000000000005E-002     7.1510388806934495E-005
   4.3900000000000022E-002     7.4936404416810155E-005
   4.5000000000000012E-002     7.8061821113813401E-005
   4.6100000000000002E-002     8.0798301496550444E-005
   4.7200000000000020E-002     8.3057973824914792E-005
   4.8300000000000010E-002     8.4755440184388733E-005
   4.9400000000000027E-002     8.5805892013021359E-005
   5.0500000000000017E-002     8.6121857748374956E-005
   5.1600000000000007E-002     8.5612249677077535E-005
   5.2700000000000025E-002     8.4185194282334803E-005
   5.3800000000000014E-002     8.1753474660225541E-005
   5.4900000000000004E-002     7.8239179856617048E-005
   5.6000000000000022E-002     7.3574694397400729E-005
   5.7100000000000012E-002     6.7701170337393043E-005
   5.8200000000000002E-002     6.0567195760092169E-005
   5.9300000000000019E-002     5.2131425036355510E-005
   6.0400000000000009E-002     4.2369592847539771E-005
   6.1500000000000027E-002     3.1281917472373364E-005
   6.2600000000000017E-002     1.8896340407084170E-005
   6.3700000000000007E-002     5.2666468945982837E-006
   6.4800000000000024E-002    -9.5311997938554617E-006
   6.5900000000000014E-002    -2.5401182938368843E-005
   6.7000000000000004E-002    -4.2226438381479587E-005
   6.8100000000000022E-002    -5.9867481468250273E-005
   6.9200000000000012E-002    -7.8163546277216703E-005
   7.0300000000000029E-002    -9.6936310001191636E-005
   7.1400000000000019E-002    -1.1599126446527509E-004
   7.2500000000000009E-002    -1.3511300494429914E-004
   7.3600000000000027E-002    -1.5405802696478991E-004
   7.4700000000000016E-002    -1.7255396232941802E-004
   7.5800000000000006E-002    -1.9031098054258003E-004
   7.6900000000000024E-002    -2.0704187045341371E-004
   7.8000000000000014E-002    -2.2247878951022564E-004
   7.9100000000000004E-002    -2.3637663980482446E-004
   8.0200000000000021E-002    -2.4850448244253598E-004
   8.1300000000000011E-002    -2.5863703922370977E-004
   8.2400000000000029E-002    -2.6655787951315431E-004
   8.3500000000000019E-002    -2.7207407401877198E-004
   8.4600000000000009E-002    -2.7502962620931459E-004
   8.5700000000000026E-002    -2.7530657825994097E-004
   8.6800000000000016E-002    -2.7281645452606273E-004
   8.7900000000000006E-002    -2.6749697281050233E-004
   8.9000000000000024E-002    -2.5932493736038588E-004
   9.0100000000000013E-002    -2.4833949282767763E-004
   9.1200000000000003E-002    -2.3465647245759540E-004
   9.2300000000000021E-002    -2.1845793526156128E-004
   9.3400000000000011E-002    -1.9996252376588150E-004
   9.4500000000000028E-002    -1.7940164252651757E-004
   9.5600000000000018E-002    -1.5702132077423554E-004
   9.6700000000000008E-002    -1.3310411304702459E-004
   9.7800000000000026E-002    -1.0798622679432099E-004
   9.8900000000000016E-002    -8.2049249613200579E-005
  0.10000000000000001         -5.5691009038134118E-005
  0.10110000000000002         -2.9301441827559778E-005
  0.10220000000000001         -3.2639975415816434E-006
  0.10330000000000003          2.2024376448827183E-005
  0.10440000000000002          4.6145469241313502E-005
  0.10550000000000001          6.8683984864043284E-005
  0.10660000000000003          8.9270200987819965E-005
  0.10770000000000002          1.0760589066195339E-004
  0.10880000000000001          1.2345274444670615E-004
  0.10990000000000003          1.3659846445081161E-004
  0.11100000000000002          1.4683784684167689E-004
  0.11210000000000001          1.5399453695864946E-004
  0.11320000000000002          1.5796587103979312E-004
  0.11430000000000001          1.5874809469097897E-004
  0.11540000000000003          1.5641664504075086E-004
  0.11650000000000002          1.5108166553547231E-004
  0.11760000000000001          1.4286491204985909E-004
  0.11870000000000003          1.3192472397351106E-004
  0.11980000000000002          1.1850291048177800E-004
  0.12090000000000001          1.0294226376573699E-004
  0.12200000000000003          8.5651678091389920E-005
  0.12310000000000001          6.7045868490830067E-005
  0.12420000000000003          4.7515597543684795E-005
  0.12530000000000002          2.7453834263727988E-005
  0.12640000000000001          7.3046680881834182E-006
  0.12750000000000003         -1.2422922736732445E-005
  0.12860000000000002         -3.1201834644891492E-005
  0.12970000000000001         -4.8557132686259301E-005
  0.13080000000000003         -6.4094580011447725E-005
  0.13190000000000002         -7.7463555498986843E-005
  0.13300000000000001         -8.8298344053336115E-005
  0.13410000000000000         -9.6204224973926047E-005
  0.13520000000000004         -1.0081033542520407E-004
  0.13630000000000003         -1.0184620623477812E-004
  0.13740000000000002         -9.9170378234713190E-005
  0.13850000000000001         -9.2726273578601403E-005
  0.13960000000000000         -8.2476770330695175E-005
  0.14070000000000005         -6.8388442741714977E-005
  0.14180000000000004         -5.0485599786049760E-005
  0.14290000000000003         -2.8922058845642194E-005
  0.14400000000000002         -3.9954002204494749E-006
  0.14510000000000001          2.3917389626148790E-005
  0.14620000000000000          5.4441567044707558E-005
  0.14730000000000004          8.7223139416897421E-005
  0.14840000000000003          1.2186919047963723E-004
  0.14950000000000002          1.5787332085893737E-004
  0.15060000000000001          1.9460720068310974E-004
  0.15170000000000000          2.3139404947871344E-004
  0.15280000000000005          2.6759714819493121E-004
  0.15390000000000004          3.0264281667771509E-004
  0.15500000000000003          3.3596562570895153E-004
  0.15610000000000002          3.6694633308801262E-004
  0.15720000000000001          3.9491979987364012E-004
  0.15830000000000000          4.1925738332796846E-004
  0.15940000000000004          4.3945168727081501E-004
  0.16050000000000003          4.5512514770966440E-004
  0.16160000000000002          4.6596262836833105E-004
  0.16270000000000001          4.7164404531945187E-004
  0.16380000000000000          4.7185440780599363E-004
  0.16490000000000005          4.6636789920744237E-004
  0.16600000000000004          4.5512345968749997E-004
  0.16710000000000003          4.3822068255398931E-004
  0.16820000000000002          4.1584551217969847E-004
  0.16930000000000001          3.8820510962981854E-004
  0.17040000000000000          3.5553640918809773E-004
  0.17150000000000004          3.1817809212956121E-004
  0.17260000000000003          2.7662466163749924E-004
  0.17370000000000002          2.3149714979811296E-004
  0.17480000000000001          1.8345339049121592E-004
  0.17590000000000000          1.3312151713764067E-004
  0.17700000000000005          8.1114645581704072E-005
  0.17810000000000004          2.8098307666375515E-005
  0.17920000000000003         -2.5173430913126180E-005
  0.18030000000000002         -7.7902994235049393E-005
  0.18140000000000001         -1.2934292317368901E-004
  0.18250000000000000         -1.7885178385769376E-004
  0.18360000000000004         -2.2586503473577907E-004
  0.18470000000000003         -2.6982580311598578E-004
  0.18580000000000002         -3.1015684362503492E-004
  0.18690000000000001         -3.4631282323974345E-004
  0.18800000000000000         -3.7786609027538008E-004
  0.18910000000000005         -4.0454417467120882E-004
  0.19020000000000004         -4.2618883890103634E-004
  0.19130000000000003         -4.4268550118435455E-004
  0.19240000000000002         -4.5393966138367032E-004
  0.19350000000000001         -4.5992457307879401E-004
  0.19460000000000005         -4.6074460260574343E-004
  0.19570000000000004         -4.5664072968070032E-004
  0.19680000000000003         -4.4792593689639641E-004
  0.19790000000000002         -4.3491323594939391E-004
  0.19900000000000001         -4.1790539398793428E-004
  0.20010000000000000         -3.9724740781825170E-004
  0.20120000000000005         -3.7337865796875143E-004
  0.20230000000000004         -3.4682231489572380E-004
  0.20340000000000003         -3.1811697408560120E-004
  0.20450000000000002         -2.8775594546462526E-004
  0.20560000000000000         -2.5618902873250486E-004
  0.20670000000000005         -2.2387041826734785E-004
  0.20780000000000004         -1.9128619169352741E-004
  0.20890000000000003         -1.5892052033452178E-004
