 -0.12000000000000000          0.0000000000000000
 -0.11889999999999999          0.0000000000000000
 -0.11780000000000000          0.0000000000000000
 -0.11670000000000000          0.0000000000000000
 -0.11559999999999999          0.0000000000000000
 -0.11449999999999999          0.0000000000000000
 -0.11340000000000000          0.0000000000000000
 -0.11230000000000000          0.0000000000000000
 -0.11119999999999999          0.0000000000000000
 -0.11009999999999999          0.0000000000000000
 -0.10900000000000000         -3.2855943303700016E-025
 -0.10790000000000000         -4.4705232648331450E-024
 -0.10679999999999999         -1.0414377587659512E-023
 -0.10569999999999999          7.1177013590144881E-023
 -0.10460000000000000          4.2480954917943949E-022
 -0.10349999999999999          2.8999597202400598E-022
 -0.10239999999999999         -4.1848674698255893E-021
 -0.10130000000000000         -1.4866681273694018E-020
 -0.10020000000000000         -4.3706963409337546E-021
  -9.9099999999999994E-002     1.0380885335462924E-019
  -9.7999999999999990E-002     3.0258403808978706E-019
  -9.6899999999999986E-002     1.1694726029184161E-019
  -9.5799999999999996E-002    -1.4606436940546852E-018
  -9.4699999999999993E-002    -4.1873520425047116E-018
  -9.3599999999999989E-002    -2.7225913671437734E-018
  -9.2499999999999999E-002     1.3153362879675216E-017
  -9.1399999999999995E-002     4.2163672222873567E-017
  -9.0299999999999991E-002     4.0562392832036264E-017
  -8.9200000000000002E-002    -7.6167644454274943E-017
  -8.8099999999999984E-002    -3.1896293531303601E-016
  -8.6999999999999994E-002    -4.1385937158616509E-016
  -8.5899999999999990E-002     2.1824011673776922E-016
  -8.4799999999999986E-002     1.8265240597672809E-015
  -8.3699999999999997E-002     3.0892975064347001E-015
  -8.2599999999999993E-002     7.1433877744069138E-016
  -8.1499999999999989E-002    -7.7214032693714851E-015
  -8.0399999999999999E-002    -1.7500932276179153E-014
  -7.9299999999999995E-002    -1.3157598044411488E-014
  -7.8199999999999992E-002     2.1467828125528061E-014
  -7.7100000000000002E-002     7.6106730238691828E-014
  -7.5999999999999984E-002     9.1334254883560645E-014
  -7.4899999999999994E-002    -1.5208234316528048E-014
  -7.3799999999999991E-002    -2.4921433189675768E-013
  -7.2699999999999987E-002    -4.2859758710850349E-013
  -7.1599999999999997E-002    -2.1888498229639258E-013
  -7.0499999999999993E-002     5.6012524262891161E-013
  -6.9399999999999989E-002     1.4930798567999726E-012
  -6.8300000000000000E-002     1.4806437326209121E-012
  -6.7199999999999996E-002    -4.8894780368610724E-013
  -6.6099999999999992E-002    -3.8844049504715983E-012
  -6.5000000000000002E-002    -5.7887310396520508E-012
  -6.3899999999999985E-002    -2.3869233412715518E-012
  -6.2799999999999995E-002     7.0056942018392743E-012
  -6.1699999999999991E-002     1.6305741479261116E-011
  -6.0599999999999994E-002     1.4379492388472137E-011
  -5.9499999999999990E-002    -5.5832651869869299E-012
  -5.8399999999999994E-002    -3.4491215439302891E-011
  -5.7299999999999990E-002    -4.6009650950251668E-011
  -5.6199999999999986E-002    -1.4747187845887133E-011
  -5.5099999999999996E-002     5.3618505468921995E-011
  -5.3999999999999992E-002     1.0759123453274455E-010
  -5.2899999999999989E-002     7.8315944007645300E-011
  -5.1799999999999985E-002    -5.3304111125029863E-011
  -5.0699999999999995E-002    -2.0369736453140774E-010
  -4.9599999999999991E-002    -2.1792173621193456E-010
  -4.8499999999999988E-002    -1.2638332221037718E-012
  -4.7399999999999998E-002     3.3843053359738917E-010
  -4.6299999999999994E-002     4.9310711069949775E-010
  -4.5199999999999990E-002     1.8351280217654420E-010
  -4.4099999999999986E-002    -5.1225879094118909E-010
  -4.2999999999999997E-002    -1.0416272289148765E-009
  -4.1899999999999993E-002    -7.1988182082094454E-010
  -4.0799999999999989E-002     5.9295846011053754E-010
  -3.9699999999999985E-002     2.0397314948183976E-009
  -3.8599999999999995E-002     2.1460306864895529E-009
  -3.7499999999999992E-002     5.5540079479943216E-011
  -3.6399999999999988E-002    -3.2559712703772448E-009
  -3.5299999999999984E-002    -5.0683515162575077E-009
  -3.4199999999999994E-002    -2.8334545820740686E-009
  -3.3099999999999991E-002     3.1982947401587580E-009
  -3.1999999999999987E-002     8.9787386414741377E-009
  -3.0899999999999997E-002     8.9806437841843945E-009
  -2.9799999999999993E-002     9.0016805120995969E-010
  -2.8699999999999989E-002    -1.0923167259591082E-008
  -2.7599999999999986E-002    -1.7168130028721862E-008
  -2.6499999999999996E-002    -1.0502376746046593E-008
  -2.5399999999999992E-002     6.9805188296356846E-009
  -2.4299999999999988E-002     2.2789294007452554E-008
  -2.3199999999999985E-002     2.2509114572244471E-008
  -2.2099999999999995E-002     2.5911992551641561E-009
  -2.0999999999999991E-002    -2.3374493451910894E-008
  -1.9899999999999987E-002    -3.2754766010612002E-008
  -1.8799999999999983E-002    -1.2782700231639410E-008
  -1.7699999999999994E-002     2.4604817738804741E-008
  -1.6599999999999990E-002     4.7254161472665146E-008
  -1.5499999999999986E-002     2.7814559544481199E-008
  -1.4399999999999996E-002    -2.8585354527876916E-008
  -1.3299999999999992E-002    -7.9314233403238177E-008
  -1.2199999999999989E-002    -7.2895865343980404E-008
  -1.1099999999999985E-002     5.8893125931547274E-009
  -9.9999999999999950E-003     1.1126684285045485E-007
  -8.8999999999999913E-003     1.5970488220773404E-007
  -7.7999999999999875E-003     9.2426652997801284E-008
  -6.6999999999999837E-003    -6.8255268104167044E-008
  -5.5999999999999939E-003    -2.1872726563287870E-007
  -4.4999999999999901E-003    -2.4167169954125711E-007
  -3.3999999999999864E-003    -9.7507481200409529E-008
  -2.2999999999999826E-003     1.3212014948749129E-007
  -1.1999999999999927E-003     2.9194626449680072E-007
  -9.9999999999988987E-005     2.6544583420218260E-007
   1.0000000000000148E-003     6.8366169614364480E-008
   2.1000000000000185E-003    -1.5496841854201193E-007
   3.2000000000000084E-003    -2.3959682948770933E-007
   4.3000000000000121E-003    -1.3329133707884466E-007
   5.4000000000000159E-003     5.3458130366834666E-008
   6.5000000000000058E-003     1.3209552207626984E-007
   7.6000000000000234E-003    -8.5171164565522872E-010
   8.7000000000000133E-003    -2.5199378228535352E-007
   9.8000000000000032E-003    -3.7539012964771246E-007
   1.0900000000000021E-002    -1.6204727160129551E-007
   1.2000000000000011E-002     3.5942039744440990E-007
   1.3100000000000001E-002     8.7686390770613798E-007
   1.4200000000000018E-002     9.7218310202151770E-007
   1.5300000000000008E-002     4.2458890447960584E-007
   1.6400000000000026E-002    -5.7349598137079738E-007
   1.7500000000000016E-002    -1.4685739415654098E-006
   1.8600000000000005E-002    -1.6717626749596093E-006
   1.9700000000000023E-002    -9.5940072242228780E-007
   2.0800000000000013E-002     3.3279911804129370E-007
   2.1900000000000003E-002     1.4863884416627116E-006
   2.3000000000000020E-002     1.8572945919004269E-006
   2.4100000000000010E-002     1.3056825309831765E-006
   2.5200000000000000E-002     2.8123849915573373E-007
   2.6300000000000018E-002    -5.2122817351119011E-007
   2.7400000000000008E-002    -6.9625355081370799E-007
   2.8500000000000025E-002    -4.3957572870567674E-007
   2.9600000000000015E-002    -3.6245614865038078E-007
   3.0700000000000005E-002    -9.1416166014823830E-007
   3.1800000000000023E-002    -1.8647523347681272E-006
   3.2900000000000013E-002    -2.3196489564725198E-006
   3.4000000000000002E-002    -1.3613415603686008E-006
   3.5100000000000020E-002     1.1072309007431613E-006
   3.6200000000000010E-002     3.9959909372555558E-006
   3.7300000000000028E-002     5.5457808230130468E-006
   3.8400000000000017E-002     4.4865159907203633E-006
   3.9500000000000007E-002     1.0349129979658755E-006
   4.0600000000000025E-002    -3.0598050670960220E-006
   4.1700000000000015E-002    -5.5724849516991526E-006
   4.2800000000000005E-002    -5.2767531997233164E-006
   4.3900000000000022E-002    -2.7713551844499307E-006
   4.5000000000000012E-002    -8.4503000152835739E-009
   4.6100000000000002E-002     1.1715261507561081E-006
   4.7200000000000020E-002     4.1442982023909281E-007
   4.8300000000000010E-002    -9.2604631163339945E-007
   4.9400000000000027E-002    -9.2803480811198824E-007
   5.0500000000000017E-002     1.2519037682068301E-006
   5.1600000000000007E-002     4.5260421757120639E-006
   5.2700000000000025E-002     6.5645722315821331E-006
   5.3800000000000014E-002     5.6018525356194004E-006
   5.4900000000000004E-002     2.0206889530527405E-006
   5.6000000000000022E-002    -1.5596607454426703E-006
   5.7100000000000012E-002    -1.9182200503564673E-006
   5.8200000000000002E-002     2.4742123514442937E-006
   5.9300000000000019E-002     1.0144805855816230E-005
   6.0400000000000009E-002     1.7332769857603125E-005
   6.1500000000000027E-002     2.0367884644656442E-005
   6.2600000000000017E-002     1.8133596313418821E-005
   6.3700000000000007E-002     1.2891599908471107E-005
   6.4800000000000024E-002     8.8342230810667388E-006
   6.5900000000000014E-002     9.3346216090139933E-006
   6.7000000000000004E-002     1.4841112715657800E-005
   6.8100000000000022E-002     2.2960944988881238E-005
   6.9200000000000012E-002     3.0711344152223319E-005
   7.0300000000000029E-002     3.7265348510118201E-005
   7.1400000000000019E-002     4.5035281800664961E-005
   7.2500000000000009E-002     5.8078261645277962E-005
   7.3600000000000027E-002     7.8852062870282680E-005
   7.4700000000000016E-002     1.0577656212262809E-004
   7.5800000000000006E-002     1.3368643703870475E-004
   7.6900000000000024E-002     1.5722480020485818E-004
   7.8000000000000014E-002     1.7492470215074718E-004
   7.9100000000000004E-002     1.9096165488008410E-004
   8.0200000000000021E-002     2.1309219300746918E-004
   8.1300000000000011E-002     2.4804199347272515E-004
   8.2400000000000029E-002     2.9760296456515789E-004
   8.3500000000000019E-002     3.5830365959554911E-004
   8.4600000000000009E-002     4.2486411985009909E-004
   8.5700000000000026E-002     4.9483886687085032E-004
   8.6800000000000016E-002     5.7090248446911573E-004
   8.7900000000000006E-002     6.5900792833417654E-004
   8.9000000000000024E-002     7.6388817979022861E-004
   9.0100000000000013E-002     8.8539399439468980E-004
   9.1200000000000003E-002     1.0185777209699154E-003
   9.2300000000000021E-002     1.1576605029404163E-003
   9.3400000000000011E-002     1.3008423848077655E-003
   9.4500000000000028E-002     1.4524626312777400E-003
   9.5600000000000018E-002     1.6206795116886497E-003
   9.6700000000000008E-002     1.8121874891221523E-003
   9.7800000000000026E-002     2.0277230069041252E-003
   9.8900000000000016E-002     2.2613713517785072E-003
  0.10000000000000001          2.5042709894478321E-003
  0.10110000000000002          2.7500547003000975E-003
  0.10220000000000001          2.9980782419443130E-003
  0.10330000000000003          3.2523944973945618E-003
  0.10440000000000002          3.5170759074389935E-003
  0.10550000000000001          3.7910125683993101E-003
  0.10660000000000003          4.0658870711922646E-003
  0.10770000000000002          4.3289694003760815E-003
  0.10880000000000001          4.5686559751629829E-003
  0.10990000000000003          4.7787670046091080E-003
  0.11100000000000002          4.9587697722017765E-003
  0.11210000000000001          5.1093348301947117E-003
  0.11320000000000002          5.2263843826949596E-003
  0.11430000000000001          5.2980538457632065E-003
  0.11540000000000003          5.3067482076585293E-003
  0.11650000000000002          5.2354796789586544E-003
  0.11760000000000001          5.0733429379761219E-003
  0.11870000000000003          4.8162033781409264E-003
  0.11980000000000002          4.4632349163293839E-003
  0.12090000000000001          4.0105707012116909E-003
  0.12200000000000003          3.4480658359825611E-003
  0.12310000000000001          2.7615597937256098E-003
  0.12420000000000003          1.9388596992939711E-003
  0.12530000000000002          9.7560271387919784E-004
  0.12640000000000001         -1.2435084499884397E-004
  0.12750000000000003         -1.3525176327675581E-003
  0.12860000000000002         -2.7023514267057180E-003
  0.12970000000000001         -4.1711074300110340E-003
  0.13080000000000003         -5.7572717778384686E-003
  0.13190000000000002         -7.4553666636347771E-003
  0.13300000000000001         -9.2512927949428558E-003
  0.13410000000000000         -1.1121155694127083E-002
  0.13520000000000004         -1.3035857118666172E-002
  0.13630000000000003         -1.4965187758207321E-002
  0.13740000000000002         -1.6880350187420845E-002
  0.13850000000000001         -1.8754390999674797E-002
  0.13960000000000000         -2.0559126511216164E-002
  0.14070000000000005         -2.2261934354901314E-002
  0.14180000000000004         -2.3824360221624374E-002
  0.14290000000000003         -2.5203496217727661E-002
  0.14400000000000002         -2.6356976479291916E-002
  0.14510000000000001         -2.7246819809079170E-002
  0.14620000000000000         -2.7841720730066299E-002
  0.14730000000000004         -2.8116580098867416E-002
  0.14840000000000003         -2.8047524392604828E-002
  0.14950000000000002         -2.7609836310148239E-002
  0.15060000000000001         -2.6777071878314018E-002
  0.15170000000000000         -2.5527581572532654E-002
  0.15280000000000005         -2.3849613964557648E-002
  0.15390000000000004         -2.1744741126894951E-002
  0.15500000000000003         -1.9227037206292152E-002
  0.15610000000000002         -1.6317920759320259E-002
  0.15720000000000001         -1.3042599894106388E-002
  0.15830000000000000         -9.4298152253031731E-003
  0.15940000000000004         -5.5150086991488934E-003
  0.16050000000000003         -1.3435593573376536E-003
  0.16160000000000002          3.0285506509244442E-003
  0.16270000000000001          7.5370515696704388E-003
  0.16380000000000000          1.2114478275179863E-002
  0.16490000000000005          1.6694273799657822E-002
  0.16600000000000004          2.1208897233009338E-002
  0.16710000000000003          2.5589445605874062E-002
  0.16820000000000002          2.9765309765934944E-002
  0.16930000000000001          3.3664733171463013E-002
  0.17040000000000000          3.7216629832983017E-002
  0.17150000000000004          4.0353730320930481E-002
  0.17260000000000003          4.3013345450162888E-002
  0.17370000000000002          4.5144494622945786E-002
  0.17480000000000001          4.6705070883035660E-002
  0.17590000000000000          4.7666676342487335E-002
  0.17700000000000005          4.8013892024755478E-002
  0.17810000000000004          4.7740802168846130E-002
  0.17920000000000003          4.6847119927406311E-002
  0.18030000000000002          4.5341297984123230E-002
  0.18140000000000001          4.3238718062639236E-002
  0.18250000000000000          4.0569618344306946E-002
  0.18360000000000004          3.7377558648586273E-002
  0.18470000000000003          3.3719222992658615E-002
  0.18580000000000002          2.9658619314432144E-002
  0.18690000000000001          2.5260291993618011E-002
  0.18800000000000000          2.0593462511897087E-002
  0.18910000000000005          1.5730990096926689E-002
  0.19020000000000004          1.0750746354460716E-002
  0.19130000000000003          5.7339016348123550E-003
  0.19240000000000002          7.6175516005605459E-004
  0.19350000000000001         -4.0897643193602562E-003
  0.19460000000000005         -8.7518561631441116E-003
  0.19570000000000004         -1.3161584734916687E-002
  0.19680000000000003         -1.7261715605854988E-002
  0.19790000000000002         -2.1000370383262634E-002
  0.19900000000000001         -2.4332333356142044E-002
  0.20010000000000000         -2.7220599353313446E-002
  0.20120000000000005         -2.9636502265930176E-002
  0.20230000000000004         -3.1561452895402908E-002
  0.20340000000000003         -3.2987423241138458E-002
  0.20450000000000002         -3.3918473869562149E-002
  0.20560000000000000         -3.4369539469480515E-002
  0.20670000000000005         -3.4363094717264175E-002
  0.20780000000000004         -3.3924408257007599E-002
  0.20890000000000003         -3.3080846071243286E-002
