 -0.12000000000000000          0.0000000000000000
 -0.11889999999999999          0.0000000000000000
 -0.11780000000000000          0.0000000000000000
 -0.11670000000000000          0.0000000000000000
 -0.11559999999999999          0.0000000000000000
 -0.11449999999999999          0.0000000000000000
 -0.11340000000000000         -2.2405170632102001E-023
 -0.11230000000000000         -2.7727163300101657E-022
 -0.11119999999999999         -1.4786449197140993E-021
 -0.11009999999999999         -4.5163463678155771E-021
 -0.10900000000000000         -8.2554911188586620E-021
 -0.10790000000000000         -7.0319754784126607E-021
 -0.10679999999999999          5.5832336629081720E-021
 -0.10569999999999999          2.3109880197844458E-020
 -0.10460000000000000          1.7686040765462917E-020
 -0.10349999999999999         -3.3107942791526146E-020
 -0.10239999999999999         -8.6757054939428490E-020
 -0.10130000000000000         -2.8283440949379022E-020
 -0.10020000000000000          1.7968866418474441E-019
  -9.9099999999999994E-002     2.6871008727694560E-019
  -9.7999999999999990E-002    -2.5412994330614451E-019
  -9.6899999999999986E-002    -1.3649136681736171E-018
  -9.5799999999999996E-002    -1.6050522650087334E-018
  -9.4699999999999993E-002     1.3888030578544548E-018
  -9.3599999999999989E-002     7.6161364499064440E-018
  -9.2499999999999999E-002     1.0694702512120575E-017
  -9.1399999999999995E-002    -6.2123750714448866E-019
  -9.0299999999999991E-002    -3.0048490495123854E-017
  -8.9200000000000002E-002    -5.6507070071326772E-017
  -8.8099999999999984E-002    -3.3770091876285683E-017
  -8.6999999999999994E-002     7.1044021565672485E-017
  -8.5899999999999990E-002     2.1189144597942062E-016
  -8.4799999999999986E-002     2.3641208365547716E-016
  -8.3699999999999997E-002    -2.2628523236206811E-017
  -8.2599999999999993E-002    -5.3949217182564977E-016
  -8.1499999999999989E-002    -9.3379241445919019E-016
  -8.0399999999999999E-002    -6.0807155912538375E-016
  -7.9299999999999995E-002     7.2177175625064388E-016
  -7.8199999999999992E-002     2.4210298039072358E-015
  -7.7100000000000002E-002     2.9184253382268533E-015
  -7.5999999999999984E-002     7.4339809558082227E-016
  -7.4899999999999994E-002    -3.8001908714833162E-015
  -7.3799999999999991E-002    -7.7451269681581836E-015
  -7.2699999999999987E-002    -6.8188231719856687E-015
  -7.1599999999999997E-002     1.0375205985755438E-015
  -7.0499999999999993E-002     1.2407109065452285E-014
  -6.9399999999999989E-002     1.8822715331908227E-014
  -6.8300000000000000E-002     1.2256618415779508E-014
  -6.7199999999999996E-002    -7.3582709275211468E-015
  -6.6099999999999992E-002    -2.8876596616265668E-014
  -6.5000000000000002E-002    -3.5601072599904943E-014
  -6.3899999999999985E-002    -1.7712317818495936E-014
  -6.2799999999999995E-002     1.7667641912725955E-014
  -6.1699999999999991E-002     4.8338577877862082E-014
  -6.0599999999999994E-002     5.1902994163861849E-014
  -5.9499999999999990E-002     2.3213812057505667E-014
  -5.8399999999999994E-002    -2.0299678211706078E-014
  -5.7299999999999990E-002    -5.1387801620287471E-014
  -5.6199999999999986E-002    -5.4001372601017450E-014
  -5.5099999999999996E-002    -3.4107560390383637E-014
  -5.3999999999999992E-002    -1.0105479143372384E-014
  -5.2899999999999989E-002     7.7355495666235792E-015
  -5.1799999999999985E-002     2.6865017033347004E-014
  -5.0699999999999995E-002     5.8368884541231542E-014
  -4.9599999999999991E-002     9.2029926431272391E-014
  -4.8499999999999988E-002     9.0586914326066387E-014
  -4.7399999999999998E-002     2.0440050205790955E-014
  -4.6299999999999994E-002    -1.0154043269183441E-013
  -4.5199999999999990E-002    -1.9376641675721007E-013
  -4.4099999999999986E-002    -1.6139594814692376E-013
  -4.2999999999999997E-002     1.1403410598339724E-014
  -4.1899999999999993E-002     2.0765122477409137E-013
  -4.0799999999999989E-002     2.3490378479179563E-013
  -3.9699999999999985E-002    -1.5407029561116843E-014
  -3.8599999999999995E-002    -4.1873161838942852E-013
  -3.7499999999999992E-002    -6.2432117852243008E-013
  -3.6399999999999988E-002    -2.7679483596658450E-013
  -3.5299999999999984E-002     6.5780600367812414E-013
  -3.4199999999999994E-002     1.7011525651686177E-012
  -3.3099999999999991E-002     2.0191825642057459E-012
  -3.1999999999999987E-002     9.3285568072282166E-013
  -3.0899999999999997E-002    -1.4827849234913537E-012
  -2.9799999999999993E-002    -4.1312487285283250E-012
  -2.8699999999999989E-002    -5.2719200532846955E-012
  -2.7599999999999986E-002    -3.4938686058888502E-012
  -2.6499999999999996E-002     1.1951811068611207E-012
  -2.5399999999999992E-002     6.8751892200180631E-012
  -2.4299999999999988E-002     1.0339109776658084E-011
  -2.3199999999999985E-002     8.7650858793253406E-012
  -2.2099999999999995E-002     1.6418393337588877E-012
  -2.0999999999999991E-002    -8.2438422407959955E-012
  -1.9899999999999987E-002    -1.5661283034318352E-011
  -1.8799999999999983E-002    -1.5568135322552301E-011
  -1.7699999999999994E-002    -6.2821306316684922E-012
  -1.6599999999999990E-002     8.6895326004143847E-012
  -1.5499999999999986E-002     2.1602405628207144E-011
  -1.4399999999999996E-002     2.4180539515139543E-011
  -1.3299999999999992E-002     1.2324550234532605E-011
  -1.2199999999999989E-002    -1.0827216727349320E-011
  -1.1099999999999985E-002    -3.5499238965064350E-011
  -9.9999999999999950E-003    -4.9591396961146117E-011
  -8.8999999999999913E-003    -4.4550942795984483E-011
  -7.7999999999999875E-003    -1.9565984249458879E-011
  -6.6999999999999837E-003     1.8366448986673056E-011
  -5.5999999999999939E-003     5.8646393297223653E-011
  -4.4999999999999901E-003     9.3220854646691720E-011
  -3.3999999999999864E-003     1.2118349379530713E-010
  -2.2999999999999826E-003     1.4922145463724945E-010
  -1.1999999999999927E-003     1.8776372123774365E-010
  -9.9999999999988987E-005     2.4525456665536183E-010
   1.0000000000000148E-003     3.2410252259751360E-010
   2.1000000000000185E-003     4.2082476392479862E-010
   3.2000000000000084E-003     5.3031212754461876E-010
   4.3000000000000121E-003     6.5155975059738580E-010
   5.4000000000000159E-003     7.9127515650867508E-010
   6.5000000000000058E-003     9.6313568231920499E-010
   7.6000000000000234E-003     1.1833172219866128E-009
   8.7000000000000133E-003     1.4654298885474759E-009
   9.8000000000000032E-003     1.8184698191703319E-009
   1.0900000000000021E-002     2.2494039964016110E-009
   1.2000000000000011E-002     2.7687845349788631E-009
   1.3100000000000001E-002     3.3955058764689738E-009
   1.4200000000000018E-002     4.1571635023274212E-009
   1.5300000000000008E-002     5.0854116473431077E-009
   1.6400000000000026E-002     6.2094303032722564E-009
   1.7500000000000016E-002     7.5525496967543404E-009
   1.8600000000000005E-002     9.1357028608740620E-009
   1.9700000000000023E-002     1.0987219134506176E-008
   2.0800000000000013E-002     1.3154028088990799E-008
   2.1900000000000003E-002     1.5707506406670291E-008
   2.3000000000000020E-002     1.8739491736141645E-008
   2.4100000000000010E-002     2.2349505357510679E-008
   2.5200000000000000E-002     2.6629837890368435E-008
   2.6300000000000018E-002     3.1657414467645140E-008
   2.7400000000000008E-002     3.7498484317666225E-008
   2.8500000000000025E-002     4.4225345163795282E-008
   2.9600000000000015E-002     5.1937163902948669E-008
   3.0700000000000005E-002     6.0773899690502731E-008
   3.1800000000000023E-002     7.0915284311467985E-008
   3.2900000000000013E-002     8.2564518777417106E-008
   3.4000000000000002E-002     9.5924811205350125E-008
   3.5100000000000020E-002     1.1118084586314581E-007
   3.6200000000000010E-002     1.2849477570853196E-007
   3.7300000000000028E-002     1.4801842951328581E-007
   3.8400000000000017E-002     1.6991495499496523E-007
   3.9500000000000007E-002     1.9437784715137241E-007
   4.0600000000000025E-002     2.2163739288316719E-007
   4.1700000000000015E-002     2.5195026864821557E-007
   4.2800000000000005E-002     2.8557727205225092E-007
   4.3900000000000022E-002     3.2275860917252430E-007
   4.5000000000000012E-002     3.6369672784530849E-007
   4.6100000000000002E-002     4.0855221072888526E-007
   4.7200000000000020E-002     4.5745051124868041E-007
   4.8300000000000010E-002     5.1049255489488132E-007
   4.9400000000000027E-002     5.6775974144329666E-007
   5.0500000000000017E-002     6.2930922695159097E-007
   5.1600000000000007E-002     6.9515994027824490E-007
   5.2700000000000025E-002     7.6527589953911956E-007
   5.3800000000000014E-002     8.3955325180795626E-007
   5.4900000000000004E-002     9.1781328137585660E-007
   5.6000000000000022E-002     9.9979877177247545E-007
   5.7100000000000012E-002     1.0851687193280668E-006
   5.8200000000000002E-002     1.1734881582015078E-006
   5.9300000000000019E-002     1.2642157116715680E-006
   6.0400000000000009E-002     1.3566937013820279E-006
   6.1500000000000027E-002     1.4501467830996262E-006
   6.2600000000000017E-002     1.5436897911058622E-006
   6.3700000000000007E-002     1.6363405848096590E-006
   6.4800000000000024E-002     1.7270313037442975E-006
   6.5900000000000014E-002     1.8146122329198988E-006
   6.7000000000000004E-002     1.8978494153998327E-006
   6.8100000000000022E-002     1.9754213553824229E-006
   6.9200000000000012E-002     2.0459192455746233E-006
   7.0300000000000029E-002     2.1078578811284387E-006
   7.1400000000000019E-002     2.1596933947876096E-006
   7.2500000000000009E-002     2.1998521333443932E-006
   7.3600000000000027E-002     2.2267618078330997E-006
   7.4700000000000016E-002     2.2388853722077329E-006
   7.5800000000000006E-002     2.2347519461618504E-006
   7.6900000000000024E-002     2.2129843273432925E-006
   7.8000000000000014E-002     2.1723233203374548E-006
   7.9100000000000004E-002     2.1116529751452617E-006
   8.0200000000000021E-002     2.0300244614190888E-006
   8.1300000000000011E-002     1.9266828985564644E-006
   8.2400000000000029E-002     1.8010899793807766E-006
   8.3500000000000019E-002     1.6529486401850590E-006
   8.4600000000000009E-002     1.4822281855231267E-006
   8.5700000000000026E-002     1.2891898677480640E-006
   8.6800000000000016E-002     1.0744109886218212E-006
   8.7900000000000006E-002     8.3880547663284233E-007
   8.9000000000000024E-002     5.8363457355881110E-007
   9.0100000000000013E-002     3.1050780080477125E-007
   9.1200000000000003E-002     2.1373224967646820E-008
   9.2300000000000021E-002    -2.8150171260676871E-007
   9.3400000000000011E-002    -5.9555588904913748E-007
   9.4500000000000028E-002    -9.1796442802660749E-007
   9.5600000000000018E-002    -1.2456705462682294E-006
   9.6700000000000008E-002    -1.5754181958982372E-006
   9.7800000000000026E-002    -1.9037860283788177E-006
   9.8900000000000016E-002    -2.2272251953836530E-006
  0.10000000000000001         -2.5421043119422393E-006
  0.10110000000000002         -2.8447650493035326E-006
  0.10220000000000001         -3.1315821615862660E-006
  0.10330000000000003         -3.3990281735896133E-006
  0.10440000000000002         -3.6437318158277776E-006
  0.10550000000000001         -3.8625348679488525E-006
  0.10660000000000003         -4.0525487747800071E-006
  0.10770000000000002         -4.2112092160095926E-006
  0.10880000000000001         -4.3363329496060032E-006
  0.10990000000000003         -4.4261582843319047E-006
  0.11100000000000002         -4.4793737288273405E-006
  0.11210000000000001         -4.4951320887776092E-006
  0.11320000000000002         -4.4730618355970364E-006
  0.11430000000000001         -4.4132812035968527E-006
  0.11540000000000003         -4.3164095586689655E-006
  0.11650000000000002         -4.1835687625280116E-006
  0.11760000000000001         -4.0163654375646729E-006
  0.11870000000000003         -3.8168564060470089E-006
  0.11980000000000002         -3.5875166304322192E-006
  0.12090000000000001         -3.3312082905467832E-006
  0.12200000000000003         -3.0511553177348105E-006
  0.12310000000000001         -2.7508995117386803E-006
  0.12420000000000003         -2.4342305096070049E-006
  0.12530000000000002         -2.1050946088507771E-006
  0.12640000000000001         -1.7675102981229429E-006
  0.12750000000000003         -1.4255110727390274E-006
  0.12860000000000002         -1.0831138297362486E-006
  0.12970000000000001         -7.4428476182220038E-007
  0.13080000000000003         -4.1288276975137705E-007
  0.13190000000000002         -9.2583377409027889E-008
  0.13300000000000001          2.1319101506378502E-007
  0.13410000000000000          5.0130978479501209E-007
  0.13520000000000004          7.6894559697393561E-007
  0.13630000000000003          1.0135879620065680E-006
  0.13740000000000002          1.2330816616668017E-006
  0.13850000000000001          1.4256808071877458E-006
  0.13960000000000000          1.5900832295301370E-006
  0.14070000000000005          1.7254176327696769E-006
  0.14180000000000004          1.8311936855752720E-006
  0.14290000000000003          1.9072579107159982E-006
  0.14400000000000002          1.9537894786481047E-006
  0.14510000000000001          1.9713284018507693E-006
  0.14620000000000000          1.9607853118941421E-006
  0.14730000000000004          1.9234012142987922E-006
  0.14840000000000003          1.8606614275995526E-006
  0.14950000000000002          1.7742204363457859E-006
  0.15060000000000001          1.6658830190863227E-006
  0.15170000000000000          1.5376306237158133E-006
  0.15280000000000005          1.3916363741373061E-006
  0.15390000000000004          1.2302214145165635E-006
  0.15500000000000003          1.0557589575910242E-006
  0.15610000000000002          8.7059169118219870E-007
  0.15720000000000001          6.7701466832659207E-007
  0.15830000000000000          4.7731475660839351E-007
  0.15940000000000004          2.7380249889574770E-007
  0.16050000000000003          6.8778192030549690E-008
  0.16160000000000002         -1.3555691680267046E-007
  0.16270000000000001         -3.3717284964041028E-007
  0.16380000000000000         -5.3420410495164106E-007
  0.16490000000000005         -7.2487574698243407E-007
  0.16600000000000004         -9.0743969849427231E-007
  0.16710000000000003         -1.0801929875015048E-006
  0.16820000000000002         -1.2415688388500712E-006
  0.16930000000000001         -1.3902175624025404E-006
  0.17040000000000000         -1.5250044498316129E-006
  0.17150000000000004         -1.6449267832285841E-006
  0.17260000000000003         -1.7490357322458294E-006
  0.17370000000000002         -1.8364420384386904E-006
  0.17480000000000001         -1.9064017351411167E-006
  0.17590000000000000         -1.9583983430493390E-006
  0.17700000000000005         -1.9921367311326321E-006
  0.17810000000000004         -2.0074528492841637E-006
  0.17920000000000003         -2.0042289179400541E-006
  0.18030000000000002         -1.9824026367132319E-006
  0.18140000000000001         -1.9420622265897691E-006
  0.18250000000000000         -1.8835385162674356E-006
  0.18360000000000004         -1.8074031231662957E-006
  0.18470000000000003         -1.7143709101219429E-006
  0.18580000000000002         -1.6052033515734365E-006
  0.18690000000000001         -1.4807044408371439E-006
  0.18800000000000000         -1.3418127764452947E-006
  0.18910000000000005         -1.1896941032318864E-006
  0.19020000000000004         -1.0257371059196885E-006
  0.19130000000000003         -8.5144745298748603E-007
  0.19240000000000002         -6.6833467826654669E-007
  0.19350000000000001         -4.7789131940589868E-007
  0.19460000000000005         -2.8167019650027214E-007
  0.19570000000000004         -8.1368902726808301E-008
  0.19680000000000003          1.2117696712721227E-007
  0.19790000000000002          3.2410000017080165E-007
  0.19900000000000001          5.2561699703801423E-007
  0.20010000000000000          7.2405725859425729E-007
  0.20120000000000005          9.1779446620421368E-007
  0.20230000000000004          1.1051706678699702E-006
  0.20340000000000003          1.2845071069023106E-006
  0.20450000000000002          1.4542115422955249E-006
  0.20560000000000000          1.6128938113979530E-006
  0.20670000000000005          1.7593963548279135E-006
  0.20780000000000004          1.8927260043710703E-006
  0.20890000000000003          2.0119680357311154E-006
