 -0.12000000000000000          0.0000000000000000
 -0.11889999999999999          0.0000000000000000
 -0.11780000000000000          0.0000000000000000
 -0.11670000000000000          0.0000000000000000
 -0.11559999999999999          0.0000000000000000
 -0.11449999999999999          0.0000000000000000
 -0.11340000000000000          0.0000000000000000
 -0.11230000000000000          0.0000000000000000
 -0.11119999999999999          0.0000000000000000
 -0.11009999999999999          0.0000000000000000
 -0.10900000000000000         -2.3106508366521828E-022
 -0.10790000000000000         -2.3342586541332868E-021
 -0.10679999999999999         -8.8967386549333883E-021
 -0.10569999999999999         -4.6049177012569729E-021
 -0.10460000000000000          9.7246648609487074E-020
 -0.10349999999999999          4.4148940227791407E-019
 -0.10239999999999999          7.8911696608821098E-019
 -0.10130000000000000         -5.6767053144647342E-019
 -0.10020000000000000         -6.9982623108313843E-018
  -9.9099999999999994E-002    -1.8285522272199221E-017
  -9.7999999999999990E-002    -1.7000159700908171E-017
  -9.6899999999999986E-002     4.0320707200660520E-017
  -9.5799999999999996E-002     1.8707482322785792E-016
  -9.4699999999999993E-002     3.3029867136702190E-016
  -9.3599999999999989E-002     1.2344832873829544E-016
  -9.2499999999999999E-002    -9.0881658921821307E-016
  -9.1399999999999995E-002    -2.6793524064466952E-015
  -9.0299999999999991E-002    -3.4568549601597318E-015
  -8.9200000000000002E-002     3.1847427671180908E-016
  -8.8099999999999984E-002     1.1266742679333190E-014
  -8.6999999999999994E-002     2.4856679892550429E-014
  -8.5899999999999990E-002     2.4280905858522529E-014
  -8.4799999999999986E-002    -1.3559867543589711E-014
  -8.3699999999999997E-002    -9.3143720546803171E-014
  -8.2599999999999993E-002    -1.6608605766729734E-013
  -8.1499999999999989E-002    -1.2413116053707623E-013
  -8.0399999999999999E-002     1.3473200148866188E-013
  -7.9299999999999995E-002     5.6458516247553936E-013
  -7.8199999999999992E-002     8.5026977863014719E-013
  -7.7100000000000002E-002     4.8496032493614005E-013
  -7.5999999999999984E-002    -8.3376198740242602E-013
  -7.4899999999999994E-002    -2.6397003072969882E-012
  -7.3799999999999991E-002    -3.4654863614175246E-012
  -7.2699999999999987E-002    -1.5170918991544435E-012
  -7.1599999999999997E-002     3.6996070269801340E-012
  -7.0499999999999993E-002     9.7793032352577747E-012
  -6.9399999999999989E-002     1.1563313674634035E-011
  -6.8300000000000000E-002     4.1658603650018833E-012
  -6.7199999999999996E-002    -1.2181492793639226E-011
  -6.6099999999999992E-002    -2.9048300223544210E-011
  -6.5000000000000002E-002    -3.2466241500772597E-011
  -6.3899999999999985E-002    -1.1985556644389384E-011
  -6.2799999999999995E-002     2.8855619282897038E-011
  -6.1699999999999991E-002     6.9104236222194970E-011
  -6.0599999999999994E-002     7.9520799667331943E-011
  -5.9499999999999990E-002     4.0898943953759925E-011
  -5.8399999999999994E-002    -4.0096762715657874E-011
  -5.7299999999999990E-002    -1.2917925062971847E-010
  -5.6199999999999986E-002    -1.7864550116986067E-010
  -5.5099999999999996E-002    -1.4832485240034998E-010
  -5.3999999999999992E-002    -2.2543298824895253E-011
  -5.2899999999999989E-002     1.7850344813385988E-010
  -5.1799999999999985E-002     3.8800299084762457E-010
  -5.0699999999999995E-002     4.8783599382318243E-010
  -4.9599999999999991E-002     3.3669211862985549E-010
  -4.8499999999999988E-002    -1.4159474981401132E-010
  -4.7399999999999998E-002    -8.3072337897505122E-010
  -4.6299999999999994E-002    -1.3555792044428472E-009
  -4.5199999999999990E-002    -1.2070583421674996E-009
  -4.4099999999999986E-002    -8.9626313315438466E-011
  -4.2999999999999997E-002     1.6872259145372936E-009
  -4.1899999999999993E-002     3.1171818459796441E-009
  -4.0799999999999989E-002     2.9630422559989711E-009
  -3.9699999999999985E-002     6.5089889034197768E-010
  -3.8599999999999995E-002    -2.9924032141082080E-009
  -3.7499999999999992E-002    -5.8540390313055468E-009
  -3.6399999999999988E-002    -5.7152758081713273E-009
  -3.5299999999999984E-002    -1.8651289401816484E-009
  -3.4199999999999994E-002     4.0330037087699111E-009
  -3.3099999999999991E-002     8.6689579958942886E-009
  -3.1999999999999987E-002     9.1133784962948994E-009
  -3.0899999999999997E-002     4.7485784193668223E-009
  -2.9799999999999993E-002    -2.3563215822974826E-009
  -2.8699999999999989E-002    -8.8867855296825837E-009
  -2.7599999999999986E-002    -1.2285334527462055E-008
  -2.6499999999999996E-002    -1.1635871821624733E-008
  -2.5399999999999992E-002    -6.9671024505169044E-009
  -2.4299999999999988E-002     1.6947757641716521E-009
  -2.3199999999999985E-002     1.3730291570368536E-008
  -2.2099999999999995E-002     2.5750695797910339E-008
  -2.0999999999999991E-002     3.0388747518372838E-008
  -1.9899999999999987E-002     1.9189357658433437E-008
  -1.8799999999999983E-002    -1.0287634744088336E-008
  -1.7699999999999994E-002    -4.7877975362098368E-008
  -1.6599999999999990E-002    -7.1668686985049135E-008
  -1.5499999999999986E-002    -5.9426490395253495E-008
  -1.4399999999999996E-002    -5.3606781236226198E-009
  -1.3299999999999992E-002     6.9625698984054907E-008
  -1.2199999999999989E-002     1.2438052010566025E-007
  -1.1099999999999985E-002     1.2018809059100022E-007
  -9.9999999999999950E-003     4.6629452299384866E-008
  -8.8999999999999913E-003    -6.7040303974863491E-008
  -7.7999999999999875E-003    -1.6444414541183505E-007
  -6.6999999999999837E-003    -1.9214239443954284E-007
  -5.5999999999999939E-003    -1.2891409539861343E-007
  -4.4999999999999901E-003     2.9921596311766052E-009
  -3.3999999999999864E-003     1.4924624736067926E-007
  -2.2999999999999826E-003     2.4815673782541126E-007
  -1.1999999999999927E-003     2.5455668151153077E-007
  -9.9999999999988987E-005     1.5444754808413563E-007
   1.0000000000000148E-003    -2.9486523445143575E-008
   2.1000000000000185E-003    -2.3907819013402332E-007
   3.2000000000000084E-003    -3.9091310100047849E-007
   4.3000000000000121E-003    -4.0145232560462318E-007
   5.4000000000000159E-003    -2.2652140785339725E-007
   6.5000000000000058E-003     1.0040552922419010E-007
   7.6000000000000234E-003     4.5781189328408800E-007
   8.7000000000000133E-003     6.7370524448051583E-007
   9.8000000000000032E-003     6.0525604794747778E-007
   1.0900000000000021E-002     2.2409618338770088E-007
   1.2000000000000011E-002    -3.4236049373248534E-007
   1.3100000000000001E-002    -8.4672586808665073E-007
   1.4200000000000018E-002    -1.0282735729560954E-006
   1.5300000000000008E-002    -7.4371507707837736E-007
   1.6400000000000026E-002    -5.7054108992815600E-008
   1.7500000000000016E-002     7.6218935873839655E-007
   1.8600000000000005E-002     1.3423342579699238E-006
   1.9700000000000023E-002     1.3756156249655760E-006
   2.0800000000000013E-002     7.7349380944724544E-007
   2.1900000000000003E-002    -2.6529249907980557E-007
   2.3000000000000020E-002    -1.3162950835976517E-006
   2.4100000000000010E-002    -1.9035467175854137E-006
   2.5200000000000000E-002    -1.7123215911851730E-006
   2.6300000000000018E-002    -7.4282291961935698E-007
   2.7400000000000008E-002     6.6755887928593438E-007
   2.8500000000000025E-002     1.9646113287308253E-006
   2.9600000000000015E-002     2.5890717552101705E-006
   3.0700000000000005E-002     2.1971679871057859E-006
   3.1800000000000023E-002     8.1392681750003248E-007
   3.2900000000000013E-002    -1.1300105597911170E-006
   3.4000000000000002E-002    -2.9011348487983923E-006
   3.5100000000000020E-002    -3.7022259675723035E-006
   3.6200000000000010E-002    -3.0009694000909803E-006
   3.7300000000000028E-002    -8.3598945366247790E-007
   3.8400000000000017E-002     2.0616892015823396E-006
   3.9500000000000007E-002     4.4655289457296021E-006
   4.0600000000000025E-002     5.1641814025060739E-006
   4.1700000000000015E-002     3.5840280361298937E-006
   4.2800000000000005E-002     1.9141405971367931E-007
   4.3900000000000022E-002    -3.6020587685925420E-006
   4.5000000000000012E-002    -6.0572010625037365E-006
   4.6100000000000002E-002    -5.9620524552883580E-006
   4.7200000000000020E-002    -3.2663474485161714E-006
   4.8300000000000010E-002     8.6512289954043808E-007
   4.9400000000000027E-002     4.6198301788535900E-006
   5.0500000000000017E-002     6.4153273342526518E-006
   5.1600000000000007E-002     5.6153389778046403E-006
   5.2700000000000025E-002     2.7295795916870702E-006
   5.3800000000000014E-002    -9.4772565262246644E-007
   5.4900000000000004E-002    -4.0021768654696643E-006
   5.6000000000000022E-002    -5.4867191465746146E-006
   5.7100000000000012E-002    -5.1619044825201854E-006
   5.8200000000000002E-002    -3.3639951197983464E-006
   5.9300000000000019E-002    -6.9482672415688285E-007
   6.0400000000000009E-002     2.2145568436826579E-006
   6.1500000000000027E-002     4.7399471441167407E-006
   6.2600000000000017E-002     6.1879936765762977E-006
   6.3700000000000007E-002     5.8337905102234799E-006
   6.4800000000000024E-002     3.2344601095246617E-006
   6.5900000000000014E-002    -1.2758138154822518E-006
   6.7000000000000004E-002    -6.2720896494283807E-006
   6.8100000000000022E-002    -9.5178957053576596E-006
   6.9200000000000012E-002    -8.9499098976375535E-006
   7.0300000000000029E-002    -3.9610208659723867E-006
   7.1400000000000019E-002     3.8073367250035517E-006
   7.2500000000000009E-002     1.0849669706658460E-005
   7.3600000000000027E-002     1.3412859516392928E-005
   7.4700000000000016E-002     9.5814039013930596E-006
   7.5800000000000006E-002     6.1194094769234653E-007
   7.6900000000000024E-002    -9.3948774519958533E-006
   7.8000000000000014E-002    -1.5471254300791770E-005
   7.9100000000000004E-002    -1.4382016161107458E-005
   8.0200000000000021E-002    -6.3951015363272745E-006
   8.1300000000000011E-002     4.7893713599478360E-006
   8.2400000000000029E-002     1.3909744666307233E-005
   8.3500000000000019E-002     1.6780422811280005E-005
   8.4600000000000009E-002     1.2274504115339369E-005
   8.5700000000000026E-002     2.6844620606425451E-006
   8.6800000000000016E-002    -7.6083683779870626E-006
   8.7900000000000006E-002    -1.4306460798252374E-005
   8.9000000000000024E-002    -1.5065414117998444E-005
   9.0100000000000013E-002    -1.0200488759437576E-005
   9.1200000000000003E-002    -2.1060870949440869E-006
   9.2300000000000021E-002     6.0834945543319918E-006
   9.3400000000000011E-002     1.1753084436350036E-005
   9.4500000000000028E-002     1.3474002116709016E-005
   9.5600000000000018E-002     1.1004748557752464E-005
   9.6700000000000008E-002     5.0153726078860927E-006
   9.7800000000000026E-002    -2.9935745260445401E-006
   9.8900000000000016E-002    -1.0687489520933013E-005
  0.10000000000000001         -1.5205363524728455E-005
  0.10110000000000002         -1.4093380741542205E-005
  0.10220000000000001         -6.7860091803595424E-006
  0.10330000000000003          4.4065718611818738E-006
  0.10440000000000002          1.4606113836634904E-005
  0.10550000000000001          1.8457880287314765E-005
  0.10660000000000003          1.3139662769390270E-005
  0.10770000000000002          5.0545440899441019E-007
  0.10880000000000001         -1.3164808478904888E-005
  0.10990000000000003         -2.0319504983490333E-005
  0.11100000000000002         -1.6480422345921397E-005
  0.11210000000000001         -3.1274721550289541E-006
  0.11320000000000002          1.2689235518337227E-005
  0.11430000000000001          2.1983420083415695E-005
  0.11540000000000003          1.9119570424663834E-005
  0.11650000000000002          5.1755828280874994E-006
  0.11760000000000001         -1.2394542864058167E-005
  0.11870000000000003         -2.3783955839462578E-005
  0.11980000000000002         -2.2440843167714775E-005
  0.12090000000000001         -8.8766864791978151E-006
  0.12200000000000003          9.7351339718443342E-006
  0.12310000000000001          2.3207852791529149E-005
  0.12420000000000003          2.4239967387984507E-005
  0.12530000000000002          1.2619921108125709E-005
  0.12640000000000001         -4.9564778237254359E-006
  0.12750000000000003         -1.8960343368235044E-005
  0.12860000000000002         -2.2295955204754137E-005
  0.12970000000000001         -1.4449859008891508E-005
  0.13080000000000003         -9.6269525329262251E-007
  0.13190000000000002          1.0646666851243936E-005
  0.13300000000000001          1.5319892554543912E-005
  0.13410000000000000          1.2981879081053194E-005
  0.13520000000000004          7.2532784543000162E-006
  0.13630000000000003          2.0731322365463711E-006
  0.13740000000000002         -1.0448595730849775E-006
  0.13850000000000001         -3.6096355415793369E-006
  0.13960000000000000         -7.7177246566861868E-006
  0.14070000000000005         -1.3395406313065905E-005
  0.14180000000000004         -1.7193431631312706E-005
  0.14290000000000003         -1.4469795132754371E-005
  0.14400000000000002         -2.7876674266735790E-006
  0.14510000000000001          1.5334571799030527E-005
  0.14620000000000000          3.1691823096480221E-005
  0.14730000000000004          3.6714674934046343E-005
  0.14840000000000003          2.4617622329969890E-005
  0.14950000000000002         -1.9239635093981633E-006
  0.15060000000000001         -3.1561612559016794E-005
  0.15170000000000000         -4.9461526941740885E-005
  0.15280000000000005         -4.5241456973599270E-005
  0.15390000000000004         -1.9433422494330443E-005
  0.15500000000000003          1.6273608707706444E-005
  0.15610000000000002          4.4637774408329278E-005
  0.15720000000000001          5.2532839617924765E-005
  0.15830000000000000          3.7153648008825257E-005
  0.15940000000000004          6.9381280809466261E-006
  0.16050000000000003         -2.3848509954405017E-005
  0.16160000000000002         -4.2648185626603663E-005
  0.16270000000000001         -4.3844698666362092E-005
  0.16380000000000000         -2.9387292670435272E-005
  0.16490000000000005         -6.1850082602177281E-006
  0.16600000000000004          1.7462381947552785E-005
  0.16710000000000003          3.4435353882145137E-005
  0.16820000000000002          4.0061153413262218E-005
  0.16930000000000001          3.2771353289717808E-005
  0.17040000000000000          1.4405990441446193E-005
  0.17150000000000004         -9.7809952421812341E-006
  0.17260000000000003         -3.2149586331797764E-005
  0.17370000000000002         -4.4950917072128505E-005
  0.17480000000000001         -4.2758623749250546E-005
  0.17590000000000000         -2.4881883291527629E-005
  0.17700000000000005          4.0462914512318093E-006
  0.17810000000000004          3.4200591471744701E-005
  0.17920000000000003          5.3452888096217066E-005
  0.18030000000000002          5.2374092774698511E-005
  0.18140000000000001          2.9094380806782283E-005
  0.18250000000000000         -7.8792982094455510E-006
  0.18360000000000004         -4.2204901546938345E-005
  0.18470000000000003         -5.7631903473520651E-005
  0.18580000000000002         -4.7237390390364453E-005
  0.18690000000000001         -1.7342423234367743E-005
  0.18800000000000000          1.6252553905360401E-005
  0.18910000000000005          3.7994224840076640E-005
  0.19020000000000004          4.1115803469438106E-005
  0.19130000000000003          2.9382490538409911E-005
  0.19240000000000002          1.1936468581552617E-005
  0.19350000000000001         -3.3882276966323843E-006
  0.19460000000000005         -1.4591907529393211E-005
  0.19570000000000004         -2.2750211428501643E-005
  0.19680000000000003         -2.7891621357412077E-005
  0.19790000000000002         -2.7220150514040142E-005
  0.19900000000000001         -1.7401629520463757E-005
  0.20010000000000000          1.5247484270730638E-006
  0.20120000000000005          2.3806307581253350E-005
  0.20230000000000004          4.0412163798464462E-005
  0.20340000000000003          4.3708059820346534E-005
  0.20450000000000002          3.0771436286158860E-005
  0.20560000000000000          4.4474277274275664E-006
  0.20670000000000005         -2.7224841687711887E-005
  0.20780000000000004         -5.2769180911127478E-005
  0.20890000000000003         -6.0652662796201184E-005
