 -0.12000000000000000          0.0000000000000000
 -0.11889999999999999          0.0000000000000000
 -0.11780000000000000          0.0000000000000000
 -0.11670000000000000          0.0000000000000000
 -0.11559999999999999          0.0000000000000000
 -0.11449999999999999          0.0000000000000000
 -0.11340000000000000          0.0000000000000000
 -0.11230000000000000          0.0000000000000000
 -0.11119999999999999          0.0000000000000000
 -0.11009999999999999          0.0000000000000000
 -0.10900000000000000          0.0000000000000000
 -0.10790000000000000          0.0000000000000000
 -0.10679999999999999          2.6547527208160572E-022
 -0.10569999999999999          3.3326376836325357E-022
 -0.10460000000000000         -1.7310285894275034E-020
 -0.10349999999999999         -1.2272939494525506E-019
 -0.10239999999999999         -2.9581847616092757E-019
 -0.10130000000000000          4.1767714718919692E-019
 -0.10020000000000000          4.8546928229813612E-018
  -9.9099999999999994E-002     1.3335604830691062E-017
  -9.7999999999999990E-002     5.9926762109435321E-018
  -9.6899999999999986E-002    -7.2048238681646562E-017
  -9.5799999999999996E-002    -2.4574958957755135E-016
  -9.4699999999999993E-002    -2.9018639382839004E-016
  -9.3599999999999989E-002     4.3990867873888902E-016
  -9.2499999999999999E-002     2.4154957141463498E-015
  -9.1399999999999995E-002     4.0443523536941046E-015
  -9.0299999999999991E-002     2.0253035548372132E-016
  -8.9200000000000002E-002    -1.3862846993657838E-014
  -8.8099999999999984E-002    -3.0383156521306479E-014
  -8.6999999999999994E-002    -1.9735469565539988E-014
  -8.5899999999999990E-002     4.8625298530507663E-014
  -8.4799999999999986E-002     1.4316011483911373E-013
  -8.3699999999999997E-002     1.2621394001547520E-013
  -8.2599999999999993E-002    -1.4046634677893771E-013
  -8.1499999999999989E-002    -5.0666870872462244E-013
  -8.0399999999999999E-002    -3.6917937782342258E-013
  -7.9299999999999995E-002     7.9429860041710376E-013
  -7.8199999999999992E-002     2.1297345397658374E-012
  -7.7100000000000002E-002     7.9455170741427050E-013
  -7.5999999999999984E-002    -5.5029284080909679E-012
  -7.4899999999999994E-002    -1.2645117591914001E-011
  -7.3799999999999991E-002    -7.0570437514516637E-012
  -7.2699999999999987E-002     2.4094243961103601E-011
  -7.1599999999999997E-002     6.7650982038536256E-011
  -7.0499999999999993E-002     6.6790177555287045E-011
  -6.9399999999999989E-002    -4.7438122874332578E-011
  -6.8300000000000000E-002    -2.5984603357898095E-010
  -6.7199999999999996E-002    -3.8023834081357677E-010
  -6.6099999999999992E-002    -1.0779342002331660E-010
  -6.5000000000000002E-002     6.5876470944914445E-010
  -6.3899999999999985E-002     1.4405489023872065E-009
  -6.2799999999999995E-002     1.2013332550964151E-009
  -6.1699999999999991E-002    -8.2791395961123726E-010
  -6.0599999999999994E-002    -3.8474832209089982E-009
  -5.9499999999999990E-002    -5.0148272201511190E-009
  -5.8399999999999994E-002    -1.2122383097334932E-009
  -5.7299999999999990E-002     7.2410379914344958E-009
  -5.6199999999999986E-002     1.4058428199348327E-008
  -5.5099999999999996E-002     9.8801091752420689E-009
  -5.3999999999999992E-002    -8.6700095991432136E-009
  -5.2899999999999989E-002    -3.0305919551665284E-008
  -5.1799999999999985E-002    -3.1910101228049825E-008
  -5.0699999999999995E-002     2.0630064323512443E-009
  -4.9599999999999991E-002     5.5510131602432011E-008
  -4.8499999999999988E-002     7.8195057540142443E-008
  -4.7399999999999998E-002     2.2991846648778846E-008
  -4.6299999999999994E-002    -9.5256076804162149E-008
  -4.5199999999999990E-002    -1.7612939018363249E-007
  -4.4099999999999986E-002    -9.7402853782568855E-008
  -4.2999999999999997E-002     1.5292067701011547E-007
  -4.1899999999999993E-002     3.8989628592389636E-007
  -4.0799999999999989E-002     3.2249977266474161E-007
  -3.9699999999999985E-002    -1.7267835517031926E-007
  -3.8599999999999995E-002    -8.0127398405238637E-007
  -3.7499999999999992E-002    -9.2909272098040674E-007
  -3.6399999999999988E-002    -9.5704280056452262E-008
  -3.5299999999999984E-002     1.3641490568261361E-006
  -3.4199999999999994E-002     2.2286217244982254E-006
  -3.3099999999999991E-002     1.2253098020664765E-006
  -3.1999999999999987E-002    -1.6189767393370857E-006
  -3.0899999999999997E-002    -4.3151667341589928E-006
  -2.9799999999999993E-002    -4.0058894228423014E-006
  -2.8699999999999989E-002     4.7470797426285571E-007
  -2.7599999999999986E-002     6.5785811784735415E-006
  -2.6499999999999996E-002     8.9395671238889918E-006
  -2.5399999999999992E-002     3.5849557207257021E-006
  -2.4299999999999988E-002    -7.4353242780489381E-006
  -2.3199999999999985E-002    -1.5592795534757897E-005
  -2.2099999999999995E-002    -1.1806670045189094E-005
  -2.0999999999999991E-002     4.7034914132382255E-006
  -1.9899999999999987E-002     2.2474416255136020E-005
  -1.8799999999999983E-002     2.4641838535899296E-005
  -1.7699999999999994E-002     3.7124527807463892E-006
  -1.6599999999999990E-002    -2.7685979148373008E-005
  -1.5499999999999986E-002    -4.2302817746531218E-005
  -1.4399999999999996E-002    -2.0221366867190227E-005
  -1.3299999999999992E-002     2.8964996090508066E-005
  -1.2199999999999989E-002     6.5763946622610092E-005
  -1.1099999999999985E-002     4.9835020035970956E-005
  -9.9999999999999950E-003    -2.0612627849914134E-005
  -8.8999999999999913E-003    -9.4582006568089128E-005
  -7.7999999999999875E-003    -1.0116014163941145E-004
  -6.6999999999999837E-003    -1.2035036888846662E-005
  -5.5999999999999939E-003     1.1805671965703368E-004
  -4.4999999999999901E-003     1.7858089995570481E-004
  -3.3999999999999864E-003     9.1629197413567454E-005
  -2.2999999999999826E-003    -1.0553477477515116E-004
  -1.1999999999999927E-003    -2.6353937573730946E-004
  -9.9999999999988987E-005    -2.2924339282326400E-004
   1.0000000000000148E-003     1.5086134226294234E-005
   2.1000000000000185E-003     3.0328234424814582E-004
   3.2000000000000084E-003     3.9323157398030162E-004
   4.3000000000000121E-003     1.6712122305762023E-004
   5.4000000000000159E-003    -2.3895456979516894E-004
   6.5000000000000058E-003    -5.0777418073266745E-004
   7.6000000000000234E-003    -3.8900255458429456E-004
   8.7000000000000133E-003     6.9306224759202451E-005
   9.8000000000000032E-003     5.1685638027265668E-004
   1.0900000000000021E-002     5.6595134083181620E-004
   1.2000000000000011E-002     1.2959854211658239E-004
   1.3100000000000001E-002    -4.5986595796421170E-004
   1.4200000000000018E-002    -6.9100566906854510E-004
   1.5300000000000008E-002    -3.0842455453239381E-004
   1.6400000000000026E-002     4.2088996269740164E-004
   1.7500000000000016E-002     8.7355531286448240E-004
   1.8600000000000005E-002     5.8000616263598204E-004
   1.9700000000000023E-002    -3.2930079032666981E-004
   2.0800000000000013E-002    -1.1471832403913140E-003
   2.1900000000000003E-002    -1.1248338269069791E-003
   2.3000000000000020E-002    -1.1719122994691133E-004
   2.4100000000000010E-002     1.2054473627358675E-003
   2.5200000000000000E-002     1.8095357809215784E-003
   2.6300000000000018E-002     1.1030230671167374E-003
   2.7400000000000008E-002    -5.4101285059005022E-004
   2.8500000000000025E-002    -1.9903085194528103E-003
   2.9600000000000015E-002    -2.1698130294680595E-003
   3.0700000000000005E-002    -8.7371189147233963E-004
   3.1800000000000023E-002     1.0560633381828666E-003
   3.2900000000000013E-002     2.3274351842701435E-003
   3.4000000000000002E-002     2.1174345165491104E-003
   3.5100000000000020E-002     6.2625401187688112E-004
   3.6200000000000010E-002    -1.1190291261300445E-003
   3.7300000000000028E-002    -2.0212626550346613E-003
   3.8400000000000017E-002    -1.6497212927788496E-003
   3.9500000000000007E-002    -4.4469293789006770E-004
   4.0600000000000025E-002     6.9277291186153889E-004
   4.1700000000000015E-002     1.0743222665041685E-003
   4.2800000000000005E-002     6.7250931169837713E-004
   4.3900000000000022E-002     6.0375390603439882E-005
   4.5000000000000012E-002    -8.1771933764684945E-005
   4.6100000000000002E-002     4.5911615598015487E-004
   4.7200000000000020E-002     1.1783345835283399E-003
   4.8300000000000010E-002     1.1515078367665410E-003
   4.9400000000000027E-002    -2.3380070342682302E-004
   5.0500000000000017E-002    -2.5729932822287083E-003
   5.1600000000000007E-002    -4.3524862267076969E-003
   5.2700000000000025E-002    -3.7744317669421434E-003
   5.3800000000000014E-002    -1.5344747225753963E-004
   5.4900000000000004E-002     5.0744083710014820E-003
   5.6000000000000022E-002     8.7123624980449677E-003
   5.7100000000000012E-002     7.6939454302191734E-003
   5.8200000000000002E-002     1.4341555070132017E-003
   5.9300000000000019E-002    -7.1122902445495129E-003
   6.0400000000000009E-002    -1.2822909280657768E-002
   6.1500000000000027E-002    -1.1641694232821465E-002
   6.2600000000000017E-002    -3.5303358454257250E-003
   6.3700000000000007E-002     7.1086352691054344E-003
   6.4800000000000024E-002     1.4094824902713299E-002
   6.5900000000000014E-002     1.3471039943397045E-002
   6.7000000000000004E-002     5.9930910356342793E-003
   6.8100000000000022E-002    -3.6606132052838802E-003
   6.9200000000000012E-002    -1.0247567668557167E-002
   7.0300000000000029E-002    -1.1275478638708591E-002
   7.1400000000000019E-002    -7.8826034441590309E-003
   7.2500000000000009E-002    -3.0095479451119900E-003
   7.3600000000000027E-002     1.2279321672394872E-003
   7.4700000000000016E-002     4.6446854248642921E-003
   7.5800000000000006E-002     7.8701097518205643E-003
   7.6900000000000024E-002     1.0438185185194016E-002
   7.8000000000000014E-002     1.0225701145827770E-002
   7.9100000000000004E-002     5.0735608674585819E-003
   8.0200000000000021E-002    -4.6913456171751022E-003
   8.1300000000000011E-002    -1.5140075236558914E-002
   8.2400000000000029E-002    -2.0364580675959587E-002
   8.3500000000000019E-002    -1.6034537926316261E-002
   8.4600000000000009E-002    -2.5345575995743275E-003
   8.5700000000000026E-002     1.4475776813924313E-002
   8.6800000000000016E-002     2.6582460850477219E-002
   8.7900000000000006E-002     2.6884712278842926E-002
   8.9000000000000024E-002     1.3777211308479309E-002
   9.0100000000000013E-002    -7.6809399761259556E-003
   9.1200000000000003E-002    -2.7633404359221458E-002
   9.2300000000000021E-002    -3.5938251763582230E-002
   9.3400000000000011E-002    -2.7394117787480354E-002
   9.4500000000000028E-002    -4.9980049952864647E-003
   9.5600000000000018E-002     2.0925592631101608E-002
   9.6700000000000008E-002     3.7822160869836807E-002
   9.7800000000000026E-002     3.7617623805999756E-002
   9.8900000000000016E-002     2.0983284339308739E-002
  0.10000000000000001         -3.6011976189911366E-003
  0.10110000000000002         -2.5216301903128624E-002
  0.10220000000000001         -3.6377001553773880E-002
  0.10330000000000003         -3.5402253270149231E-002
  0.10440000000000002         -2.4495733901858330E-002
  0.10550000000000001         -6.4993528649210930E-003
  0.10660000000000003          1.5943281352519989E-002
  0.10770000000000002          3.8143355399370193E-002
  0.10880000000000001          5.1458343863487244E-002
  0.10990000000000003          4.5874368399381638E-002
  0.11100000000000002          1.7263380810618401E-002
  0.11210000000000001         -2.5958510115742683E-002
  0.11320000000000002         -6.3659965991973877E-002
  0.11430000000000001         -7.4349865317344666E-002
  0.11540000000000003         -4.9227342009544373E-002
  0.11650000000000002          2.9758302844129503E-004
  0.11760000000000001          4.8155497759580612E-002
  0.11870000000000003          6.9352254271507263E-002
  0.11980000000000002          5.5193979293107986E-002
  0.12090000000000001          1.7510741949081421E-002
  0.12200000000000003         -2.0628791302442551E-002
  0.12310000000000001         -4.0296796709299088E-002
  0.12420000000000003         -3.7279393523931503E-002
  0.12530000000000002         -2.1367151290178299E-002
  0.12640000000000001         -6.5711112692952156E-003
  0.12750000000000003         -6.4672570442780852E-004
  0.12860000000000002         -1.0396094294264913E-003
  0.12970000000000001          6.8463507341220975E-004
  0.13080000000000003          1.0329240001738071E-002
  0.13190000000000002          2.4922104552388191E-002
  0.13300000000000001          3.3298373222351074E-002
  0.13410000000000000          2.3485790938138962E-002
  0.13520000000000004         -6.9974442012608051E-003
  0.13630000000000003         -4.5470241457223892E-002
  0.13740000000000002         -6.7899301648139954E-002
  0.13850000000000001         -5.3079813718795776E-002
  0.13960000000000000          4.0518605965189636E-004
  0.14070000000000005          6.6765561699867249E-002
  0.14180000000000004         0.10405508428812027
  0.14290000000000003          8.0733276903629303E-002
  0.14400000000000002          4.8612616956233978E-004
  0.14510000000000001         -9.3086227774620056E-002
  0.14620000000000000        -0.14063458144664764
  0.14730000000000004        -0.10609079897403717
  0.14840000000000003         -4.4135549105703831E-003
  0.14950000000000002         0.10512871295213699
  0.15060000000000001         0.15644131600856781
  0.15170000000000000         0.11953009665012360
  0.15280000000000005          1.9922006875276566E-002
  0.15390000000000004         -7.9631604254245758E-002
  0.15500000000000003        -0.12205282598733902
  0.15610000000000002         -9.0312674641609192E-002
  0.15720000000000001         -1.4348492026329041E-002
  0.15830000000000000          5.5914580821990967E-002
  0.15940000000000004          8.3421021699905396E-002
  0.16050000000000003          6.2957607209682465E-002
  0.16160000000000002          1.8381336703896523E-002
  0.16270000000000001         -1.9185235723853111E-002
  0.16380000000000000         -3.0587306246161461E-002
  0.16490000000000005         -1.7059497535228729E-002
  0.16600000000000004          4.9456441774964333E-003
  0.16710000000000003          1.6985571011900902E-002
  0.16820000000000002          1.1314261704683304E-002
  0.16930000000000001         -5.8053750544786453E-003
  0.17040000000000000         -1.3848990201950073E-002
  0.17150000000000004          2.2223910782486200E-003
  0.17260000000000003          3.9896465837955475E-002
  0.17370000000000002          7.2415076196193695E-002
  0.17480000000000001          6.3951298594474792E-002
  0.17590000000000000         -4.0178489871323109E-004
  0.17700000000000005         -9.3769438564777374E-002
  0.17810000000000004        -0.15732377767562866
  0.17920000000000003        -0.13658626377582550
  0.18030000000000002         -2.7646806091070175E-002
  0.18140000000000001         0.11206004023551941
  0.18250000000000000         0.19711005687713623
  0.18360000000000004         0.17193776369094849
  0.18470000000000003          5.1954463124275208E-002
  0.18580000000000002         -8.8450945913791656E-002
  0.18690000000000001        -0.16857090592384338
  0.18800000000000000        -0.15534734725952148
  0.18910000000000005         -7.8086100518703461E-002
  0.19020000000000004          3.2465234398841858E-003
  0.19130000000000003          4.4754359871149063E-002
  0.19240000000000002          4.3561447411775589E-002
  0.19350000000000001          2.6045175269246101E-002
  0.19460000000000005          1.7495071515440941E-002
  0.19570000000000004          2.1626180037856102E-002
  0.19680000000000003          2.5162046775221825E-002
  0.19790000000000002          1.3940528966486454E-002
  0.19900000000000001         -1.3853887096047401E-002
  0.20010000000000000         -4.9568023532629013E-002
  0.20120000000000005         -7.9142801463603973E-002
  0.20230000000000004         -8.6441598832607269E-002
  0.20340000000000003         -5.4302729666233063E-002
  0.20450000000000002          2.2879775613546371E-002
  0.20560000000000000         0.12229675799608231
  0.20670000000000005         0.18651089072227478
  0.20780000000000004         0.15369595587253571
  0.20890000000000003          6.3972501084208488E-003
