 -0.12000000000000000          0.0000000000000000
 -0.11889999999999999          0.0000000000000000
 -0.11780000000000000          0.0000000000000000
 -0.11670000000000000          0.0000000000000000
 -0.11559999999999999          0.0000000000000000
 -0.11449999999999999          0.0000000000000000
 -0.11340000000000000          0.0000000000000000
 -0.11230000000000000          0.0000000000000000
 -0.11119999999999999          0.0000000000000000
 -0.11009999999999999          0.0000000000000000
 -0.10900000000000000         -4.0347136025718331E-036
 -0.10790000000000000         -1.6016483611656809E-034
 -0.10679999999999999         -2.3253485984592485E-033
 -0.10569999999999999         -1.8363938621162469E-032
 -0.10460000000000000         -9.2519798439378898E-032
 -0.10349999999999999         -3.1571516611955660E-031
 -0.10239999999999999         -7.1135336864587136E-031
 -0.10130000000000000         -8.0732547644418023E-031
 -0.10020000000000000          8.7320356528799159E-031
  -9.9099999999999994E-002     5.8290195696824080E-030
  -9.7999999999999990E-002     1.0645610117204981E-029
  -9.6899999999999986E-002     3.8266970216018997E-031
  -9.5799999999999996E-002    -4.2804900423724339E-029
  -9.4699999999999993E-002    -9.0143355677101165E-029
  -9.3599999999999989E-002    -7.5080958884760596E-031
  -9.2499999999999999E-002     3.8678508851027189E-028
  -9.1399999999999995E-002     7.5749145458332973E-028
  -9.0299999999999991E-002    -2.9941619139986852E-028
  -8.9200000000000002E-002    -4.2898772175143718E-027
  -8.8099999999999984E-002    -7.8344249391547276E-027
  -8.6999999999999994E-002     3.3607627752092928E-027
  -8.5899999999999990E-002     4.5027394690598044E-026
  -8.4799999999999986E-002     8.7819256183412893E-026
  -8.3699999999999997E-002    -5.2304034688154257E-028
  -8.2599999999999993E-002    -3.8342756861590296E-025
  -8.1499999999999989E-002    -8.7246931433699227E-025
  -8.0399999999999999E-002    -4.1603330989237016E-025
  -7.9299999999999995E-002     2.4935053077172123E-024
  -7.8199999999999992E-002     7.1062893816151989E-024
  -7.7100000000000002E-002     6.4082867144443749E-024
  -7.5999999999999984E-002    -1.1437237514335327E-023
  -7.4899999999999994E-002    -4.6692891550197909E-023
  -7.3799999999999991E-002    -6.0637244983878679E-023
  -7.2699999999999987E-002     2.5233154935785186E-023
  -7.1599999999999997E-002     2.4524791921687823E-022
  -7.0499999999999993E-002     4.2652732219955083E-022
  -6.9399999999999989E-002     1.2864715874440397E-022
  -6.8300000000000000E-002    -9.9751994104080148E-022
  -6.7199999999999996E-002    -2.3675136977489410E-021
  -6.6099999999999992E-002    -1.8923170150892664E-021
  -6.5000000000000002E-002     2.7919312651000198E-021
  -6.3899999999999985E-002     1.0552755856851684E-020
  -6.2799999999999995E-002     1.3087423854028125E-020
  -6.1699999999999991E-002    -2.1130964885101062E-021
  -6.0599999999999994E-002    -3.7232581980793785E-020
  -5.9499999999999990E-002    -6.5385480258580015E-020
  -5.8399999999999994E-002    -3.2281657214245295E-020
  -5.7299999999999990E-002     9.6411603318766257E-020
  -5.6199999999999986E-002     2.5548631271557834E-019
  -5.5099999999999996E-002     2.4912425982927987E-019
  -5.3999999999999992E-002    -1.2404291898389805E-019
  -5.2899999999999989E-002    -7.8497506596600484E-019
  -5.1799999999999985E-002    -1.1530509998077072E-018
  -5.0699999999999995E-002    -3.8010308824943506E-019
  -4.9599999999999991E-002     1.7810098147182837E-018
  -4.8499999999999988E-002     3.9844814477827125E-018
  -4.7399999999999998E-002     3.3937715064335879E-018
  -4.6299999999999994E-002    -2.1366983052966982E-018
  -4.5199999999999990E-002    -1.0597704831950770E-017
  -4.4099999999999986E-002    -1.4323911127582681E-017
  -4.2999999999999997E-002    -4.2214600078827231E-018
  -4.1899999999999993E-002     2.0337444697671738E-017
  -4.0799999999999989E-002     4.3158839982946313E-017
  -3.9699999999999985E-002     3.5949371991950539E-017
  -3.8599999999999995E-002    -1.8544136981991475E-017
  -3.7499999999999992E-002    -9.7362943275974400E-017
  -3.6399999999999988E-002    -1.3150236798704256E-016
  -3.5299999999999984E-002    -4.8232858504575191E-017
  -3.4199999999999994E-002     1.5046637688488228E-016
  -3.3099999999999991E-002     3.3529055416254671E-016
  -3.1999999999999987E-002     2.9965386636830857E-016
  -3.0899999999999997E-002    -7.1766242884659884E-017
  -2.9799999999999993E-002    -6.1949379841910799E-016
  -2.8699999999999989E-002    -8.9770637568643364E-016
  -2.7599999999999986E-002    -4.5528952651160623E-016
  -2.6499999999999996E-002     7.0597284477889747E-016
  -2.5399999999999992E-002     1.8654666112755342E-015
  -2.4299999999999988E-002     1.8926199464656653E-015
  -2.3199999999999985E-002     1.3714469267671987E-016
  -2.2099999999999995E-002    -2.6787378840434622E-015
  -2.0999999999999991E-002    -4.4497817092820600E-015
  -1.9899999999999987E-002    -3.0124307487790301E-015
  -1.8799999999999983E-002     1.8346765401263667E-015
  -1.7699999999999994E-002     7.2340484636086201E-015
  -1.6599999999999990E-002     8.5610009614147872E-015
  -1.5499999999999986E-002     2.9232119214117874E-015
  -1.4399999999999996E-002    -7.4878313930672701E-015
  -1.3299999999999992E-002    -1.5374220586937895E-014
  -1.2199999999999989E-002    -1.2956261700980930E-014
  -1.1099999999999985E-002     1.2592521189474463E-015
  -9.9999999999999950E-003     1.8971686404473630E-014
  -8.8999999999999913E-003     2.6158232413367281E-014
  -7.7999999999999875E-003     1.3581366933856920E-014
  -6.6999999999999837E-003    -1.3652263591542105E-014
  -5.5999999999999939E-003    -3.6357994794098542E-014
  -4.4999999999999901E-003    -3.4086262593957875E-014
  -3.3999999999999864E-003    -2.6884849039257542E-015
  -2.2999999999999826E-003     3.7714646808134286E-014
  -1.1999999999999927E-003     5.4152605251552022E-014
  -9.9999999999988987E-005     2.6688497061205102E-014
   1.0000000000000148E-003    -3.0507162144784508E-014
   2.1000000000000185E-003    -7.3049530834035092E-014
   3.2000000000000084E-003    -5.8336141635622479E-014
   4.3000000000000121E-003     1.5569163525682578E-014
   5.4000000000000159E-003     9.7128786946936579E-014
   6.5000000000000058E-003     1.1295146404560058E-013
   7.6000000000000234E-003     2.7522851619304900E-014
   8.7000000000000133E-003    -1.1431993047518463E-013
   9.8000000000000032E-003    -2.0399772095083119E-013
   1.0900000000000021E-002    -1.4577794808963429E-013
   1.2000000000000011E-002     5.7393285545111195E-014
   1.3100000000000001E-002     2.7977685272684294E-013
   1.4200000000000018E-002     3.4571491177616542E-013
   1.5300000000000008E-002     1.6114645967450769E-013
   1.6400000000000026E-002    -1.9198137274790278E-013
   1.7500000000000016E-002    -4.8357097406220850E-013
   1.8600000000000005E-002    -4.8707365181074880E-013
   1.9700000000000023E-002    -1.5533956770636542E-013
   2.0800000000000013E-002     3.1695127208561380E-013
   2.1900000000000003E-002     6.1271734214107809E-013
   2.3000000000000020E-002     5.2390481276171075E-013
   2.4100000000000010E-002     1.2094676388879622E-013
   2.5200000000000000E-002    -2.8922055180478912E-013
   2.6300000000000018E-002    -4.0940571787752289E-013
   2.7400000000000008E-002    -2.1580030514292692E-013
   2.8500000000000025E-002    -1.5222868716515997E-015
   2.9600000000000015E-002    -1.1427003007019598E-013
   3.0700000000000005E-002    -5.6865379375811709E-013
   3.1800000000000023E-002    -8.8381678278043330E-013
   3.2900000000000013E-002    -3.9000240211785331E-013
   3.4000000000000002E-002     1.1198409820972755E-012
   3.5100000000000020E-002     2.8921728293523907E-012
   3.6200000000000010E-002     3.4140396672904805E-012
   3.7300000000000028E-002     1.4279571448894135E-012
   3.8400000000000017E-002    -2.8114216683861049E-012
   3.9500000000000007E-002    -7.0413670553992613E-012
   4.0600000000000025E-002    -7.9801980995553023E-012
   4.1700000000000015E-002    -3.5432097793969275E-012
   4.2800000000000005E-002     5.0688975586354879E-012
   4.3900000000000022E-002     1.3113142516285592E-011
   4.5000000000000012E-002     1.4680822529866688E-011
   4.6100000000000002E-002     6.7060051088529971E-012
   4.7200000000000020E-002    -7.9436743641303487E-012
   4.8300000000000010E-002    -2.0870562222885525E-011
   4.9400000000000027E-002    -2.2705073932094422E-011
   5.0500000000000017E-002    -9.5672896688325793E-012
   5.1600000000000007E-002     1.2796748036225658E-011
   5.2700000000000025E-002     3.0786432431151312E-011
   5.3800000000000014E-002     3.0789405747189136E-011
   5.4900000000000004E-002     8.9117367998992059E-012
   5.6000000000000022E-002    -2.3938380791510561E-011
   5.7100000000000012E-002    -4.6361112865378473E-011
   5.8200000000000002E-002    -3.9337023222119072E-011
   5.9300000000000019E-002    -5.5057591515431104E-013
   6.0400000000000009E-002     4.9661753875884784E-011
   6.1500000000000027E-002     7.7023047662105881E-011
   6.2600000000000017E-002     5.4216936495876666E-011
   6.3700000000000007E-002    -1.7598067100776937E-011
   6.4800000000000024E-002    -1.0152476775937558E-010
   6.5900000000000014E-002    -1.4066665887657592E-010
   6.7000000000000004E-002    -9.2080398861327240E-011
   6.8100000000000022E-002     3.9427041492734460E-011
   6.9200000000000012E-002     1.9056189959343328E-010
   7.0300000000000029E-002     2.6514374029673604E-010
   7.1400000000000019E-002     1.8858377359709522E-010
   7.2500000000000009E-002    -3.7033154320909034E-011
   7.3600000000000027E-002    -3.1289595914252288E-010
   7.4700000000000016E-002    -4.8014420217512566E-010
   7.5800000000000006E-002    -4.0389144806418642E-010
   7.6900000000000024E-002    -6.3009049366957726E-011
   7.8000000000000014E-002     4.0903649911605555E-010
   7.9100000000000004E-002     7.6861250697390915E-010
   8.0200000000000021E-002     7.8290773863898266E-010
   8.1300000000000011E-002     3.6974506789633210E-010
   8.2400000000000029E-002    -3.2473945754674105E-010
   8.3500000000000019E-002    -9.6930341531020758E-010
   8.4600000000000009E-002    -1.2077304711866077E-009
   8.5700000000000026E-002    -8.5998341781134968E-010
   8.6800000000000016E-002    -5.0334531681572869E-011
   8.7900000000000006E-002     8.2598955453150325E-010
   8.9000000000000024E-002     1.3014863631255480E-009
   9.0100000000000013E-002     1.1033308711105860E-009
   9.1200000000000003E-002     3.3501093565924123E-010
   9.2300000000000021E-002    -5.5024457212837774E-010
   9.3400000000000011E-002    -9.9470964798342720E-010
   9.4500000000000028E-002    -6.7513100665550496E-010
   9.5600000000000018E-002     2.6503726990867449E-010
   9.6700000000000008E-002     1.2490493084271748E-009
   9.7800000000000026E-002     1.5762797733742673E-009
   9.8900000000000016E-002     8.4359702556824345E-010
  0.10000000000000001         -7.7567813283607734E-010
  0.10110000000000002         -2.5857000984785827E-009
  0.10220000000000001         -3.7491370008524427E-009
  0.10330000000000003         -3.7738945302123739E-009
  0.10440000000000002         -2.7905517896442689E-009
  0.10550000000000001         -1.4132170989000770E-009
  0.10660000000000003         -2.3968371731797333E-010
  0.10770000000000002          6.9260674973037339E-010
  0.10880000000000001          2.0996850924603905E-009
  0.10990000000000003          5.0837321019514548E-009
  0.11100000000000002          1.0359554103445134E-008
  0.11210000000000001          1.7549364628166586E-008
  0.11320000000000002          2.5069558873269671E-008
  0.11430000000000001          3.0831273534204229E-008
  0.11540000000000003          3.3468346316567477E-008
  0.11650000000000002          3.3399384591348280E-008
  0.11760000000000001          3.3013801470360704E-008
  0.11870000000000003          3.5719196489480964E-008
  0.11980000000000002          4.4277328470343491E-008
  0.12090000000000001          5.9373835625819993E-008
  0.12200000000000003          7.9349973702846910E-008
  0.12310000000000001          1.0140920636558803E-007
  0.12420000000000003          1.2371395996524370E-007
  0.12530000000000002          1.4714944995830592E-007
  0.12640000000000001          1.7559409570822027E-007
  0.12750000000000003          2.1434698282973841E-007
  0.12860000000000002          2.6749640369416738E-007
  0.12970000000000001          3.3578490388208593E-007
  0.13080000000000003          4.1640646486484911E-007
  0.13190000000000002          5.0513853011580068E-007
  0.13300000000000001          5.9981027789035579E-007
  0.13410000000000000          7.0317184963641921E-007
  0.13520000000000004          8.2338465290376917E-007
  0.13630000000000003          9.7160591394640505E-007
  0.13740000000000002          1.1578207477214164E-006
  0.13850000000000001          1.3871981536794920E-006
  0.13960000000000000          1.6591028497714433E-006
  0.14070000000000005          1.9694787170010386E-006
  0.14180000000000004          2.3153911570261698E-006
  0.14290000000000003          2.6992238417733461E-006
  0.14400000000000002          3.1301442504627630E-006
  0.14510000000000001          3.6219651065039216E-006
  0.14620000000000000          4.1886169128702022E-006
  0.14730000000000004          4.8398092076240573E-006
  0.14840000000000003          5.5793498177081347E-006
  0.14950000000000002          6.4070250118675176E-006
  0.15060000000000001          7.3227652137575205E-006
  0.15170000000000000          8.3304676081752405E-006
  0.15280000000000005          9.4390734375338070E-006
  0.15390000000000004          1.0660181033017579E-005
  0.15500000000000003          1.2003633855783846E-005
  0.15610000000000002          1.3473727449309081E-005
  0.15720000000000001          1.5068324501044117E-005
  0.15830000000000000          1.6781301383161917E-005
  0.15940000000000004          1.8606535377330147E-005
  0.16050000000000003          2.0540663172141649E-005
  0.16160000000000002          2.2582507881452329E-005
  0.16270000000000001          2.4729133656364866E-005
  0.16380000000000000          2.6970863473252393E-005
  0.16490000000000005          2.9288235964486375E-005
  0.16600000000000004          3.1652933103032410E-005
  0.16710000000000003          3.4032342227874324E-005
  0.16820000000000002          3.6394798371475190E-005
  0.16930000000000001          3.8711947127012536E-005
  0.17040000000000000          4.0956441807793453E-005
  0.17150000000000004          4.3095889850519598E-005
  0.17260000000000003          4.5086486352374777E-005
  0.17370000000000002          4.6870318328728899E-005
  0.17480000000000001          4.8378402425441891E-005
  0.17590000000000000          4.9538575694896281E-005
  0.17700000000000005          5.0284259486943483E-005
  0.17810000000000004          5.0559181545395404E-005
  0.17920000000000003          5.0315633416175842E-005
  0.18030000000000002          4.9507249059388414E-005
  0.18140000000000001          4.8080968554131687E-005
  0.18250000000000000          4.5973229134688154E-005
  0.18360000000000004          4.3113093852298334E-005
  0.18470000000000003          3.9431772165698931E-005
  0.18580000000000002          3.4873981348937377E-005
  0.18690000000000001          2.9405860914266668E-005
  0.18800000000000000          2.3016109480522573E-005
  0.18910000000000005          1.5710787920397706E-005
  0.19020000000000004          7.5062680480186827E-006
  0.19130000000000003         -1.5751490991533501E-006
  0.19240000000000002         -1.1504510439408477E-005
  0.19350000000000001         -2.2240888938540593E-005
  0.19460000000000005         -3.3724641980370507E-005
  0.19570000000000004         -4.5872242480982095E-005
  0.19680000000000003         -5.8575362345436588E-005
  0.19790000000000002         -7.1704162110108882E-005
  0.19900000000000001         -8.5112456872593611E-005
  0.20010000000000000         -9.8641670774668455E-005
  0.20120000000000005         -1.1212167009944096E-004
  0.20230000000000004         -1.2536963913589716E-004
  0.20340000000000003         -1.3818929437547922E-004
  0.20450000000000002         -1.5037332195788622E-004
  0.20560000000000000         -1.6170956951100379E-004
  0.20670000000000005         -1.7198899877257645E-004
  0.20780000000000004         -1.8101230671163648E-004
  0.20890000000000003         -1.8859280680771917E-004
