 -0.12000000000000000          0.0000000000000000
 -0.11889999999999999          0.0000000000000000
 -0.11780000000000000          0.0000000000000000
 -0.11670000000000000          0.0000000000000000
 -0.11559999999999999          0.0000000000000000
 -0.11449999999999999         -2.5214273287435324E-017
 -0.11340000000000000         -7.2079360525013257E-017
 -0.11230000000000000          2.1013464670725600E-016
 -0.11119999999999999          1.6806414810858041E-015
 -0.11009999999999999          4.4687980224643927E-015
 -0.10900000000000000          5.2420620233093688E-015
 -0.10790000000000000         -3.3565709178860325E-015
 -0.10679999999999999         -2.5721041439839658E-014
 -0.10569999999999999         -5.0125817396568656E-014
 -0.10460000000000000         -4.3611568214174321E-014
 -0.10349999999999999          2.7466535786773751E-014
 -0.10239999999999999          1.5373996292613462E-013
 -0.10130000000000000          2.5216940623302986E-013
 -0.10020000000000000          1.9602285831858690E-013
  -9.9099999999999994E-002    -8.6110263884664473E-014
  -9.7999999999999990E-002    -5.0454735875393730E-013
  -9.6899999999999986E-002    -7.9631359015466807E-013
  -9.5799999999999996E-002    -6.5993700304814440E-013
  -9.4699999999999993E-002     2.1781787663691446E-014
  -9.3599999999999989E-002     1.0207552034527390E-012
  -9.2499999999999999E-002     1.8019373970376562E-012
  -9.1399999999999995E-002     1.7821507073897958E-012
  -9.0299999999999991E-002     6.8804266754526888E-013
  -8.9200000000000002E-002    -1.1868974770026797E-012
  -8.8099999999999984E-002    -3.0004525339993871E-012
  -8.6999999999999994E-002    -3.7098518701483840E-012
  -8.5899999999999990E-002    -2.6302469317146526E-012
  -8.4799999999999986E-002     7.9326803914710198E-014
  -8.3699999999999997E-002     3.3280153806380941E-012
  -8.2599999999999993E-002     5.5539561664985637E-012
  -8.1499999999999989E-002     5.5334265815221162E-012
  -8.0399999999999999E-002     3.0498769742343113E-012
  -7.9299999999999995E-002    -1.0096008230819908E-012
  -7.8199999999999992E-002    -5.1390072752788285E-012
  -7.7100000000000002E-002    -7.8520948423865811E-012
  -7.5999999999999984E-002    -8.0435059654493379E-012
  -7.4899999999999994E-002    -5.1001620461621489E-012
  -7.3799999999999991E-002     8.1863839708831709E-013
  -7.2699999999999987E-002     8.1743830454561461E-012
  -7.1599999999999997E-002     1.3749773021543010E-011
  -7.0499999999999993E-002     1.3680580973618461E-011
  -6.9399999999999989E-002     5.9872410848593738E-012
  -6.8300000000000000E-002    -6.9392677368163014E-012
  -6.7199999999999996E-002    -1.8351507813374468E-011
  -6.6099999999999992E-002    -2.0776031936509121E-011
  -6.5000000000000002E-002    -1.1335321570271617E-011
  -6.3899999999999985E-002     5.3210283401661229E-012
  -6.2799999999999995E-002     1.9405536205718832E-011
  -6.1699999999999991E-002     2.2518893000311735E-011
  -6.0599999999999994E-002     1.3435547813189785E-011
  -5.9499999999999990E-002    -1.4630793321659952E-012
  -5.8399999999999994E-002    -1.3332346511518711E-011
  -5.7299999999999990E-002    -1.7102107924271692E-011
  -5.6199999999999986E-002    -1.3676698662479225E-011
  -5.5099999999999996E-002    -7.0155036294150541E-012
  -5.3999999999999992E-002     1.9123060340103804E-013
  -5.2899999999999989E-002     7.7313893134811629E-012
  -5.1799999999999985E-002     1.5318874641012670E-011
  -5.0699999999999995E-002     1.9999314704310933E-011
  -4.9599999999999991E-002     1.7331525103969625E-011
  -4.8499999999999988E-002     5.7929000138456921E-012
  -4.7399999999999998E-002    -1.0220784288361706E-011
  -4.6299999999999994E-002    -2.2528225812612490E-011
  -4.5199999999999990E-002    -2.4926963271276747E-011
  -4.4099999999999986E-002    -1.7144478545172426E-011
  -4.2999999999999997E-002    -3.4094810308360479E-012
  -4.1899999999999993E-002     1.2045361236223684E-011
  -4.0799999999999989E-002     2.6968057995069294E-011
  -3.9699999999999985E-002     3.8411114566816451E-011
  -3.8599999999999995E-002     3.9823255804094515E-011
  -3.7499999999999992E-002     2.4106295085091212E-011
  -3.6399999999999988E-002    -7.5892373982422434E-012
  -3.5299999999999984E-002    -4.0059115746782226E-011
  -3.4199999999999994E-002    -5.0413718338804259E-011
  -3.3099999999999991E-002    -2.5263874325887059E-011
  -3.1999999999999987E-002     2.5008972323603551E-011
  -3.0899999999999997E-002     6.9552398562766626E-011
  -2.9799999999999993E-002     7.8580024431840201E-011
  -2.8699999999999989E-002     4.6686203514223479E-011
  -2.7599999999999986E-002    -2.0563039118681736E-012
  -2.6499999999999996E-002    -3.2266311150719318E-011
  -2.5399999999999992E-002    -2.3419712349981303E-011
  -2.4299999999999988E-002     1.7769950441670623E-011
  -2.3199999999999985E-002     6.7031324935129533E-011
  -2.2099999999999995E-002     1.0242298675855466E-010
  -2.0999999999999991E-002     1.1560111201625034E-010
  -1.9899999999999987E-002     1.0774602043905901E-010
  -1.8799999999999983E-002     8.0687505288334904E-011
  -1.7699999999999994E-002     3.7212937592512318E-011
  -1.6599999999999990E-002    -9.3325252040199480E-012
  -1.5499999999999986E-002    -3.0960282948466755E-011
  -1.4399999999999996E-002     1.1383048366744863E-012
  -1.3299999999999992E-002     9.1792101697407702E-011
  -1.2199999999999989E-002     2.0896114005797273E-010
  -1.1099999999999985E-002     2.9910701693225406E-010
  -9.9999999999999950E-003     3.2182798093138842E-010
  -8.8999999999999913E-003     2.7545882241852837E-010
  -7.7999999999999875E-003     1.9273067863867510E-010
  -6.6999999999999837E-003     1.1351572459794568E-010
  -5.5999999999999939E-003     6.1992730393534146E-011
  -4.4999999999999901E-003     4.7370839889593341E-011
  -3.3999999999999864E-003     7.9167720989925527E-011
  -2.2999999999999826E-003     1.7128243268160759E-010
  -1.1999999999999927E-003     3.2277897021870672E-010
  -9.9999999999988987E-005     4.9417081537939112E-010
   1.0000000000000148E-003     6.1146981922277632E-010
   2.1000000000000185E-003     6.0781696342715463E-010
   3.2000000000000084E-003     4.7409615122617765E-010
   4.3000000000000121E-003     2.7435884120130538E-010
   5.4000000000000159E-003     1.0905647912506922E-010
   6.5000000000000058E-003     5.4049306696946076E-011
   7.6000000000000234E-003     1.2325224174603022E-010
   8.7000000000000133E-003     2.7831009719037070E-010
   9.8000000000000032E-003     4.6476678061679877E-010
   1.0900000000000021E-002     6.3618160739409291E-010
   1.2000000000000011E-002     7.5143569144842104E-010
   1.3100000000000001E-002     7.6668366100207663E-010
   1.4200000000000018E-002     6.5069294397090971E-010
   1.5300000000000008E-002     4.2061704119689125E-010
   1.6400000000000026E-002     1.6019921500465273E-010
   1.7500000000000016E-002    -1.3131717067904614E-011
   1.8600000000000005E-002    -1.9194880060413588E-011
   1.9700000000000023E-002     1.3125242559475225E-010
   2.0800000000000013E-002     3.4664618397961533E-010
   2.1900000000000003E-002     5.2015297624663503E-010
   2.3000000000000020E-002     5.9315469203014004E-010
   2.4100000000000010E-002     5.6604959608463901E-010
   2.5200000000000000E-002     4.6165204992121289E-010
   2.6300000000000018E-002     2.9172159132784259E-010
   2.7400000000000008E-002     6.5781387281749204E-011
   2.8500000000000025E-002    -1.7280676889441793E-010
   2.9600000000000015E-002    -3.3806754617948798E-010
   3.0700000000000005E-002    -3.4884414801261698E-010
   3.1800000000000023E-002    -1.9833994169271563E-010
   3.2900000000000013E-002     2.3032050225357814E-011
   3.4000000000000002E-002     1.8345328034463648E-010
   3.5100000000000020E-002     2.0122534194477737E-010
   3.6200000000000010E-002     9.1064579488264741E-011
   3.7300000000000028E-002    -7.1746747432044344E-011
   3.8400000000000017E-002    -2.2755684836450740E-010
   3.9500000000000007E-002    -3.7057787394267905E-010
   4.0600000000000025E-002    -5.1625542729638596E-010
   4.1700000000000015E-002    -6.4434835245208433E-010
   4.2800000000000005E-002    -6.9046174333564636E-010
   4.3900000000000022E-002    -6.0491850417676574E-010
   4.5000000000000012E-002    -4.1908021497505388E-010
   4.6100000000000002E-002    -2.4253749009162107E-010
   4.7200000000000020E-002    -1.8274959323605344E-010
   4.8300000000000010E-002    -2.6043461831548598E-010
   4.9400000000000027E-002    -4.0451034188926371E-010
   5.0500000000000017E-002    -5.3017001899746674E-010
   5.1600000000000007E-002    -6.1869115386414819E-010
   5.2700000000000025E-002    -7.1608774465659053E-010
   5.3800000000000014E-002    -8.5581330910855513E-010
   5.4900000000000004E-002    -9.9350816462617786E-010
   5.6000000000000022E-002    -1.0342035006161154E-009
   5.7100000000000012E-002    -9.2986335298306244E-010
   5.8200000000000002E-002    -7.4841027819516626E-010
   5.9300000000000019E-002    -6.3330413135886943E-010
   6.0400000000000009E-002    -6.8534317110291454E-010
   6.1500000000000027E-002    -8.8194501701721606E-010
   6.2600000000000017E-002    -1.1117028408946794E-009
   6.3700000000000007E-002    -1.2883306643729497E-009
   6.4800000000000024E-002    -1.4255003843999248E-009
   6.5900000000000014E-002    -1.5949858100938741E-009
   6.7000000000000004E-002    -1.8174086680033952E-009
   6.8100000000000022E-002    -2.0120147770086305E-009
   6.9200000000000012E-002    -2.0655768206978564E-009
   7.0300000000000029E-002    -1.9578230148198372E-009
   7.1400000000000019E-002    -1.8085456465755101E-009
   7.2500000000000009E-002    -1.7836555565864387E-009
   7.3600000000000027E-002    -1.9521693150892361E-009
   7.4700000000000016E-002    -2.2281598788254087E-009
   7.5800000000000006E-002    -2.4622590633072150E-009
   7.6900000000000024E-002    -2.5819844040597673E-009
   7.8000000000000014E-002    -2.6387172447073226E-009
   7.9100000000000004E-002    -2.7162316840190215E-009
   8.0200000000000021E-002    -2.8055406886551282E-009
   8.1300000000000011E-002    -2.7909266009373823E-009
   8.2400000000000029E-002    -2.5694990579694377E-009
   8.3500000000000019E-002    -2.1802262217818225E-009
   8.4600000000000009E-002    -1.7985682942978087E-009
   8.5700000000000026E-002    -1.5896048921604233E-009
   8.6800000000000016E-002    -1.5591129498560008E-009
   8.7900000000000006E-002    -1.5521663954132237E-009
   8.9000000000000024E-002    -1.4018823879524689E-009
   9.0100000000000013E-002    -1.0782561510325195E-009
   9.1200000000000003E-002    -6.8674244069200086E-010
   9.2300000000000021E-002    -3.2754438050730528E-010
   9.3400000000000011E-002     2.7347270281641300E-011
   9.4500000000000028E-002     5.0012288754786027E-010
   9.5600000000000018E-002     1.1545385758537918E-009
   9.6700000000000008E-002     1.8881154417726975E-009
   9.7800000000000026E-002     2.4980315593836622E-009
   9.8900000000000016E-002     2.8653521777499691E-009
  0.10000000000000001          3.0686437835214520E-009
  0.10110000000000002          3.3056866133307494E-009
  0.10220000000000001          3.7002463315616296E-009
  0.10330000000000003          4.1889172130993302E-009
  0.10440000000000002          4.6023478361689740E-009
  0.10550000000000001          4.8510493400044652E-009
  0.10660000000000003          5.0190145373107953E-009
  0.10770000000000002          5.2637774139441262E-009
  0.10880000000000001          5.6284195082412225E-009
  0.10990000000000003          5.9687463860313983E-009
  0.11100000000000002          6.0781717436952931E-009
  0.11210000000000001          5.8917231093857936E-009
  0.11320000000000002          5.5482036742660057E-009
  0.11430000000000001          5.2501296643470141E-009
  0.11540000000000003          5.0650861282974802E-009
  0.11650000000000002          4.8741077840475100E-009
  0.11760000000000001          4.5203609744248752E-009
  0.11870000000000003          3.9977883226072208E-009
  0.11980000000000002          3.4731324483061599E-009
  0.12090000000000001          3.1122255883531125E-009
  0.12200000000000003          2.8956015363235110E-009
  0.12310000000000001          2.6177422451922894E-009
  0.12420000000000003          2.0837382930238846E-009
  0.12530000000000002          1.3041281388126436E-009
  0.12640000000000001          4.8747578196284280E-010
  0.12750000000000003         -1.6136604552574596E-010
  0.12860000000000002         -6.3115873638608377E-010
  0.12970000000000001         -1.0827103658073156E-009
  0.13080000000000003         -1.6468941765879208E-009
  0.13190000000000002         -2.2621597928207393E-009
  0.13300000000000001         -2.7283812986667044E-009
  0.13410000000000000         -2.9234032972169643E-009
  0.13520000000000004         -2.9504396703572411E-009
  0.13630000000000003         -3.0540112661014973E-009
  0.13740000000000002         -3.3837577184669954E-009
  0.13850000000000001         -3.8494718523907068E-009
  0.13960000000000000         -4.2147374479384325E-009
  0.14070000000000005         -4.3300905083754060E-009
  0.14180000000000004         -4.2667971378307357E-009
  0.14290000000000003         -4.2141210521151606E-009
  0.14400000000000002         -4.2576213665768137E-009
  0.14510000000000001         -4.2781720388518352E-009
  0.14620000000000000         -4.0818566304778869E-009
  0.14730000000000004         -3.6239051759423546E-009
  0.14840000000000003         -3.0833755548798081E-009
  0.14950000000000002         -2.7038158378900334E-009
  0.15060000000000001         -2.5624879995689298E-009
  0.15170000000000000         -2.5073674247977351E-009
  0.15280000000000005         -2.3231681023361261E-009
  0.15390000000000004         -1.9532324646576171E-009
  0.15500000000000003         -1.5424908017536154E-009
  0.15610000000000002         -1.2641628854836995E-009
  0.15720000000000001         -1.1192289317563109E-009
  0.15830000000000000         -9.2680180197035611E-010
  0.15940000000000004         -5.1964876846000152E-010
  0.16050000000000003          6.1686808439098684E-011
  0.16160000000000002          5.8705640348932775E-010
  0.16270000000000001          8.5001439220633301E-010
  0.16380000000000000          8.5759799262064007E-010
  0.16490000000000005          8.0273837577138352E-010
  0.16600000000000004          8.5471657529367917E-010
  0.16710000000000003          9.9120389673856835E-010
  0.16820000000000002          1.0491778557053522E-009
  0.16930000000000001          9.3115742894056552E-010
  0.17040000000000000          7.4000661154371983E-010
  0.17150000000000004          6.9079264530813589E-010
  0.17260000000000003          8.8821772159519696E-010
  0.17370000000000002          1.2051460940298853E-009
  0.17480000000000001          1.3940458787331522E-009
  0.17590000000000000          1.3187220204713412E-009
  0.17700000000000005          1.0687474238935124E-009
  0.17810000000000004          8.4550849654974058E-010
  0.17920000000000003          7.4831563168231696E-010
  0.18030000000000002          6.8995492652490498E-010
  0.18140000000000001          5.2569515407441259E-010
  0.18250000000000000          2.4711169221980356E-010
  0.18360000000000004          2.3581732053190585E-011
  0.18470000000000003          3.8586685929820064E-011
  0.18580000000000002          2.9190225236952472E-010
  0.18690000000000001          5.7938420727765561E-010
  0.18800000000000000          6.7666927616727435E-010
  0.18910000000000005          5.3976989544679554E-010
  0.19020000000000004          3.1954303092440739E-010
  0.19130000000000003          1.8500531662191122E-010
  0.19240000000000002          1.4908645151745503E-010
  0.19350000000000001          8.0019289805388638E-011
  0.19460000000000005         -1.2318485120843548E-010
  0.19570000000000004         -3.8945030533810154E-010
  0.19680000000000003         -5.2780096959637035E-010
  0.19790000000000002         -4.2057726745703405E-010
  0.19900000000000001         -1.5148848842017060E-010
  0.20010000000000000          6.9458293283641837E-011
  0.20120000000000005          1.0606697464776715E-010
  0.20230000000000004          1.2254280055967737E-011
  0.20340000000000003         -5.2021782714906095E-011
  0.20450000000000002         -6.3757493208582705E-012
  0.20560000000000000          6.6313440849619099E-011
  0.20670000000000005          2.6180044243595546E-011
  0.20780000000000004         -1.4787697455442839E-010
  0.20890000000000003         -3.0933036687663673E-010
