 -0.12000000000000000          0.0000000000000000
 -0.11889999999999999          0.0000000000000000
 -0.11780000000000000          0.0000000000000000
 -0.11670000000000000          0.0000000000000000
 -0.11559999999999999          0.0000000000000000
 -0.11449999999999999         -8.8210646401780168E-017
 -0.11340000000000000         -5.3591853982124462E-016
 -0.11230000000000000         -9.7132582078079827E-016
 -0.11119999999999999          1.9924283797390707E-015
 -0.11009999999999999          1.5061147045237440E-014
 -0.10900000000000000          3.8426445863164215E-014
 -0.10790000000000000          4.5316510011732047E-014
 -0.10679999999999999         -2.5426473873963544E-014
 -0.10569999999999999         -2.2392054573397773E-013
 -0.10460000000000000         -4.8523918173493059E-013
 -0.10349999999999999         -5.5032118185393312E-013
 -0.10239999999999999         -6.0548137684223321E-014
 -0.10130000000000000          1.1052711480427954E-012
 -0.10020000000000000          2.4353318840709581E-012
  -9.9099999999999994E-002     2.7603069569643695E-012
  -9.7999999999999990E-002     9.5360915344788017E-013
  -9.6899999999999986E-002    -2.8513825415383383E-012
  -9.5799999999999996E-002    -6.4913829520006916E-012
  -9.4699999999999993E-002    -6.6348992272531147E-012
  -9.3599999999999989E-002    -1.4985591977388260E-012
  -9.2499999999999999E-002     6.2653627945491155E-012
  -9.1399999999999995E-002     9.5723377141451547E-012
  -9.0299999999999991E-002     1.8032003841447380E-012
  -8.9200000000000002E-002    -1.5389923710419722E-011
  -8.8099999999999984E-002    -2.7842393321426330E-011
  -8.6999999999999994E-002    -1.5106919187812200E-011
  -8.5899999999999990E-002     3.2523695542309279E-011
  -8.4799999999999986E-002     9.6674085403593247E-011
  -8.3699999999999997E-002     1.2990265807475845E-010
  -8.2599999999999993E-002     8.0760870213548720E-011
  -8.1499999999999989E-002    -6.4954500111928154E-011
  -8.0399999999999999E-002    -2.5525556668348310E-010
  -7.9299999999999995E-002    -3.8371592014914358E-010
  -7.8199999999999992E-002    -3.4525990399985933E-010
  -7.7100000000000002E-002    -1.0476584877402517E-010
  -7.5999999999999984E-002     2.6843574585375733E-010
  -7.4899999999999994E-002     6.2671068334900959E-010
  -7.3799999999999991E-002     8.1400047813312186E-010
  -7.2699999999999987E-002     7.3221850804827185E-010
  -7.1599999999999997E-002     3.6744973730412340E-010
  -7.0499999999999993E-002    -2.1944578099114440E-010
  -6.9399999999999989E-002    -9.0364771221374781E-010
  -6.8300000000000000E-002    -1.4908444478934691E-009
  -6.7199999999999996E-002    -1.7260113338580697E-009
  -6.6099999999999992E-002    -1.3704406498504826E-009
  -6.5000000000000002E-002    -3.5409783438729359E-010
  -6.3899999999999985E-002     1.0829013241677912E-009
  -6.2799999999999995E-002     2.3972965834674849E-009
  -6.1699999999999991E-002     2.9688416169903385E-009
  -6.0599999999999994E-002     2.4519908325967707E-009
  -5.9499999999999990E-002     1.0234226799351450E-009
  -5.8399999999999994E-002    -6.7873190401374811E-010
  -5.7299999999999990E-002    -1.9257100358770437E-009
  -5.6199999999999986E-002    -2.3421757866512134E-009
  -5.5099999999999996E-002    -2.1068207178840003E-009
  -5.3999999999999992E-002    -1.7554401265939997E-009
  -5.2899999999999989E-002    -1.7260416429467753E-009
  -5.1799999999999985E-002    -1.9833126252424659E-009
  -5.0699999999999995E-002    -2.0037460579658463E-009
  -4.9599999999999991E-002    -1.1350905770865098E-009
  -4.8499999999999988E-002     9.2833901677074065E-010
  -4.7399999999999998E-002     3.8871363905460593E-009
  -4.6299999999999994E-002     6.9631815868830918E-009
  -4.5199999999999990E-002     9.3136014456259163E-009
  -4.4099999999999986E-002     1.0462462896043221E-008
  -4.2999999999999997E-002     1.0503664604754963E-008
  -4.1899999999999993E-002     1.0004257866569568E-008
  -4.0799999999999989E-002     9.7319974301518317E-009
  -3.9699999999999985E-002     1.0420195373229124E-008
  -3.8599999999999995E-002     1.2719877595657530E-008
  -3.7499999999999992E-002     1.7317745459877399E-008
  -3.6399999999999988E-002     2.5030768568968048E-008
  -3.5299999999999984E-002     3.6655066537606088E-008
  -3.4199999999999994E-002     5.2516377024859454E-008
  -3.3099999999999991E-002     7.1967619419412143E-008
  -3.1999999999999987E-002     9.3286558922046627E-008
  -3.0899999999999997E-002     1.1431592383814929E-007
  -2.9799999999999993E-002     1.3373174567732407E-007
  -2.8699999999999989E-002     1.5229811367589816E-007
  -2.7599999999999986E-002     1.7329082879769171E-007
  -2.6499999999999996E-002     2.0167853165276330E-007
  -2.5399999999999992E-002     2.4242442009381580E-007
  -2.4299999999999988E-002     2.9886430752413131E-007
  -2.3199999999999985E-002     3.7206697811598578E-007
  -2.2099999999999995E-002     4.6141829557200746E-007
  -2.0999999999999991E-002     5.6591107977511139E-007
  -1.9899999999999987E-002     6.8533910280167073E-007
  -1.8799999999999983E-002     8.2092202546847180E-007
  -1.7699999999999994E-002     9.7544261734584537E-007
  -1.6599999999999990E-002     1.1532315511431202E-006
  -1.5499999999999986E-002     1.3601329555967965E-006
  -1.4399999999999996E-002     1.6032490748330180E-006
  -1.3299999999999992E-002     1.8902418332800341E-006
  -1.2199999999999989E-002     2.2283400085143737E-006
  -1.1099999999999985E-002     2.6235920813633387E-006
  -9.9999999999999950E-003     3.0808716928732184E-006
  -8.8999999999999913E-003     3.6046583318239192E-006
  -7.7999999999999875E-003     4.2000947360066164E-006
  -6.6999999999999837E-003     4.8737224460638111E-006
  -5.5999999999999939E-003     5.6336607485719076E-006
  -4.4999999999999901E-003     6.4894056777121144E-006
  -3.3999999999999864E-003     7.4515019150567902E-006
  -2.2999999999999826E-003     8.5311121438281408E-006
  -1.1999999999999927E-003     9.7393676696811685E-006
  -9.9999999999988987E-005     1.1086588528996889E-005
   1.0000000000000148E-003     1.2581816918100332E-005
   2.1000000000000185E-003     1.4233090041671060E-005
   3.2000000000000084E-003     1.6048363249865486E-005
   4.3000000000000121E-003     1.8036322217085534E-005
   5.4000000000000159E-003     2.0206216504448243E-005
   6.5000000000000058E-003     2.2566548068425784E-005
   7.6000000000000234E-003     2.5123343220912100E-005
   8.7000000000000133E-003     2.7879077606485418E-005
   9.8000000000000032E-003     3.0832728953100944E-005
   1.0900000000000021E-002     3.3980468288064220E-005
   1.2000000000000011E-002     3.7316072848625718E-005
   1.3100000000000001E-002     4.0830516809365038E-005
   1.4200000000000018E-002     4.4511056330520924E-005
   1.5300000000000008E-002     4.8340403736802103E-005
   1.6400000000000026E-002     5.2296163630672097E-005
   1.7500000000000016E-002     5.6350250815740160E-005
   1.8600000000000005E-002     6.0468002629932328E-005
   1.9700000000000023E-002     6.4607345848344578E-005
   2.0800000000000013E-002     6.8718880356755446E-005
   2.1900000000000003E-002     7.2747119702399116E-005
   2.3000000000000020E-002     7.6632146374322813E-005
   2.4100000000000010E-002     8.0310121120419679E-005
   2.5200000000000000E-002     8.3711936895270226E-005
   2.6300000000000018E-002     8.6760890553705706E-005
   2.7400000000000008E-002     8.9371205831412524E-005
   2.8500000000000025E-002     9.1448731836863147E-005
   2.9600000000000015E-002     9.2893402324989682E-005
   3.0700000000000005E-002     9.3601658591069498E-005
   3.1800000000000023E-002     9.3467482656706314E-005
   3.2900000000000013E-002     9.2382280854508430E-005
   3.4000000000000002E-002     9.0235109382774776E-005
   3.5100000000000020E-002     8.6914224084466736E-005
   3.6200000000000010E-002     8.2309299614280435E-005
   3.7300000000000028E-002     7.6312746386974955E-005
   3.8400000000000017E-002     6.8819288571830663E-005
   3.9500000000000007E-002     5.9725160099332908E-005
   4.0600000000000025E-002     4.8928985052043247E-005
   4.1700000000000015E-002     3.6335415643406612E-005
   4.2800000000000005E-002     2.1860445485799062E-005
   4.3900000000000022E-002     5.4356578402797189E-006
   4.5000000000000012E-002    -1.2990208233532738E-005
   4.6100000000000002E-002    -3.3451629860793122E-005
   4.7200000000000020E-002    -5.5966582294787257E-005
   4.8300000000000010E-002    -8.0535071901978079E-005
   4.9400000000000027E-002    -1.0713627125369499E-004
   5.0500000000000017E-002    -1.3572604802902913E-004
   5.1600000000000007E-002    -1.6623546252958612E-004
   5.2700000000000025E-002    -1.9856951257679755E-004
   5.3800000000000014E-002    -2.3260456509888327E-004
   5.4900000000000004E-002    -2.6818414335139264E-004
   5.6000000000000022E-002    -3.0511483782902533E-004
   5.7100000000000012E-002    -3.4316448727622802E-004
   5.8200000000000002E-002    -3.8206300814636241E-004
   5.9300000000000019E-002    -4.2150416993536250E-004
   6.0400000000000009E-002    -4.6114606084302263E-004
   6.1500000000000027E-002    -5.0060963258147435E-004
   6.2600000000000017E-002    -5.3947692504152862E-004
   6.3700000000000007E-002    -5.7729089166969256E-004
   6.4800000000000024E-002    -6.1355734942481128E-004
   6.5900000000000014E-002    -6.4774719066918091E-004
   6.7000000000000004E-002    -6.7929812939837770E-004
   6.8100000000000022E-002    -7.0761615643277949E-004
   6.9200000000000012E-002    -7.3207862442359502E-004
   7.0300000000000029E-002    -7.5204047607258125E-004
   7.1400000000000019E-002    -7.6684297528118036E-004
   7.2500000000000009E-002    -7.7582307858392726E-004
   7.3600000000000027E-002    -7.7832170063629855E-004
   7.4700000000000016E-002    -7.7369203791022387E-004
   7.5800000000000006E-002    -7.6131004607304996E-004
   7.6900000000000024E-002    -7.4058788595721169E-004
   7.8000000000000014E-002    -7.1098929038271319E-004
   7.9100000000000004E-002    -6.7204365041106918E-004
   8.0200000000000021E-002    -6.2335783150047010E-004
   8.1300000000000011E-002    -5.6462851352989576E-004
   8.2400000000000029E-002    -4.9565668450668335E-004
   8.3500000000000019E-002    -4.1636478272266518E-004
   8.4600000000000009E-002    -3.2681433367542716E-004
   8.5700000000000026E-002    -2.2722015273757035E-004
   8.6800000000000016E-002    -1.1795936006819545E-004
   8.7900000000000006E-002     4.2249632770431001E-007
   8.9000000000000024E-002     1.2720451923087600E-004
   9.0100000000000013E-002     2.6148348115384974E-004
   9.1200000000000003E-002     4.0217064088210892E-004
   9.2300000000000021E-002     5.4799485951662530E-004
   9.3400000000000011E-002     6.9751247065142285E-004
   9.4500000000000028E-002     8.4912130841985854E-004
   9.5600000000000018E-002     1.0010757250711374E-003
   9.6700000000000008E-002     1.1515020160004549E-003
   9.7800000000000026E-002     1.2984174536541159E-003
   9.8900000000000016E-002     1.4397570630535538E-003
  0.10000000000000001          1.5734080225229318E-003
  0.10110000000000002          1.6972470330074482E-003
  0.10220000000000001          1.8091772217303564E-003
  0.10330000000000003          1.9071634160354783E-003
  0.10440000000000002          1.9892684649676128E-003
  0.10550000000000001          2.0536941010505004E-003
  0.10660000000000003          2.0988236647099296E-003
  0.10770000000000002          2.1232641302049190E-003
  0.10880000000000001          2.1258809138089444E-003
  0.10990000000000003          2.1058265119791053E-003
  0.11100000000000002          2.0625651814043535E-003
  0.11210000000000001          1.9958955235779294E-003
  0.11320000000000002          1.9059693440794943E-003
  0.11430000000000001          1.7933036433532825E-003
  0.11540000000000003          1.6587824793532478E-003
  0.11650000000000002          1.5036495169624667E-003
  0.11760000000000001          1.3294951058924172E-003
  0.11870000000000003          1.1382387019693819E-003
  0.11980000000000002          9.3210482737049059E-004
  0.12090000000000001          7.1359076537191402E-004
  0.12200000000000003          4.8542401054873564E-004
  0.12310000000000001          2.5051325792446185E-004
  0.12420000000000003          1.1897260264953366E-005
  0.12530000000000002         -2.2730734781362726E-004
  0.12640000000000001         -4.6395865501836571E-004
  0.12750000000000003         -6.9494603667408868E-004
  0.12860000000000002         -9.1724836966023500E-004
  0.12970000000000001         -1.1279892642051047E-003
  0.13080000000000003         -1.3244879664853276E-003
  0.13190000000000002         -1.5043027233332454E-003
  0.13300000000000001         -1.6652700724080264E-003
  0.13410000000000000         -1.8055428517982416E-003
  0.13520000000000004         -1.9236238440498760E-003
  0.13630000000000003         -2.0183904562145515E-003
  0.13740000000000002         -2.0891064777970353E-003
  0.13850000000000001         -2.1354232449084555E-003
  0.13960000000000000         -2.1573733538389232E-003
  0.14070000000000005         -2.1553623955696843E-003
  0.14180000000000004         -2.1301563829183596E-003
  0.14290000000000003         -2.0828591659665121E-003
  0.14400000000000002         -2.0148789044469599E-003
  0.14510000000000001         -1.9278874387964606E-003
  0.14620000000000000         -1.8237775657325979E-003
  0.14730000000000004         -1.7046235734596838E-003
  0.14840000000000003         -1.5726423589512691E-003
  0.14950000000000002         -1.4301504706963879E-003
  0.15060000000000001         -1.2795150978490689E-003
  0.15170000000000000         -1.1231038952246284E-003
  0.15280000000000005         -9.6324062906205372E-004
  0.15390000000000004         -8.0216990318149025E-004
  0.15500000000000003         -6.4202799694612308E-004
  0.15610000000000002         -4.8481396515853383E-004
  0.15720000000000001         -3.3235919545404288E-004
  0.15830000000000000         -1.8630003614816492E-004
  0.15940000000000004         -4.8060039262051296E-005
  0.16050000000000003          8.1156169471799706E-005
  0.16160000000000002          2.0036187197547704E-004
  0.16270000000000001          3.0878721736371799E-004
  0.16380000000000000          4.0587925468571744E-004
  0.16490000000000005          4.9129925901070476E-004
  0.16600000000000004          5.6491291616112221E-004
  0.16710000000000003          6.2677281675860492E-004
  0.16820000000000002          6.7709694849327391E-004
  0.16930000000000001          7.1624899283051643E-004
  0.17040000000000000          7.4472243431955706E-004
  0.17150000000000004          7.6312414603307962E-004
  0.17260000000000003          7.7215349301695910E-004
  0.17370000000000002          7.7257741941139167E-004
  0.17480000000000001          7.6520681614056284E-004
  0.17590000000000000          7.5087894219905171E-004
  0.17700000000000005          7.3044502642005693E-004
  0.17810000000000004          7.0475856773555290E-004
  0.17920000000000003          6.7466084146872141E-004
  0.18030000000000002          6.4096483401954142E-004
  0.18140000000000001          6.0444232076406446E-004
  0.18250000000000000          5.6581717217341022E-004
  0.18360000000000004          5.2576267626136487E-004
  0.18470000000000003          4.8489848268218284E-004
  0.18580000000000002          4.4378539314493483E-004
  0.18690000000000001          4.0292044286616082E-004
  0.18800000000000000          3.6273660953156590E-004
  0.18910000000000005          3.2360779005102754E-004
  0.19020000000000004          2.8585494146682262E-004
  0.19130000000000003          2.4974838015623331E-004
  0.19240000000000002          2.1550570090766934E-004
  0.19350000000000001          1.8329008889850172E-004
  0.19460000000000005          1.5321407408919131E-004
  0.19570000000000004          1.2534859706647640E-004
  0.19680000000000003          9.9731980299110968E-005
  0.19790000000000002          7.6373667980078147E-005
  0.19900000000000001          5.5253251048270186E-005
  0.20010000000000000          3.6320518120191598E-005
  0.20120000000000005          1.9501092538120801E-005
  0.20230000000000004          4.7061835175551498E-006
  0.20340000000000003         -8.1600564953990400E-006
  0.20450000000000002         -1.9200228052796122E-005
  0.20560000000000000         -2.8528331313282482E-005
  0.20670000000000005         -3.6272202123655210E-005
  0.20780000000000004         -4.2568681237753650E-005
  0.20890000000000003         -4.7553934564348453E-005
