 -0.12000000000000000          0.0000000000000000
 -0.11889999999999999          0.0000000000000000
 -0.11780000000000000          0.0000000000000000
 -0.11670000000000000          0.0000000000000000
 -0.11559999999999999          0.0000000000000000
 -0.11449999999999999          0.0000000000000000
 -0.11340000000000000          0.0000000000000000
 -0.11230000000000000          0.0000000000000000
 -0.11119999999999999          2.7363218095999460E-014
 -0.11009999999999999          1.7073595683959886E-013
 -0.10900000000000000          1.8116331189105966E-013
 -0.10790000000000000         -1.7962648512712120E-012
 -0.10679999999999999         -8.5737883806502602E-012
 -0.10569999999999999         -1.3701850418157413E-011
 -0.10460000000000000          1.6063726737680639E-011
 -0.10349999999999999          1.2413928218713011E-010
 -0.10239999999999999          2.5169910600197909E-010
 -0.10130000000000000          8.9704611794250155E-011
 -0.10020000000000000         -7.7748013582734643E-010
  -9.9099999999999994E-002    -2.0997792393728787E-009
  -9.7999999999999990E-002    -2.0508841291899671E-009
  -9.6899999999999986E-002     2.0249257826066014E-009
  -9.5799999999999996E-002     9.7679944133233221E-009
  -9.4699999999999993E-002     1.3477339244616360E-008
  -9.3599999999999989E-002     1.0277473316833152E-009
  -9.2499999999999999E-002    -2.8870166701722155E-008
  -9.1399999999999995E-002    -5.0111911065187087E-008
  -9.0299999999999991E-002    -1.9477349511021202E-008
  -8.9200000000000002E-002     7.0634477822295594E-008
  -8.8099999999999984E-002     1.3744512727953406E-007
  -8.6999999999999994E-002     4.3400063987064641E-008
  -8.5899999999999990E-002    -2.3295417861390888E-007
  -8.4799999999999986E-002    -4.2364465002719953E-007
  -8.3699999999999997E-002    -8.1266115614653245E-008
  -8.2599999999999993E-002     8.9092748112307163E-007
  -8.1499999999999989E-002     1.6760665175752365E-006
  -8.0399999999999999E-002     7.8850740692359977E-007
  -7.9299999999999995E-002    -2.4128605673467973E-006
  -7.8199999999999992E-002    -5.9088315538247116E-006
  -7.7100000000000002E-002    -5.2044465519429650E-006
  -7.5999999999999984E-002     2.9206146336946404E-006
  -7.4899999999999994E-002     1.5051055015646853E-005
  -7.3799999999999991E-002     1.9865114154526964E-005
  -7.2699999999999987E-002     5.8042892305820715E-006
  -7.1599999999999997E-002    -2.5200080926879309E-005
  -7.0499999999999993E-002    -5.0416987505741417E-005
  -6.9399999999999989E-002    -3.8537225918844342E-005
  -6.8300000000000000E-002     2.0384704839671031E-005
  -6.7199999999999996E-002     9.1113433882128447E-005
  -6.6099999999999992E-002     1.0633906640578061E-004
  -6.5000000000000002E-002     2.2483403881778941E-005
  -6.3899999999999985E-002    -1.2138614692958072E-004
  -6.2799999999999995E-002    -2.0514313655439764E-004
  -6.1699999999999991E-002    -1.1754252773243934E-004
  -6.0599999999999994E-002     1.2200612400192767E-004
  -5.9499999999999990E-002     3.2749745878390968E-004
  -5.8399999999999994E-002     2.7282012160867453E-004
  -5.7299999999999990E-002    -8.5938205302227288E-005
  -5.6199999999999986E-002    -4.9067527288571000E-004
  -5.5099999999999996E-002    -5.3347693756222725E-004
  -5.3999999999999992E-002    -2.7144202249473892E-005
  -5.2899999999999989E-002     7.1299792034551501E-004
  -5.1799999999999985E-002     1.0061314096674323E-003
  -5.0699999999999995E-002     3.7412205711007118E-004
  -4.9599999999999991E-002    -8.9263002155348659E-004
  -4.8499999999999988E-002    -1.7550551565364003E-003
  -4.7399999999999998E-002    -1.2108853552490473E-003
  -4.6299999999999994E-002     6.9589627673849463E-004
  -4.5199999999999990E-002     2.5819775182753801E-003
  -4.4099999999999986E-002     2.6576987002044916E-003
  -4.2999999999999997E-002     3.2657739939168096E-004
  -4.1899999999999993E-002    -2.9217968694865704E-003
  -4.0799999999999989E-002    -4.3741795234382153E-003
  -3.9699999999999985E-002    -2.3228244390338659E-003
  -3.8599999999999995E-002     2.1370688918977976E-003
  -3.7499999999999992E-002     5.5343387648463249E-003
  -3.6399999999999988E-002     4.7314516268670559E-003
  -3.5299999999999984E-002    -1.7588604532647878E-004
  -3.4199999999999994E-002    -5.4361289367079735E-003
  -3.3099999999999991E-002    -6.5056770108640194E-003
  -3.1999999999999987E-002    -2.0572631619870663E-003
  -3.0899999999999997E-002     4.4194795191287994E-003
  -2.9799999999999993E-002     7.2489795275032520E-003
  -2.8699999999999989E-002     3.5467878915369511E-003
  -2.7599999999999986E-002    -3.7968845572322607E-003
  -2.6499999999999996E-002    -8.1591466441750526E-003
  -2.5399999999999992E-002    -4.9516428261995316E-003
  -2.4299999999999988E-002     3.8291770033538342E-003
  -2.3199999999999985E-002     1.0643228888511658E-002
  -2.2099999999999995E-002     8.6953574791550636E-003
  -2.0999999999999991E-002    -1.7573318909853697E-003
  -1.9899999999999987E-002    -1.2818624265491962E-002
  -1.8799999999999983E-002    -1.5107662416994572E-002
  -1.7699999999999994E-002    -5.6814705021679401E-003
  -1.6599999999999990E-002     9.1018080711364746E-003
  -1.5499999999999986E-002     1.8418699502944946E-002
  -1.4399999999999996E-002     1.5504516661167145E-002
  -1.3299999999999992E-002     2.6966331060975790E-003
  -1.2199999999999989E-002    -1.0987163521349430E-002
  -1.1099999999999985E-002    -1.7155338078737259E-002
  -9.9999999999999950E-003    -1.3747833669185638E-002
  -8.8999999999999913E-003    -4.8080054111778736E-003
  -7.7999999999999875E-003     4.2083016596734524E-003
  -6.6999999999999837E-003     1.0425233282148838E-002
  -5.5999999999999939E-003     1.3464708812534809E-002
  -4.4999999999999901E-003     1.2858858332037926E-002
  -3.3999999999999864E-003     7.1566146798431873E-003
  -2.2999999999999826E-003    -3.5887071862816811E-003
  -1.1999999999999927E-003    -1.5018156729638577E-002
  -9.9999999999988987E-005    -1.9807586446404457E-002
   1.0000000000000148E-003    -1.3477429747581482E-002
   2.1000000000000185E-003     5.6141859386116266E-004
   3.2000000000000084E-003     1.2585333548486233E-002
   4.3000000000000121E-003     1.4612936414778233E-002
   5.4000000000000159E-003     7.7165956608951092E-003
   6.5000000000000058E-003     9.1427890583872795E-004
   7.6000000000000234E-003     1.7514519859105349E-003
   8.7000000000000133E-003     7.5898645445704460E-003
   9.8000000000000032E-003     7.2267209179699421E-003
   1.0900000000000021E-002    -7.1514341980218887E-003
   1.2000000000000011E-002    -2.8848392888903618E-002
   1.3100000000000001E-002    -3.8712885230779648E-002
   1.4200000000000018E-002    -2.1169384941458702E-002
   1.5300000000000008E-002     1.9174022600054741E-002
   1.6400000000000026E-002     5.6567262858152390E-002
   1.7500000000000016E-002     6.2282394617795944E-002
   1.8600000000000005E-002     2.7850490063428879E-002
   1.9700000000000023E-002    -2.6550034061074257E-002
   2.0800000000000013E-002    -6.6380530595779419E-002
   2.1900000000000003E-002    -6.7989297211170197E-002
   2.3000000000000020E-002    -3.3997125923633575E-002
   2.4100000000000010E-002     1.2424346059560776E-002
   2.5200000000000000E-002     4.6776246279478073E-002
   2.6300000000000018E-002     5.8106984943151474E-002
   2.7400000000000008E-002     4.8901855945587158E-002
   2.8500000000000025E-002     2.5428080931305885E-002
   2.9600000000000015E-002    -7.9762237146496773E-003
   3.0700000000000005E-002    -4.4807776808738708E-002
   3.1800000000000023E-002    -7.0563547313213348E-002
   3.2900000000000013E-002    -6.7165695130825043E-002
   3.4000000000000002E-002    -2.8214417397975922E-002
   3.5100000000000020E-002     2.9181379824876785E-002
   3.6200000000000010E-002     7.1193136274814606E-002
   3.7300000000000028E-002     7.1393981575965881E-002
   3.8400000000000017E-002     3.2415073364973068E-002
   3.9500000000000007E-002    -1.5458879061043262E-002
   4.0600000000000025E-002    -3.9409827440977097E-002
   4.1700000000000015E-002    -3.1014349311590195E-002
   4.2800000000000005E-002    -1.0503757745027542E-002
   4.3900000000000022E-002    -4.8998612910509109E-003
   4.5000000000000012E-002    -2.1291496232151985E-002
   4.6100000000000002E-002    -4.0756981819868088E-002
   4.7200000000000020E-002    -3.7847410887479782E-002
   4.8300000000000010E-002    -5.7210242375731468E-003
   4.9400000000000027E-002     3.7364091724157333E-002
   5.0500000000000017E-002     6.4708918333053589E-002
   5.1600000000000007E-002     6.2497992068529129E-002
   5.2700000000000025E-002     3.5214919596910477E-002
   5.3800000000000014E-002    -5.9641781263053417E-003
   5.4900000000000004E-002    -5.3941257297992706E-002
   5.6000000000000022E-002   -0.10117512941360474
   5.7100000000000012E-002   -0.12753160297870636
   5.8200000000000002E-002   -0.10295373946428299
   5.9300000000000019E-002    -1.3942519202828407E-002
   6.0400000000000009E-002    0.10727323591709137
   6.1500000000000027E-002    0.18635751307010651
   6.2600000000000017E-002    0.15489318966865540
   6.3700000000000007E-002     1.0728106833994389E-002
   6.4800000000000024E-002   -0.16433320939540863
   6.5900000000000014E-002   -0.25442612171173096
   6.7000000000000004E-002   -0.19464884698390961
   6.8100000000000022E-002    -2.2572470828890800E-002
   6.9200000000000012E-002    0.14762569963932037
   7.0300000000000029E-002    0.20959740877151489
   7.1400000000000019E-002    0.13869813084602356
   7.2500000000000009E-002    -1.5945226186886430E-003
   7.3600000000000027E-002   -0.11787889152765274
   7.4700000000000016E-002   -0.15505130589008331
   7.5800000000000006E-002   -0.11999754607677460
   7.6900000000000024E-002    -5.4651152342557907E-002
   7.8000000000000014E-002     4.5966017059981823E-003
   7.9100000000000004E-002     4.3432589620351791E-002
   8.0200000000000021E-002     6.0105022042989731E-002
   8.1300000000000011E-002     5.2716840058565140E-002
   8.2400000000000029E-002     2.6509810239076614E-002
   8.3500000000000019E-002     2.2814744152128696E-003
   8.4600000000000009E-002     6.0452441684901714E-003
   8.5700000000000026E-002     3.9770592004060745E-002
   8.6800000000000016E-002     6.5682247281074524E-002
   8.7900000000000006E-002     3.5408318042755127E-002
   8.9000000000000024E-002    -5.6430708616971970E-002
   9.0100000000000013E-002   -0.14376236498355865
   9.1200000000000003E-002   -0.13349317014217377
   9.2300000000000021E-002     4.4683138839900494E-003
   9.3400000000000011E-002    0.18935032188892365
   9.4500000000000028E-002    0.27721044421195984
   9.5600000000000018E-002    0.18222978711128235
   9.6700000000000008E-002    -3.5189725458621979E-002
   9.7800000000000026E-002   -0.20818419754505157
   9.8900000000000016E-002   -0.19778428971767426
  0.10000000000000001         -1.1974255554378033E-002
  0.10110000000000002         0.20032374560832977
  0.10220000000000001         0.28232425451278687
  0.10330000000000003         0.19746765494346619
  0.10440000000000002          4.5268509536981583E-002
  0.10550000000000001         -4.5992702245712280E-002
  0.10660000000000003         -4.3239906430244446E-002
  0.10770000000000002         -2.1458115428686142E-002
  0.10880000000000001         -6.2331482768058777E-002
  0.10990000000000003        -0.15053482353687286
  0.11100000000000002        -0.18416623771190643
  0.11210000000000001         -7.9710498452186584E-002
  0.11320000000000002         0.12639611959457397
  0.11430000000000001         0.29737272858619690
  0.11540000000000003         0.31534826755523682
  0.11650000000000002         0.18544796109199524
  0.11760000000000001          1.4549267478287220E-002
  0.11870000000000003        -0.10533683747053146
  0.11980000000000002        -0.17949017882347107
  0.12090000000000001        -0.26425755023956299
  0.12200000000000003        -0.35279583930969238
  0.12310000000000001        -0.33161532878875732
  0.12420000000000003         -8.9706920087337494E-002
  0.12530000000000002         0.31595113873481750
  0.12640000000000001         0.62740439176559448
  0.12750000000000003         0.56529724597930908
  0.12860000000000002          8.7292134761810303E-002
  0.12970000000000001        -0.52056509256362915
  0.13080000000000003        -0.83674871921539307
  0.13190000000000002        -0.63756376504898071
  0.13300000000000001         -8.0329351127147675E-002
  0.13410000000000000         0.43364396691322327
  0.13520000000000004         0.59388369321823120
  0.13630000000000003         0.40907874703407288
  0.13740000000000002         0.13690668344497681
  0.13850000000000001          1.7164372839033604E-003
  0.13960000000000000         -7.3458431288599968E-003
  0.14070000000000005         -6.2062773853540421E-002
  0.14180000000000004        -0.25482693314552307
  0.14290000000000003        -0.44895744323730469
  0.14400000000000002        -0.40235581994056702
  0.14510000000000001         -3.8767747581005096E-002
  0.14620000000000000         0.42562407255172729
  0.14730000000000004         0.64804887771606445
  0.14840000000000003         0.48015248775482178
  0.14950000000000002         0.11187110841274261
  0.15060000000000001        -0.11095988750457764
  0.15170000000000000         -2.6792947202920914E-002
  0.15280000000000005         0.19429808855056763
  0.15390000000000004         0.23312689363956451
  0.15500000000000003         -2.0135082304477692E-002
  0.15610000000000002        -0.32692539691925049
  0.15720000000000001        -0.32411080598831177
  0.15830000000000000          9.3054749071598053E-002
  0.15940000000000004         0.61743354797363281
  0.16050000000000003         0.79370635747909546
  0.16160000000000002         0.44826051592826843
  0.16270000000000001        -0.13444517552852631
  0.16380000000000000        -0.46196398138999939
  0.16490000000000005        -0.30632117390632629
  0.16600000000000004         0.10023574531078339
  0.16710000000000003         0.30914393067359924
  0.16820000000000002         0.11874067038297653
  0.16930000000000001        -0.23473709821701050
  0.17040000000000000        -0.31957924365997314
  0.17150000000000004          1.9533429294824600E-002
  0.17260000000000003         0.47392100095748901
  0.17370000000000002         0.56438362598419189
  0.17480000000000001         0.11770504713058472
  0.17590000000000000        -0.53040742874145508
  0.17700000000000005        -0.83792114257812500
  0.17810000000000004        -0.59463250637054443
  0.17920000000000003        -0.10128279030323029
  0.18030000000000002         0.10697122663259506
  0.18140000000000001        -0.17252704501152039
  0.18250000000000000        -0.63080859184265137
  0.18360000000000004        -0.77329427003860474
  0.18470000000000003        -0.40907439589500427
  0.18580000000000002         0.11603242158889771
  0.18690000000000001         0.24955405294895172
  0.18800000000000000        -0.20039959251880646
  0.18910000000000005        -0.87619566917419434
  0.19020000000000004         -1.1945091485977173
  0.19130000000000003        -0.89955437183380127
  0.19240000000000002        -0.30167955160140991
  0.19350000000000001          3.8284711539745331E-002
  0.19460000000000005        -0.13155941665172577
  0.19570000000000004        -0.52784937620162964
  0.19680000000000003        -0.65253430604934692
  0.19790000000000002        -0.32680809497833252
  0.19900000000000001         0.12197440862655640
  0.20010000000000000         0.19356311857700348
  0.20120000000000005        -0.24153734743595123
  0.20230000000000004        -0.76455539464950562
  0.20340000000000003        -0.79848468303680420
  0.20450000000000002        -0.18166112899780273
  0.20560000000000000         0.63887935876846313
  0.20670000000000005          1.0160952806472778
  0.20780000000000004         0.70916783809661865
  0.20890000000000003         0.11239009350538254
