 -0.12000000000000000          0.0000000000000000
 -0.11889999999999999          0.0000000000000000
 -0.11780000000000000          0.0000000000000000
 -0.11670000000000000          0.0000000000000000
 -0.11559999999999999          0.0000000000000000
 -0.11449999999999999         -3.1365632747333576E-013
 -0.11340000000000000         -1.0591226246720826E-012
 -0.11230000000000000          6.8983615477882305E-013
 -0.11119999999999999          1.0664824058592653E-011
 -0.11009999999999999          2.3884918348705149E-011
 -0.10900000000000000          7.8431514755083782E-012
 -0.10790000000000000         -7.4840023067676135E-011
 -0.10679999999999999         -1.8451830341437040E-010
 -0.10569999999999999         -1.5252489549145227E-010
 -0.10460000000000000          1.8508766741474495E-010
 -0.10349999999999999          6.8305811007360561E-010
 -0.10239999999999999          7.7049139290961823E-010
 -0.10130000000000000         -6.6850892876922490E-011
 -0.10020000000000000         -1.4219018185101233E-009
  -9.9099999999999994E-002    -1.7883915459647594E-009
  -9.7999999999999990E-002     2.1664064639525158E-011
  -9.6899999999999986E-002     2.7379529754511420E-009
  -9.5799999999999996E-002     2.5355206823005027E-009
  -9.4699999999999993E-002    -3.1147646684108301E-009
  -9.3599999999999989E-002    -1.0197561017833100E-008
  -9.2499999999999999E-002    -8.1962543418965022E-009
  -9.1399999999999995E-002     1.0267300787348478E-008
  -9.0299999999999991E-002     3.6066399644597272E-008
  -8.9200000000000002E-002     4.1707451714501162E-008
  -8.8099999999999984E-002     1.7935181118022782E-009
  -8.6999999999999994E-002    -7.4430786867198570E-008
  -8.5899999999999990E-002    -1.2988441255856845E-007
  -8.4799999999999986E-002    -9.2793889905350171E-008
  -8.3699999999999997E-002     5.5194131931561386E-008
  -8.2599999999999993E-002     2.3208441746192410E-007
  -8.1499999999999989E-002     2.8953132868991953E-007
  -8.0399999999999999E-002     1.2788511583039061E-007
  -7.9299999999999995E-002    -1.9165280207290436E-007
  -7.8199999999999992E-002    -4.4993765868640479E-007
  -7.7100000000000002E-002    -4.2281266132704776E-007
  -7.5999999999999984E-002    -8.1132661478017237E-008
  -7.4899999999999994E-002     3.4123863201786310E-007
  -7.3799999999999991E-002     5.0951382490895372E-007
  -7.2699999999999987E-002     2.7813402425637337E-007
  -7.1599999999999997E-002    -1.4259421732276355E-007
  -7.0499999999999993E-002    -3.3204523219866001E-007
  -6.9399999999999989E-002    -4.1984385745779768E-008
  -6.8300000000000000E-002     5.0812030849554258E-007
  -6.7199999999999996E-002     7.3409250944676025E-007
  -6.6099999999999992E-002     1.7936571339303357E-007
  -6.5000000000000002E-002    -9.9040755685565740E-007
  -6.3899999999999985E-002    -1.9605490706453553E-006
  -6.2799999999999995E-002    -1.8321459265280034E-006
  -6.1699999999999991E-002    -3.7889344639546971E-007
  -6.0599999999999994E-002     1.6432612710560363E-006
  -5.9499999999999990E-002     2.9656193873962151E-006
  -5.8399999999999994E-002     2.7424016479926937E-006
  -5.7299999999999990E-002     1.2031006235701635E-006
  -5.6199999999999986E-002    -5.4202297405948720E-007
  -5.5099999999999996E-002    -1.4118375020190634E-006
  -5.3999999999999992E-002    -1.2271073046578305E-006
  -5.2899999999999989E-002    -8.0251055578631954E-007
  -5.1799999999999985E-002    -1.1741816479115086E-006
  -5.0699999999999995E-002    -2.6290731511833433E-006
  -4.9599999999999991E-002    -4.3825789362015363E-006
  -4.8499999999999988E-002    -5.1936608542745069E-006
  -4.7399999999999998E-002    -4.3973873289360148E-006
  -4.6299999999999994E-002    -2.4816472432576937E-006
  -4.5199999999999990E-002    -7.3685367851801209E-007
  -4.4099999999999986E-002    -2.9551256375266263E-007
  -4.2999999999999997E-002    -1.3619998071588266E-006
  -4.1899999999999993E-002    -3.2222942536461517E-006
  -4.0799999999999989E-002    -4.9509931159262181E-006
  -3.9699999999999985E-002    -6.2001140577194687E-006
  -3.8599999999999995E-002    -7.4722847784871033E-006
  -3.7499999999999992E-002    -9.7452939371580598E-006
  -3.6399999999999988E-002    -1.3781539564661304E-005
  -3.5299999999999984E-002    -1.9585611880756711E-005
  -3.4199999999999994E-002    -2.6293295377399227E-005
  -3.3099999999999991E-002    -3.2527721486984884E-005
  -3.1999999999999987E-002    -3.7095236621097698E-005
  -3.0899999999999997E-002    -3.9763395761837356E-005
  -2.9799999999999993E-002    -4.1720217268447639E-005
  -2.8699999999999989E-002    -4.5301807404029518E-005
  -2.7599999999999986E-002    -5.2910199883626110E-005
  -2.6499999999999996E-002    -6.5665321017148955E-005
  -2.5399999999999992E-002    -8.2750964793375446E-005
  -2.4299999999999988E-002    -1.0210117761744040E-004
  -2.3199999999999985E-002    -1.2205685197841207E-004
  -2.2099999999999995E-002    -1.4270117389969335E-004
  -2.0999999999999991E-002    -1.6567607235628887E-004
  -1.9899999999999987E-002    -1.9254026119596982E-004
  -1.8799999999999983E-002    -2.2312942019197751E-004
  -1.7699999999999994E-002    -2.5558480410836220E-004
  -1.6599999999999990E-002    -2.8830720111727232E-004
  -1.5499999999999986E-002    -3.2222198205999483E-004
  -1.4399999999999996E-002    -3.6115158582105636E-004
  -1.3299999999999992E-002    -4.0955209988168732E-004
  -1.2199999999999989E-002    -4.6925383503548107E-004
  -1.1099999999999985E-002    -5.3795042913406318E-004
  -9.9999999999999950E-003    -6.1087711947037881E-004
  -8.8999999999999913E-003    -6.8438227754085237E-004
  -7.7999999999999875E-003    -7.5839605415238759E-004
  -6.6999999999999837E-003    -8.3573581650851813E-004
  -5.5999999999999939E-003    -9.1900373809038097E-004
  -4.4999999999999901E-003    -1.0079678613692355E-003
  -3.3999999999999864E-003    -1.0997513309120952E-003
  -2.2999999999999826E-003    -1.1915134964510603E-003
  -1.1999999999999927E-003    -1.2829399202018768E-003
  -9.9999999999988987E-005    -1.3761128066107410E-003
   1.0000000000000148E-003    -1.4728594105690481E-003
   2.1000000000000185E-003    -1.5720212832092989E-003
   3.2000000000000084E-003    -1.6691301716491311E-003
   4.3000000000000121E-003    -1.7585671739652464E-003
   5.4000000000000159E-003    -1.8361588008701493E-003
   6.5000000000000058E-003    -1.8998807063325916E-003
   7.6000000000000234E-003    -1.9485363736748361E-003
   8.7000000000000133E-003    -1.9801687449216504E-003
   9.8000000000000032E-003    -1.9918845500796695E-003
   1.0900000000000021E-002    -1.9809543155133386E-003
   1.2000000000000011E-002    -1.9454989815130494E-003
   1.3100000000000001E-002    -1.8836212111636667E-003
   1.4200000000000018E-002    -1.7917782533913526E-003
   1.5300000000000008E-002    -1.6644984716549206E-003
   1.6400000000000026E-002    -1.4963746070861530E-003
   1.7500000000000016E-002    -1.2847234029322609E-003
   1.8600000000000005E-002    -1.0303533636033323E-003
   1.9700000000000023E-002    -7.3552120011298179E-004
   2.0800000000000013E-002    -4.0073363925329186E-004
   2.1900000000000003E-002    -2.3875285478419452E-005
   2.3000000000000020E-002     3.9749912684783280E-004
   2.4100000000000010E-002     8.6276337970047419E-004
   2.5200000000000000E-002     1.3671790948137485E-003
   2.6300000000000018E-002     1.9046905217692009E-003
   2.7400000000000008E-002     2.4716185871511355E-003
   2.8500000000000025E-002     3.0673237051814348E-003
   2.9600000000000015E-002     3.6906516179441855E-003
   3.0700000000000005E-002     4.3351328931748199E-003
   3.1800000000000023E-002     4.9876766279339027E-003
   3.2900000000000013E-002     5.6324652396141607E-003
   3.4000000000000002E-002     6.2570464797317002E-003
   3.5100000000000020E-002     6.8546268157659868E-003
   3.6200000000000010E-002     7.4212122708557839E-003
   3.7300000000000028E-002     7.9499194398521076E-003
   3.8400000000000017E-002     8.4283677861093104E-003
   3.9500000000000007E-002     8.8419578969477150E-003
   4.0600000000000025E-002     9.1792717576025390E-003
   4.1700000000000015E-002     9.4348695129154517E-003
   4.2800000000000005E-002     9.6061592921613016E-003
   4.3900000000000022E-002     9.6879387274382833E-003
   4.5000000000000012E-002     9.6700266003607038E-003
   4.6100000000000002E-002     9.5409639179704925E-003
   4.7200000000000020E-002     9.2945219948886212E-003
   4.8300000000000010E-002     8.9330747723577828E-003
   4.9400000000000027E-002     8.4647657349704187E-003
   5.0500000000000017E-002     7.8975697979329594E-003
   5.1600000000000007E-002     7.2358823381363027E-003
   5.2700000000000025E-002     6.4825266599653946E-003
   5.3800000000000014E-002     5.6437421590088740E-003
   5.4900000000000004E-002     4.7314302064477487E-003
   5.6000000000000022E-002     3.7603459786622957E-003
   5.7100000000000012E-002     2.7432863134890209E-003
   5.8200000000000002E-002     1.6892198473214702E-003
   5.9300000000000019E-002     6.0659844893960009E-004
   6.0400000000000009E-002    -4.9163866788149129E-004
   6.1500000000000027E-002    -1.5865183668210942E-003
   6.2600000000000017E-002    -2.6571110356598746E-003
   6.3700000000000007E-002    -3.6864050198345852E-003
   6.4800000000000024E-002    -4.6638986095785401E-003
   6.5900000000000014E-002    -5.5827950127421951E-003
   6.7000000000000004E-002    -6.4358166418968625E-003
   6.8100000000000022E-002    -7.2143445722757625E-003
   6.9200000000000012E-002    -7.9117594286798147E-003
   7.0300000000000029E-002    -8.5275052115319772E-003
   7.1400000000000019E-002    -9.0670213103292898E-003
   7.2500000000000009E-002    -9.5367860049007762E-003
   7.3600000000000027E-002    -9.9396528676150599E-003
   7.4700000000000016E-002    -1.0274942032992672E-002
   7.5800000000000006E-002    -1.0543307289480991E-002
   7.6900000000000024E-002    -1.0751548223197285E-002
   7.8000000000000014E-002    -1.0912675410508934E-002
   7.9100000000000004E-002    -1.1040716432034791E-002
   8.0200000000000021E-002    -1.1145389638840972E-002
   8.1300000000000011E-002    -1.1231903918087304E-002
   8.2400000000000029E-002    -1.1305170133709729E-002
   8.3500000000000019E-002    -1.1373728513717473E-002
   8.4600000000000009E-002    -1.1448591947555363E-002
   8.5700000000000026E-002    -1.1537307873368085E-002
   8.6800000000000016E-002    -1.1639372445642768E-002
   8.7900000000000006E-002    -1.1746844276785668E-002
   8.9000000000000024E-002    -1.1849990114569480E-002
   9.0100000000000013E-002    -1.1942713521420770E-002
   9.1200000000000003E-002    -1.2021854519843868E-002
   9.2300000000000021E-002    -1.2081458233296680E-002
   9.3400000000000011E-002    -1.2108561582863138E-002
   9.4500000000000028E-002    -1.2084111571311756E-002
   9.5600000000000018E-002    -1.1988460086285872E-002
   9.6700000000000008E-002    -1.1806319467723172E-002
   9.7800000000000026E-002    -1.1526345275342267E-002
   9.8900000000000016E-002    -1.1136748827993675E-002
  0.10000000000000001         -1.0622306726872732E-002
  0.10110000000000002         -9.9658509716389725E-003
  0.10220000000000001         -9.1535216197369713E-003
  0.10330000000000003         -8.1787137314675590E-003
  0.10440000000000002         -7.0413267239926736E-003
  0.10550000000000001         -5.7439031079410162E-003
  0.10660000000000003         -4.2894524522124576E-003
  0.10770000000000002         -2.6830178685485389E-003
  0.10880000000000001         -9.3498534988605182E-004
  0.10990000000000003          9.3649589689452455E-004
  0.11100000000000002          2.9072430916130634E-003
  0.11210000000000001          4.9517694860696558E-003
  0.11320000000000002          7.0430715568363085E-003
  0.11430000000000001          9.1523518785833376E-003
  0.11540000000000003          1.1246417649090158E-002
  0.11650000000000002          1.3288072310387922E-002
  0.11760000000000001          1.5240451321005618E-002
  0.11870000000000003          1.7069878056645154E-002
  0.11980000000000002          1.8747068941592896E-002
  0.12090000000000001          2.0243881270289119E-002
  0.12200000000000003          2.1532090380787520E-002
  0.12310000000000001          2.2584550082683209E-002
  0.12420000000000003          2.3378737270831687E-002
  0.12530000000000002          2.3899061605333886E-002
  0.12640000000000001          2.4135842919349264E-002
  0.12750000000000003          2.4082366377114840E-002
  0.12860000000000002          2.3733684793114246E-002
  0.12970000000000001          2.3089634254574363E-002
  0.13080000000000003          2.2159269079565596E-002
  0.13190000000000002          2.0961292088031377E-002
  0.13300000000000001          1.9520994275807960E-002
  0.13410000000000000          1.7865180969237927E-002
  0.13520000000000004          1.6019739210605299E-002
  0.13630000000000003          1.4012282714247410E-002
  0.13740000000000002          1.1875455267727113E-002
  0.13850000000000001          9.6471607685086856E-003
  0.13960000000000000          7.3659545741973434E-003
  0.14070000000000005          5.0665298476813741E-003
  0.14180000000000004          2.7790989261119469E-003
  0.14290000000000003          5.3362577455111370E-004
  0.14400000000000002         -1.6372377285734118E-003
  0.14510000000000001         -3.6990703083574689E-003
  0.14620000000000000         -5.6206365115940120E-003
  0.14730000000000004         -7.3787989094852603E-003
  0.14840000000000003         -8.9579904451965158E-003
  0.14950000000000002         -1.0345960967242577E-002
  0.15060000000000001         -1.1530049145221542E-002
  0.15170000000000000         -1.2498863041400720E-002
  0.15280000000000005         -1.3247556984424383E-002
  0.15390000000000004         -1.3780653476714866E-002
  0.15500000000000003         -1.4109163545071845E-002
  0.15610000000000002         -1.4244900085031745E-002
  0.15720000000000001         -1.4196772128343338E-002
  0.15830000000000000         -1.3973139226436370E-002
  0.15940000000000004         -1.3587440364062543E-002
  0.16050000000000003         -1.3059797696769000E-002
  0.16160000000000002         -1.2413102202117212E-002
  0.16270000000000001         -1.1666542850434562E-002
  0.16380000000000000         -1.0833770036697181E-002
  0.16490000000000005         -9.9275792017577153E-003
  0.16600000000000004         -8.9659495279191138E-003
  0.16710000000000003         -7.9730842262504872E-003
  0.16820000000000002         -6.9737215526400557E-003
  0.16930000000000001         -5.9855030849574721E-003
  0.17040000000000000         -5.0179790705441327E-003
  0.17150000000000004         -4.0778722614048975E-003
  0.17260000000000003         -3.1759149860589929E-003
  0.17370000000000002         -2.3271562531589850E-003
  0.17480000000000001         -1.5444507589563263E-003
  0.17590000000000000         -8.3175598410886265E-004
  0.17700000000000005         -1.8433923833070258E-004
  0.17810000000000004          4.0318057290279085E-004
  0.17920000000000003          9.2969421530142058E-004
  0.18030000000000002          1.3877816963940727E-003
  0.18140000000000001          1.7713690176605966E-003
  0.18250000000000000          2.0829304121434402E-003
  0.18360000000000004          2.3323742207139388E-003
  0.18470000000000003          2.5290665216743556E-003
  0.18580000000000002          2.6750934775918297E-003
  0.18690000000000001          2.7667647227644465E-003
  0.18800000000000000          2.8033819980918897E-003
  0.18910000000000005          2.7937074191867832E-003
  0.19020000000000004          2.7534987311809778E-003
  0.19130000000000003          2.6958067901432041E-003
  0.19240000000000002          2.6239205617457164E-003
  0.19350000000000001          2.5334388483315255E-003
  0.19460000000000005          2.4211567360907359E-003
  0.19570000000000004          2.2915268782525838E-003
  0.19680000000000003          2.1541130263357960E-003
  0.19790000000000002          2.0152565557509288E-003
  0.19900000000000001          1.8730682786553753E-003
  0.20010000000000000          1.7213507089763565E-003
  0.20120000000000005          1.5585401561110928E-003
  0.20230000000000004          1.3922305079176766E-003
  0.20340000000000003          1.2343872804194457E-003
  0.20450000000000002          1.0918194893747364E-003
  0.20560000000000000          9.6164585556833093E-004
  0.20670000000000005          8.3609542343763849E-004
  0.20780000000000004          7.1158108767120567E-004
  0.20890000000000003          5.9251172933726223E-004
