 -0.12000000000000000          0.0000000000000000
 -0.11889999999999999          0.0000000000000000
 -0.11780000000000000          0.0000000000000000
 -0.11670000000000000          0.0000000000000000
 -0.11559999999999999          0.0000000000000000
 -0.11449999999999999          0.0000000000000000
 -0.11340000000000000          0.0000000000000000
 -0.11230000000000000          0.0000000000000000
 -0.11119999999999999          0.0000000000000000
 -0.11009999999999999          0.0000000000000000
 -0.10900000000000000         -7.4669091572203191E-025
 -0.10790000000000000         -4.8868966723832786E-024
 -0.10679999999999999          5.8079272779695448E-024
 -0.10569999999999999          1.3233955789536661E-022
 -0.10460000000000000          3.0742247740018989E-022
 -0.10349999999999999         -9.6358816836443800E-022
 -0.10239999999999999         -6.4536696014872575E-021
 -0.10130000000000000         -8.7002929529748476E-021
 -0.10020000000000000          3.1849245317858932E-020
  -9.9099999999999994E-002     1.5068269712617166E-019
  -9.7999999999999990E-002     1.7043248728088189E-019
  -9.6899999999999986E-002    -5.0550811520826653E-019
  -9.5799999999999996E-002    -2.1962557229908224E-018
  -9.4699999999999993E-002    -2.5682957131230320E-018
  -9.3599999999999989E-002     4.7665918838898696E-018
  -9.2499999999999999E-002     2.2659555744067350E-017
  -9.1399999999999995E-002     3.0153161929836314E-017
  -9.0299999999999991E-002    -2.6436533558517154E-017
  -8.9200000000000002E-002    -1.7499829068704913E-016
  -8.8099999999999984E-002    -2.7627816577403363E-016
  -8.6999999999999994E-002     3.9527877744585595E-017
  -8.5899999999999990E-002     1.0263598807042844E-015
  -8.4799999999999986E-002     1.9858170758279246E-015
  -8.3699999999999997E-002     7.9851362948615313E-016
  -8.2599999999999993E-002    -4.4563919544024326E-015
  -8.1499999999999989E-002    -1.1245641394551191E-014
  -8.0399999999999999E-002    -9.4606566775502082E-015
  -7.9299999999999995E-002     1.2669137013619509E-014
  -7.8199999999999992E-002     4.9962604312028119E-014
  -7.7100000000000002E-002     6.2702156021585825E-014
  -7.5999999999999984E-002    -7.8040838494188719E-015
  -7.4899999999999994E-002    -1.6970830936293563E-013
  -7.3799999999999991E-002    -2.9779637414871496E-013
  -7.2699999999999987E-002    -1.5227939352199793E-013
  -7.1599999999999997E-002     4.0262641853340553E-013
  -7.0499999999999993E-002     1.0715380405895703E-012
  -6.9399999999999989E-002     1.0512213929197989E-012
  -6.8300000000000000E-002    -4.0660438340930916E-013
  -6.7199999999999996E-002    -2.9073076411589849E-012
  -6.6099999999999992E-002    -4.2687953866193951E-012
  -6.5000000000000002E-002    -1.6311176584751785E-012
  -6.3899999999999985E-002     5.4967449862608486E-012
  -6.2799999999999995E-002     1.2469522810143463E-011
  -6.1699999999999991E-002     1.0809504333297859E-011
  -6.0599999999999994E-002    -4.6479560651679908E-012
  -5.9499999999999990E-002    -2.6925102772357157E-011
  -5.8399999999999994E-002    -3.5876881326890597E-011
  -5.7299999999999990E-002    -1.2012934917648987E-011
  -5.6199999999999986E-002     4.0667372247504829E-011
  -5.5099999999999996E-002     8.3503252923389226E-011
  -5.3999999999999992E-002     6.4413398226381702E-011
  -5.2899999999999989E-002    -3.2281944478684821E-011
  -5.1799999999999985E-002    -1.4698076089558754E-010
  -5.0699999999999995E-002    -1.6775811295666188E-010
  -4.9599999999999991E-002    -2.4959152800096973E-011
  -4.8499999999999988E-002     2.0925010335570704E-010
  -4.7399999999999998E-002     3.2623415080479390E-010
  -4.6299999999999994E-002     1.4208557941319810E-010
  -4.5199999999999990E-002    -2.8391952677786492E-010
  -4.4099999999999986E-002    -5.8990834439498485E-010
  -4.2999999999999997E-002    -3.6190117569390168E-010
  -4.1899999999999993E-002     4.2519071596913705E-010
  -4.0799999999999989E-002     1.1710519220997639E-009
  -3.9699999999999985E-002     9.8760133404596218E-010
  -3.8599999999999995E-002    -4.6737269610019894E-010
  -3.7499999999999992E-002    -2.3211668143119368E-009
  -3.6399999999999988E-002    -2.7869608842934213E-009
  -3.5299999999999984E-002    -5.8602472874369482E-010
  -3.4199999999999994E-002     3.4715981200861279E-009
  -3.3099999999999991E-002     6.3089582447162229E-009
  -3.1999999999999987E-002     4.6030352862658219E-009
  -3.0899999999999997E-002    -2.0950441381728524E-009
  -2.9799999999999993E-002    -9.7738093174370988E-009
  -2.8699999999999989E-002    -1.2023570583608034E-008
  -2.7599999999999986E-002    -5.0646002947019042E-009
  -2.6499999999999996E-002     8.0257525070237534E-009
  -2.5399999999999992E-002     1.8082946695585633E-008
  -2.4299999999999988E-002     1.6335679475787401E-008
  -2.3199999999999985E-002     2.1322152932157223E-009
  -2.2099999999999995E-002    -1.4893634769919117E-008
  -2.0999999999999991E-002    -2.1488514079237575E-008
  -1.9899999999999987E-002    -1.2001609484002529E-008
  -1.8799999999999983E-002     5.4102065050187775E-009
  -1.7699999999999994E-002     1.4536608361481740E-008
  -1.6599999999999990E-002     5.8178413198106682E-009
  -1.5499999999999986E-002    -1.2416470518417100E-008
  -1.4399999999999996E-002    -1.8200603690843309E-008
  -1.3299999999999992E-002     4.4700354528970365E-009
  -1.2199999999999989E-002     4.5922384117602633E-008
  -1.1099999999999985E-002     7.0431113385893696E-008
  -9.9999999999999950E-003     4.1439388809294542E-008
  -8.8999999999999913E-003    -4.3718483055954493E-008
  -7.7999999999999875E-003    -1.3860832837053749E-007
  -6.6999999999999837E-003    -1.7076961000839219E-007
  -5.5999999999999939E-003    -9.2908500448629638E-008
  -4.4999999999999901E-003     7.3745859197060781E-008
  -3.3999999999999864E-003     2.3994391540327342E-007
  -2.2999999999999826E-003     2.9936995815660339E-007
  -1.1999999999999927E-003     1.9834043030186876E-007
  -9.9999999999988987E-005    -2.4535035336725741E-008
   1.0000000000000148E-003    -2.5817342930167797E-007
   2.1000000000000185E-003    -3.8532522239620448E-007
   3.2000000000000084E-003    -3.4920242342195706E-007
   4.3000000000000121E-003    -1.7605947277843370E-007
   5.4000000000000159E-003     5.5676963484074804E-008
   6.5000000000000058E-003     2.6907082428806461E-007
   7.6000000000000234E-003     4.2103798136849946E-007
   8.7000000000000133E-003     4.9249194944422925E-007
   9.8000000000000032E-003     4.5559906425296504E-007
   1.0900000000000021E-002     2.6123450425075134E-007
   1.2000000000000011E-002    -1.2436204599453049E-007
   1.3100000000000001E-002    -6.4898745222308207E-007
   1.4200000000000018E-002    -1.1271474704699358E-006
   1.5300000000000008E-002    -1.2776205267073237E-006
   1.6400000000000026E-002    -8.6143990074560861E-007
   1.7500000000000016E-002     1.3870355530798406E-007
   1.8600000000000005E-002     1.4113484212430194E-006
   1.9700000000000023E-002     2.3832983515603701E-006
   2.0800000000000013E-002     2.4733187728998018E-006
   2.1900000000000003E-002     1.4209870187187335E-006
   2.3000000000000020E-002    -4.9900665999302873E-007
   2.4100000000000010E-002    -2.5315623588539893E-006
   2.5200000000000000E-002    -3.7717011309723603E-006
   2.6300000000000018E-002    -3.6034223285241751E-006
   2.7400000000000008E-002    -1.9996630271634785E-006
   2.8500000000000025E-002     4.8167623845074559E-007
   2.9600000000000015E-002     2.9764300961687695E-006
   3.0700000000000005E-002     4.6729683162993751E-006
   3.1800000000000023E-002     5.0455464588594623E-006
   3.2900000000000013E-002     3.9018141251290217E-006
   3.4000000000000002E-002     1.3519689900931553E-006
   3.5100000000000020E-002    -2.1605360416288022E-006
   3.6200000000000010E-002    -5.7676634241943248E-006
   3.7300000000000028E-002    -8.2056285464204848E-006
   3.8400000000000017E-002    -8.1647176557453349E-006
   3.9500000000000007E-002    -4.9425257202528883E-006
   4.0600000000000025E-002     9.3118711674833321E-007
   4.1700000000000015E-002     7.5675452535506338E-006
   4.2800000000000005E-002     1.2345053619355895E-005
   4.3900000000000022E-002     1.3075224160274956E-005
   4.5000000000000012E-002     9.0919929789379239E-006
   4.6100000000000002E-002     1.6308365502482047E-006
   4.7200000000000020E-002    -6.7282508098287508E-006
   4.8300000000000010E-002    -1.3215769286034629E-005
   4.9400000000000027E-002    -1.5960014934535138E-005
   5.0500000000000017E-002    -1.4463302250078414E-005
   5.1600000000000007E-002    -9.3803328127251007E-006
   5.2700000000000025E-002    -1.9551503100956324E-006
   5.3800000000000014E-002     6.4063606259878725E-006
   5.4900000000000004E-002     1.4204733815859072E-005
   5.6000000000000022E-002     1.9734496163437143E-005
   5.7100000000000012E-002     2.1197531168581918E-005
   5.8200000000000002E-002     1.7312320778728463E-005
   5.9300000000000019E-002     8.2607157310121693E-006
   6.0400000000000009E-002    -3.6160092804493615E-006
   6.1500000000000027E-002    -1.4053637642064132E-005
   6.2600000000000017E-002    -1.8314029148314148E-005
   6.3700000000000007E-002    -1.3380436030274723E-005
   6.4800000000000024E-002     2.1645828951477597E-007
   6.5900000000000014E-002     1.8120412278221920E-005
   6.7000000000000004E-002     3.3879954571602866E-005
   6.8100000000000022E-002     4.1972351027652621E-005
   6.9200000000000012E-002     4.0510207327315584E-005
   7.0300000000000029E-002     3.2075684430310503E-005
   7.1400000000000019E-002     2.2217820514924824E-005
   7.2500000000000009E-002     1.6598844013060443E-005
   7.3600000000000027E-002     1.8577178707346320E-005
   7.4700000000000016E-002     2.8576852855621837E-005
   7.5800000000000006E-002     4.5232496631797403E-005
   7.6900000000000024E-002     6.7064458562526852E-005
   7.8000000000000014E-002     9.3272785306908190E-005
   7.9100000000000004E-002     1.2320831592660397E-004
   8.0200000000000021E-002     1.5534016711171716E-004
   8.1300000000000011E-002     1.8703615933191031E-004
   8.2400000000000029E-002     2.1575443679466844E-004
   8.3500000000000019E-002     2.4098699213936925E-004
   8.4600000000000009E-002     2.6551767950877547E-004
   8.5700000000000026E-002     2.9494689079001546E-004
   8.6800000000000016E-002     3.3561844611540437E-004
   8.7900000000000006E-002     3.9216101868078113E-004
   8.9000000000000024E-002     4.6604091767221689E-004
   9.0100000000000013E-002     5.5571913253515959E-004
   9.1200000000000003E-002     6.5809034276753664E-004
   9.2300000000000021E-002     7.7018112642690539E-004
   9.3400000000000011E-002     8.9030363596975803E-004
   9.4500000000000028E-002     1.0182843543589115E-003
   9.5600000000000018E-002     1.1550126364454627E-003
   9.6700000000000008E-002     1.3018226018175483E-003
   9.7800000000000026E-002     1.4600829454138875E-003
   9.8900000000000016E-002     1.6313602682203054E-003
  0.10000000000000001          1.8177438760176301E-003
  0.10110000000000002          2.0218896679580212E-003
  0.10220000000000001          2.2460785694420338E-003
  0.10330000000000003          2.4906776379793882E-003
  0.10440000000000002          2.7525504119694233E-003
  0.10550000000000001          3.0250747222453356E-003
  0.10660000000000003          3.3001333940774202E-003
  0.10770000000000002          3.5710579250007868E-003
  0.10880000000000001          3.8350857794284821E-003
  0.10990000000000003          4.0931985713541508E-003
  0.11100000000000002          4.3468996882438660E-003
  0.11210000000000001          4.5946827158331871E-003
  0.11320000000000002          4.8299161717295647E-003
  0.11430000000000001          5.0418968312442303E-003
  0.11540000000000003          5.2183233201503754E-003
  0.11650000000000002          5.3479080088436604E-003
  0.11760000000000001          5.4206638596951962E-003
  0.11870000000000003          5.4276566952466965E-003
  0.11980000000000002          5.3602340631186962E-003
  0.12090000000000001          5.2103148773312569E-003
  0.12200000000000003          4.9704988487064838E-003
  0.12310000000000001          4.6332585625350475E-003
  0.12420000000000003          4.1900267824530602E-003
  0.12530000000000002          3.6310194991528988E-003
  0.12640000000000001          2.9453672468662262E-003
  0.12750000000000003          2.1247966215014458E-003
  0.12860000000000002          1.1649413499981165E-003
  0.12970000000000001          6.5886990341823548E-005
  0.13080000000000003         -1.1693914420902729E-003
  0.13190000000000002         -2.5369136128574610E-003
  0.13300000000000001         -4.0321191772818565E-003
  0.13410000000000000         -5.6478935293853283E-003
  0.13520000000000004         -7.3726316913962364E-003
  0.13630000000000003         -9.1908136382699013E-003
  0.13740000000000002         -1.1084061115980148E-002
  0.13850000000000001         -1.3031656853854656E-002
  0.13960000000000000         -1.5010972507297993E-002
  0.14070000000000005         -1.6995519399642944E-002
  0.14180000000000004         -1.8952287733554840E-002
  0.14290000000000003         -2.0843103528022766E-002
  0.14400000000000002         -2.2625658661127090E-002
  0.14510000000000001         -2.4258626624941826E-002
  0.14620000000000000         -2.5701701641082764E-002
  0.14730000000000004         -2.6917187497019768E-002
  0.14840000000000003         -2.7871437370777130E-002
  0.14950000000000002         -2.8535166755318642E-002
  0.15060000000000001         -2.8882149606943130E-002
  0.15170000000000000         -2.8886718675494194E-002
  0.15280000000000005         -2.8519982472062111E-002
  0.15390000000000004         -2.7750212699174881E-002
  0.15500000000000003         -2.6547528803348541E-002
  0.15610000000000002         -2.4893656373023987E-002
  0.15720000000000001         -2.2788291797041893E-002
  0.15830000000000000         -2.0249044522643089E-002
  0.15940000000000004         -1.7304705455899239E-002
  0.16050000000000003         -1.3986626639962196E-002
  0.16160000000000002         -1.0324750095605850E-002
  0.16270000000000001         -6.3508735038340092E-003
  0.16380000000000000         -2.1046639885753393E-003
  0.16490000000000005          2.3624780587852001E-003
  0.16600000000000004          6.9884732365608215E-003
  0.16710000000000003          1.1706465855240822E-002
  0.16820000000000002          1.6447866335511208E-002
  0.16930000000000001          2.1141635254025459E-002
  0.17040000000000000          2.5712257251143456E-002
  0.17150000000000004          3.0081897974014282E-002
  0.17260000000000003          3.4171212464570999E-002
  0.17370000000000002          3.7906628102064133E-002
  0.17480000000000001          4.1221398860216141E-002
  0.17590000000000000          4.4055957347154617E-002
  0.17700000000000005          4.6357147395610809E-002
  0.17810000000000004          4.8079226166009903E-002
  0.17920000000000003          4.9190107733011246E-002
  0.18030000000000002          4.9669381231069565E-002
  0.18140000000000001          4.9508146941661835E-002
  0.18250000000000000          4.8705529421567917E-002
  0.18360000000000004          4.7266677021980286E-002
  0.18470000000000003          4.5202996581792831E-002
  0.18580000000000002          4.2540177702903748E-002
  0.18690000000000001          3.9320420473814011E-002
  0.18800000000000000          3.5604294389486313E-002
  0.18910000000000005          3.1458742916584015E-002
  0.19020000000000004          2.6953006163239479E-002
  0.19130000000000003          2.2158717736601830E-002
  0.19240000000000002          1.7151698470115662E-002
  0.19350000000000001          1.2012842111289501E-002
  0.19460000000000005          6.8247909657657146E-003
  0.19570000000000004          1.6655657673254609E-003
  0.19680000000000003         -3.3935215324163437E-003
  0.19790000000000002         -8.2844290882349014E-003
  0.19900000000000001         -1.2936472892761230E-002
  0.20010000000000000         -1.7275808379054070E-002
  0.20120000000000005         -2.1233012899756432E-002
  0.20230000000000004         -2.4754257872700691E-002
  0.20340000000000003         -2.7806168422102928E-002
  0.20450000000000002         -3.0372489243745804E-002
  0.20560000000000000         -3.2445106655359268E-002
  0.20670000000000005         -3.4018799662590027E-002
  0.20780000000000004         -3.5091187804937363E-002
  0.20890000000000003         -3.5667512565851212E-002
