 -0.12000000000000000          0.0000000000000000
 -0.11889999999999999          0.0000000000000000
 -0.11780000000000000          0.0000000000000000
 -0.11670000000000000          0.0000000000000000
 -0.11559999999999999          0.0000000000000000
 -0.11449999999999999          0.0000000000000000
 -0.11340000000000000         -1.3375023243902875E-019
 -0.11230000000000000         -1.1061620599899856E-018
 -0.11119999999999999         -2.8910752366213305E-018
 -0.11009999999999999          3.5845214236398475E-018
 -0.10900000000000000          4.3011906236377294E-017
 -0.10790000000000000          1.0879393083185700E-016
 -0.10679999999999999          2.4266671721306827E-017
 -0.10569999999999999         -5.9188465362423567E-016
 -0.10460000000000000         -1.7420628047065288E-015
 -0.10349999999999999         -1.7546334089184931E-015
 -0.10239999999999999          2.9718536354408128E-015
 -0.10130000000000000          1.3857212530492703E-014
 -0.10020000000000000          2.1591239131877119E-014
  -9.9099999999999994E-002     3.0381295166404887E-015
  -9.7999999999999990E-002    -5.9553429624780579E-014
  -9.6899999999999986E-002    -1.3548428871856810E-013
  -9.5799999999999996E-002    -1.1932761636440636E-013
  -9.4699999999999993E-002     1.0780984530675899E-013
  -9.3599999999999989E-002     5.0934191760110270E-013
  -9.2499999999999999E-002     7.4366749737431181E-013
  -9.1399999999999995E-002     2.8230960321187770E-013
  -9.0299999999999991E-002    -1.0750610471288446E-012
  -8.9200000000000002E-002    -2.5883310252050595E-012
  -8.8099999999999984E-002    -2.5912518658577355E-012
  -8.6999999999999994E-002     3.1382727905086838E-013
  -8.5899999999999990E-002     5.3680610304085441E-012
  -8.4799999999999986E-002     8.8152003058228345E-012
  -8.3699999999999997E-002     5.8831086703625690E-012
  -8.2599999999999993E-002    -4.7271058595255155E-012
  -8.1499999999999989E-002    -1.7266583995922957E-011
  -8.0399999999999999E-002    -2.0780507523077141E-011
  -7.9299999999999995E-002    -7.4498549690327209E-012
  -7.8199999999999992E-002     1.8020402878238251E-011
  -7.7100000000000002E-002     3.7355948195871846E-011
  -7.5999999999999984E-002     3.1014052437328132E-011
  -7.4899999999999994E-002    -3.0632280566267323E-012
  -7.3799999999999991E-002    -4.1002378575738518E-011
  -7.2699999999999987E-002    -4.7825892551811577E-011
  -7.1599999999999997E-002    -9.3100596676443104E-012
  -7.0499999999999993E-002     4.5801466785899692E-011
  -6.9399999999999989E-002     6.0281474256740353E-011
  -6.8300000000000000E-002    -1.2643149331290071E-012
  -6.7199999999999996E-002    -1.0480005058211006E-010
  -6.6099999999999992E-002    -1.5241523321218864E-010
  -6.5000000000000002E-002    -5.6053085784046885E-011
  -6.3899999999999985E-002     1.6866921748182051E-010
  -6.2799999999999995E-002     3.7333747204826295E-010
  -6.1699999999999991E-002     3.6273845038792274E-010
  -6.0599999999999994E-002     5.3069895700197378E-011
  -5.9499999999999990E-002    -4.1996128796739640E-010
  -5.8399999999999994E-002    -7.5225564666325795E-010
  -5.7299999999999990E-002    -6.7475153242568808E-010
  -5.6199999999999986E-002    -1.6738713193298338E-010
  -5.5099999999999996E-002     4.9303794380506361E-010
  -5.3999999999999992E-002     9.1294782844641986E-010
  -5.2899999999999989E-002     8.6579804436937025E-010
  -5.1799999999999985E-002     4.5347717247956609E-010
  -5.0699999999999995E-002     3.2932302718169382E-012
  -4.9599999999999991E-002    -2.2361025531214551E-010
  -4.8499999999999988E-002    -2.6395297059167433E-010
  -4.7399999999999998E-002    -4.0722900052081457E-010
  -4.6299999999999994E-002    -8.8609186654764471E-010
  -4.5199999999999990E-002    -1.5580003953630239E-009
  -4.4099999999999986E-002    -1.8780204058543859E-009
  -4.2999999999999997E-002    -1.2487599843069574E-009
  -4.1899999999999993E-002     4.7913428780077538E-010
  -4.0799999999999989E-002     2.7390294476958843E-009
  -3.9699999999999985E-002     4.4568633228436738E-009
  -3.8599999999999995E-002     4.6404986520087732E-009
  -3.7499999999999992E-002     2.9709725790638686E-009
  -3.6399999999999988E-002     4.4913486992037566E-012
  -3.5299999999999984E-002    -3.1408629030948987E-009
  -3.4199999999999994E-002    -5.3950754974607662E-009
  -3.3099999999999991E-002    -6.2437650605318140E-009
  -3.1999999999999987E-002    -5.8303544214766134E-009
  -3.0899999999999997E-002    -4.6383021867768548E-009
  -2.9799999999999993E-002    -3.0167444098339047E-009
  -2.8699999999999989E-002    -9.0015506160057157E-010
  -2.7599999999999986E-002     2.0808124112647874E-009
  -2.6499999999999996E-002     6.1934324335766178E-009
  -2.5399999999999992E-002     1.1238468822227787E-008
  -2.4299999999999988E-002     1.6574244199318855E-008
  -2.3199999999999985E-002     2.1611556988432312E-008
  -2.2099999999999995E-002     2.6471278502526729E-008
  -2.0999999999999991E-002     3.2266967764371657E-008
  -1.9899999999999987E-002     4.0641463527890664E-008
  -1.8799999999999983E-002     5.2716487175530347E-008
  -1.7699999999999994E-002     6.8154385246543825E-008
  -1.6599999999999990E-002     8.5124355564403231E-008
  -1.5499999999999986E-002     1.0142871076368465E-007
  -1.4399999999999996E-002     1.1619533069051613E-007
  -1.3299999999999992E-002     1.3102749107929412E-007
  -1.2199999999999989E-002     1.4979174522977701E-007
  -1.1099999999999985E-002     1.7717388800519984E-007
  -9.9999999999999950E-003     2.1702474839457864E-007
  -8.8999999999999913E-003     2.7162093374499818E-007
  -7.7999999999999875E-003     3.4217219990750891E-007
  -6.6999999999999837E-003     4.2987289816664997E-007
  -5.5999999999999939E-003     5.3641224440070800E-007
  -4.4999999999999901E-003     6.6347718075121520E-007
  -3.3999999999999864E-003     8.1186806255573174E-007
  -2.2999999999999826E-003     9.8141470061818836E-007
  -1.1999999999999927E-003     1.1723575426003663E-006
  -9.9999999999988987E-005     1.3876132243240136E-006
   1.0000000000000148E-003     1.6344134792234399E-006
   2.1000000000000185E-003     1.9240158053435152E-006
   3.2000000000000084E-003     2.2694382550980663E-006
   4.3000000000000121E-003     2.6825271106645232E-006
   5.4000000000000159E-003     3.1721037885290571E-006
   6.5000000000000058E-003     3.7441700442286674E-006
   7.6000000000000234E-003     4.4037865336576942E-006
   8.7000000000000133E-003     5.1572928896348458E-006
   9.8000000000000032E-003     6.0135594139865134E-006
   1.0900000000000021E-002     6.9838133640587330E-006
   1.2000000000000011E-002     8.0805493780644611E-006
   1.3100000000000001E-002     9.3164935606182553E-006
   1.4200000000000018E-002     1.0704338819778059E-005
   1.5300000000000008E-002     1.2257255548320245E-005
   1.6400000000000026E-002     1.3989524632052053E-005
   1.7500000000000016E-002     1.5916426491457969E-005
   1.8600000000000005E-002     1.8052964151138440E-005
   1.9700000000000023E-002     2.0411804143805057E-005
   2.0800000000000013E-002     2.3001543013378978E-005
   2.1900000000000003E-002     2.5826398996287026E-005
   2.3000000000000020E-002     2.8887576263514347E-005
   2.4100000000000010E-002     3.2185307645704597E-005
   2.5200000000000000E-002     3.5719902371056378E-005
   2.6300000000000018E-002     3.9490631024818867E-005
   2.7400000000000008E-002     4.3492796976352111E-005
   2.8500000000000025E-002     4.7714744141558185E-005
   2.9600000000000015E-002     5.2136572776362300E-005
   3.0700000000000005E-002     5.6730939832050353E-005
   3.1800000000000023E-002     6.1464670579880476E-005
   3.2900000000000013E-002     6.6299246100243181E-005
   3.4000000000000002E-002     7.1189322625286877E-005
   3.5100000000000020E-002     7.6080315920989960E-005
   3.6200000000000010E-002     8.0907113442663103E-005
   3.7300000000000028E-002     8.5595078417100012E-005
   3.8400000000000017E-002     9.0062676463276148E-005
   3.9500000000000007E-002     9.4223629275802523E-005
   4.0600000000000025E-002     9.7986994660459459E-005
   4.1700000000000015E-002     1.0125544213224202E-004
   4.2800000000000005E-002     1.0392367403255776E-004
   4.3900000000000022E-002     1.0587905126158148E-004
   4.5000000000000012E-002     1.0700483835535124E-004
   4.6100000000000002E-002     1.0718472913140431E-004
   4.7200000000000020E-002     1.0630665929056704E-004
   4.8300000000000010E-002     1.0426469088997692E-004
   4.9400000000000027E-002     1.0095931793330237E-004
   5.0500000000000017E-002     9.6297713753301650E-005
   5.1600000000000007E-002     9.0195127995684743E-005
   5.2700000000000025E-002     8.2577775174286216E-005
   5.3800000000000014E-002     7.3386778240092099E-005
   5.4900000000000004E-002     6.2582177633885294E-005
   5.6000000000000022E-002     5.0146340072387829E-005
   5.7100000000000012E-002     3.6086566979065537E-005
   5.8200000000000002E-002     2.0436924387468025E-005
   5.9300000000000019E-002     3.2594848562439438E-006
   6.0400000000000009E-002    -1.5354551578639075E-005
   6.1500000000000027E-002    -3.5283781471662223E-005
   6.2600000000000017E-002    -5.6376058637397364E-005
   6.3700000000000007E-002    -7.8449018474202603E-005
   6.4800000000000024E-002    -1.0129206202691421E-004
   6.5900000000000014E-002    -1.2466912448871881E-004
   6.7000000000000004E-002    -1.4832119632046670E-004
   6.8100000000000022E-002    -1.7196797125507146E-004
   6.9200000000000012E-002    -1.9530912686605006E-004
   7.0300000000000029E-002    -2.1802689298056066E-004
   7.1400000000000019E-002    -2.3979130492080003E-004
   7.2500000000000009E-002    -2.6026795967482030E-004
   7.3600000000000027E-002    -2.7912651421502233E-004
   7.4700000000000016E-002    -2.9604794690385461E-004
   7.5800000000000006E-002    -3.1073001446202397E-004
   7.6900000000000024E-002    -3.2289198134094477E-004
   7.8000000000000014E-002    -3.3228006213903427E-004
   7.9100000000000004E-002    -3.3867405727505684E-004
   8.0200000000000021E-002    -3.4189419238828123E-004
   8.1300000000000011E-002    -3.4180629882030189E-004
   8.2400000000000029E-002    -3.3832472399808466E-004
   8.3500000000000019E-002    -3.3141413587145507E-004
   8.4600000000000009E-002    -3.2109173480421305E-004
   8.5700000000000026E-002    -3.0743010574951768E-004
   8.6800000000000016E-002    -2.9055983759462833E-004
   8.7900000000000006E-002    -2.7067042537964880E-004
   8.9000000000000024E-002    -2.4800843675620854E-004
   9.0100000000000013E-002    -2.2287380124907941E-004
   9.1200000000000003E-002    -1.9561506633181125E-004
   9.2300000000000021E-002    -1.6662383859511465E-004
   9.3400000000000011E-002    -1.3632801710627973E-004
   9.4500000000000028E-002    -1.0518361523281783E-004
   9.5600000000000018E-002    -7.3665403760969639E-005
   9.6700000000000008E-002    -4.2257353925378993E-005
   9.7800000000000026E-002    -1.1443937182775699E-005
   9.8900000000000016E-002     1.8298034774488769E-005
  0.10000000000000001          4.6508015657309443E-005
  0.10110000000000002          7.2750823164824396E-005
  0.10220000000000001          9.6625393780414015E-005
  0.10330000000000003          1.1777263716794550E-004
  0.10440000000000002          1.3588251022156328E-004
  0.10550000000000001          1.5070087101776153E-004
  0.10660000000000003          1.6203720588237047E-004
  0.10770000000000002          1.6977170889731497E-004
  0.10880000000000001          1.7385935643687844E-004
  0.10990000000000003          1.7432983440812677E-004
  0.11100000000000002          1.7128443869296461E-004
  0.11210000000000001          1.6489271365571767E-004
  0.11320000000000002          1.5539102605544031E-004
  0.11430000000000001          1.4308209938462824E-004
  0.11540000000000003          1.2833220534957945E-004
  0.11650000000000002          1.1156367691000924E-004
  0.11760000000000001          9.3243652372621000E-005
  0.11870000000000003          7.3872848588507622E-005
  0.11980000000000002          5.3976913477526978E-005
  0.12090000000000001          3.4099775803042576E-005
  0.12200000000000003          1.4795491551922169E-005
  0.12310000000000001         -3.3837798127933638E-006
  0.12420000000000003         -1.9902468920918182E-005
  0.12530000000000002         -3.4254895581398159E-005
  0.12640000000000001         -4.5974215026944876E-005
  0.12750000000000003         -5.4638050642097369E-005
  0.12860000000000002         -5.9874932048842311E-005
  0.12970000000000001         -6.1374405049718916E-005
  0.13080000000000003         -5.8899262512568384E-005
  0.13190000000000002         -5.2295174100436270E-005
  0.13300000000000001         -4.1494244214845821E-005
  0.13410000000000000         -2.6513591365073808E-005
  0.13520000000000004         -7.4533113547659013E-006
  0.13630000000000003          1.5503092072322033E-005
  0.13740000000000002          4.2086780013050884E-005
  0.13850000000000001          7.1944261435419321E-005
  0.13960000000000000          1.0464341175975278E-004
  0.14070000000000005          1.3968331040814519E-004
  0.14180000000000004          1.7650421068537980E-004
  0.14290000000000003          2.1449496853165329E-004
  0.14400000000000002          2.5299980188719928E-004
  0.14510000000000001          2.9132812051102519E-004
  0.14620000000000000          3.2876947079785168E-004
  0.14730000000000004          3.6461075069382787E-004
  0.14840000000000003          3.9815131458453834E-004
  0.14950000000000002          4.2871412006206810E-004
  0.15060000000000001          4.5565507025457919E-004
  0.15170000000000000          4.7837471356615424E-004
  0.15280000000000005          4.9633363960310817E-004
  0.15390000000000004          5.0906807882711291E-004
  0.15500000000000003          5.1620102021843195E-004
  0.15610000000000002          5.1744747906923294E-004
  0.15720000000000001          5.1261705812066793E-004
  0.15830000000000000          5.0161808030679822E-004
  0.15940000000000004          4.8446404980495572E-004
  0.16050000000000003          4.6127822133712471E-004
  0.16160000000000002          4.3229191214777529E-004
  0.16270000000000001          3.9783690590411425E-004
  0.16380000000000000          3.5833579022437334E-004
  0.16490000000000005          3.1429485534317791E-004
  0.16600000000000004          2.6629990315996110E-004
  0.16710000000000003          2.1500985894817859E-004
  0.16820000000000002          1.6114383470267057E-004
  0.16930000000000001          1.0546216799411923E-004
  0.17040000000000000          4.8746936954557896E-005
  0.17150000000000004         -8.2123860920546576E-006
  0.17260000000000003         -6.4628293330315500E-005
  0.17370000000000002         -1.1972513311775401E-004
  0.17480000000000001         -1.7275365826208144E-004
  0.17590000000000000         -2.2300971613731235E-004
  0.17700000000000005         -2.6985115255229175E-004
  0.17810000000000004         -3.1270831823348999E-004
  0.17920000000000003         -3.5108864540234208E-004
  0.18030000000000002         -3.8457996561191976E-004
  0.18140000000000001         -4.1285681072622538E-004
  0.18250000000000000         -4.3568873661570251E-004
  0.18360000000000004         -4.5294553274288774E-004
  0.18470000000000003         -4.6459518489427865E-004
  0.18580000000000002         -4.7069639549590647E-004
  0.18690000000000001         -4.7139136586338282E-004
  0.18800000000000000         -4.6690207091160119E-004
  0.18910000000000005         -4.5752865844406188E-004
  0.19020000000000004         -4.4364485074765980E-004
  0.19130000000000003         -4.2568691424094141E-004
  0.19240000000000002         -4.0413829265162349E-004
  0.19350000000000001         -3.7951514241285622E-004
  0.19460000000000005         -3.5235629184171557E-004
  0.19570000000000004         -3.2321549952030182E-004
  0.19680000000000003         -2.9265190823934972E-004
  0.19790000000000002         -2.6121712289750576E-004
  0.19900000000000001         -2.2944154625292867E-004
  0.20010000000000000         -1.9782478921115398E-004
  0.20120000000000005         -1.6683130525052547E-004
  0.20230000000000004         -1.3688813487533480E-004
  0.20340000000000003         -1.0838003072421998E-004
  0.20450000000000002         -8.1641141150612384E-005
  0.20560000000000000         -5.6947086704894900E-005
  0.20670000000000005         -3.4512046113377437E-005
  0.20780000000000004         -1.4491676665784325E-005
  0.20890000000000003          3.0123026135697728E-006
