 -0.12000000000000000          0.0000000000000000
 -0.11889999999999999          0.0000000000000000
 -0.11780000000000000          0.0000000000000000
 -0.11670000000000000          0.0000000000000000
 -0.11559999999999999          0.0000000000000000
 -0.11449999999999999          0.0000000000000000
 -0.11340000000000000          0.0000000000000000
 -0.11230000000000000          0.0000000000000000
 -0.11119999999999999         -2.2869815658711821E-026
 -0.11009999999999999         -4.6254819734588766E-025
 -0.10900000000000000         -3.7974296696055797E-024
 -0.10790000000000000         -1.6491170355803271E-023
 -0.10679999999999999         -4.0895458094420067E-023
 -0.10569999999999999         -5.1217942852952193E-023
 -0.10460000000000000          1.0380512577859279E-023
 -0.10349999999999999          1.8382031764750224E-022
 -0.10239999999999999          4.7782372831357992E-022
 -0.10130000000000000          8.2419061515207382E-022
 -0.10020000000000000          2.0063156200471169E-022
  -9.9099999999999994E-002    -4.8018541378074335E-021
  -9.7999999999999990E-002    -1.5600623121575834E-020
  -9.6899999999999986E-002    -1.3512206140174680E-020
  -9.5799999999999996E-002     5.0316685803261761E-020
  -9.4699999999999993E-002     1.8351346978900718E-019
  -9.3599999999999989E-002     1.7682477103362976E-019
  -9.2499999999999999E-002    -4.1057642201588860E-019
  -9.1399999999999995E-002    -1.5838328075500637E-018
  -9.0299999999999991E-002    -1.6820560591949433E-018
  -8.9200000000000002E-002     2.4087931639414225E-018
  -8.8099999999999984E-002     1.0718813999795883E-017
  -8.6999999999999994E-002     1.3030655598886650E-017
  -8.5899999999999990E-002    -9.2950475684124607E-018
  -8.4799999999999986E-002    -5.8604972158328661E-017
  -8.3699999999999997E-002    -8.4010474714135220E-017
  -8.2599999999999993E-002     1.1819126341891471E-017
  -8.1499999999999989E-002     2.5996695818787598E-016
  -8.0399999999999999E-002     4.5264111918333805E-016
  -7.9299999999999995E-002     1.4389504234052421E-016
  -7.8199999999999992E-002    -9.1331602823402792E-016
  -7.7100000000000002E-002    -2.0361160098182531E-015
  -7.5999999999999984E-002    -1.4411783847543169E-015
  -7.4899999999999994E-002     2.3200876170335200E-015
  -7.3799999999999991E-002     7.5835198580856411E-015
  -7.2699999999999987E-002     8.2018361218893880E-015
  -7.1599999999999997E-002    -2.5859174725844942E-015
  -7.0499999999999993E-002    -2.2808371266972924E-014
  -6.9399999999999989E-002    -3.4617291265514119E-014
  -6.8300000000000000E-002    -1.2064637551251374E-014
  -6.7199999999999996E-002     5.1544055482133366E-014
  -6.6099999999999992E-002     1.1468999578170824E-013
  -6.5000000000000002E-002     9.4657117701794219E-014
  -6.3899999999999985E-002    -6.4722390587159534E-014
  -6.2799999999999995E-002    -2.9686425843597486E-013
  -6.1699999999999991E-002    -3.8479871958090051E-013
  -6.0599999999999994E-002    -9.5167471993173880E-014
  -5.9499999999999990E-002     5.5609461263247950E-013
  -5.8399999999999994E-002     1.1193455017044496E-012
  -5.7299999999999990E-002     8.8776978390131545E-013
  -5.6199999999999986E-002    -4.9897201171225647E-013
  -5.5099999999999996E-002    -2.3993877631273142E-012
  -5.3999999999999992E-002    -3.1567185931197228E-012
  -5.2899999999999989E-002    -1.1756480121014046E-012
  -5.1799999999999985E-002     3.3574852967288571E-012
  -5.0699999999999995E-002     7.5243925673484924E-012
  -4.9599999999999991E-002     6.9510907446668213E-012
  -4.8499999999999988E-002    -6.8755802917416786E-013
  -4.7399999999999998E-002    -1.2200616385238394E-011
  -4.6299999999999994E-002    -1.8906466670021160E-011
  -4.5199999999999990E-002    -1.1963122333036313E-011
  -4.4099999999999986E-002     9.4298397215752949E-012
  -4.2999999999999997E-002     3.3318844211427390E-011
  -4.1899999999999993E-002     3.9800523987665315E-011
  -4.0799999999999989E-002     1.5206514866750176E-011
  -3.9699999999999985E-002    -3.3137628058232949E-011
  -3.8599999999999995E-002    -7.4533698657397451E-011
  -3.7499999999999992E-002    -7.1903719089938534E-011
  -3.6399999999999988E-002    -1.0673227059110335E-011
  -3.5299999999999984E-002     8.1019892184119868E-011
  -3.4199999999999994E-002     1.4095054290397258E-010
  -3.3099999999999991E-002     1.1240552932889614E-010
  -3.1999999999999987E-002    -8.6570802609875486E-012
  -3.0899999999999997E-002    -1.5561368860161906E-010
  -2.9799999999999993E-002    -2.2513807484969561E-010
  -2.8699999999999989E-002    -1.4897275080194561E-010
  -2.7599999999999986E-002     4.5440980839250855E-011
  -2.6499999999999996E-002     2.3709811891592381E-010
  -2.5399999999999992E-002     2.8819946429337051E-010
  -2.4299999999999988E-002     1.4847430229725234E-010
  -2.3199999999999985E-002    -9.2926326356046474E-011
  -2.2099999999999995E-002    -2.6086910409617303E-010
  -2.0999999999999991E-002    -2.2799130638961884E-010
  -1.9899999999999987E-002    -2.9757946107267230E-011
  -1.8799999999999983E-002     1.4375443890823902E-010
  -1.7699999999999994E-002     9.9789537744143786E-011
  -1.6599999999999990E-002    -1.6410961478641184E-010
  -1.5499999999999986E-002    -3.9374176141748762E-010
  -1.4399999999999996E-002    -2.4092855488433429E-010
  -1.3299999999999992E-002     4.1721007204564842E-010
  -1.2199999999999989E-002     1.2396119686286511E-009
  -1.1099999999999985E-002     1.5112470164169167E-009
  -9.9999999999999950E-003     6.1178673238515557E-010
  -8.8999999999999913E-003    -1.3909960960845069E-009
  -7.7999999999999875E-003    -3.4702676288134171E-009
  -6.6999999999999837E-003    -4.0338461460009967E-009
  -5.5999999999999939E-003    -1.9185153465883786E-009
  -4.4999999999999901E-003     2.5595878749840040E-009
  -3.3999999999999864E-003     7.2576682441649609E-009
  -2.2999999999999826E-003     9.0430258836704525E-009
  -1.1999999999999927E-003     5.5987485758635103E-009
  -9.9999999999988987E-005    -2.7460600460216256E-009
   1.0000000000000148E-003    -1.2378104763399733E-008
   2.1000000000000185E-003    -1.7702010524089928E-008
   3.2000000000000084E-003    -1.4067858877808703E-008
   4.3000000000000121E-003    -9.0659074691856745E-010
   5.4000000000000159E-003     1.6805659086571723E-008
   6.5000000000000058E-003     3.0044471799328676E-008
   7.6000000000000234E-003     2.9998428630051421E-008
   8.7000000000000133E-003     1.3221254313577901E-008
   9.8000000000000032E-003    -1.5121589314048833E-008
   1.0900000000000021E-002    -4.2200500871558688E-008
   1.2000000000000011E-002    -5.3025527080308166E-008
   1.3100000000000001E-002    -3.8338463070886064E-008
   1.4200000000000018E-002    -9.0841412170306057E-010
   1.5300000000000008E-002     4.3674269534221821E-008
   1.6400000000000026E-002     7.3269511347007210E-008
   1.7500000000000016E-002     7.0335126167719864E-008
   1.8600000000000005E-002     3.2461940691064228E-008
   1.9700000000000023E-002    -2.3979586316613677E-008
   2.0800000000000013E-002    -7.0559913467604929E-008
   2.1900000000000003E-002    -8.1806682317164814E-008
   2.3000000000000020E-002    -5.0895490488755968E-008
   2.4100000000000010E-002     3.6625456001360135E-009
   2.5200000000000000E-002     4.6390681518460042E-008
   2.6300000000000018E-002     4.5933241210605047E-008
   2.7400000000000008E-002    -2.3465613896433979E-009
   2.8500000000000025E-002    -6.7049995777779259E-008
   2.9600000000000015E-002    -9.4095270242178231E-008
   3.0700000000000005E-002    -3.9149558261897255E-008
   3.1800000000000023E-002     9.8080469967953832E-008
   3.2900000000000013E-002     2.6015226239906042E-007
   3.4000000000000002E-002     3.5261231801086979E-007
   3.5100000000000020E-002     2.9325974537641741E-007
   3.6200000000000010E-002     6.4207021921447449E-008
   3.7300000000000028E-002    -2.6569540523269097E-007
   3.8400000000000017E-002    -5.6702674555708654E-007
   3.9500000000000007E-002    -7.1523362521475065E-007
   4.0600000000000025E-002    -6.5926582237807452E-007
   4.1700000000000015E-002    -4.5018791183792928E-007
   4.2800000000000005E-002    -2.0675420842053427E-007
   4.3900000000000022E-002    -3.3083985329085408E-008
   4.5000000000000012E-002     6.3120204174538230E-008
   4.6100000000000002E-002     1.9753319691062643E-007
   4.7200000000000020E-002     5.5598809467483079E-007
   4.8300000000000010E-002     1.2844899401898147E-006
   4.9400000000000027E-002     2.3848076580179622E-006
   5.0500000000000017E-002     3.6808146433031652E-006
   5.1600000000000007E-002     4.8824213081388734E-006
   5.2700000000000025E-002     5.7160932556143962E-006
   5.3800000000000014E-002     6.0498964558064472E-006
   5.4900000000000004E-002     5.9444678299769294E-006
   5.6000000000000022E-002     5.6090461839630734E-006
   5.7100000000000012E-002     5.3034277698316146E-006
   5.8200000000000002E-002     5.2601635616156273E-006
   5.9300000000000019E-002     5.6813901210261974E-006
   6.0400000000000009E-002     6.8020613070984837E-006
   6.1500000000000027E-002     8.9491140897735022E-006
   6.2600000000000017E-002     1.2512625289673451E-005
   6.3700000000000007E-002     1.7798754925024696E-005
   6.4800000000000024E-002     2.4826606022543274E-005
   6.5900000000000014E-002     3.3201846235897392E-005
   6.7000000000000004E-002     4.2190411477349699E-005
   6.8100000000000022E-002     5.1018636440858245E-005
   6.9200000000000012E-002     5.9287176554789767E-005
   7.0300000000000029E-002     6.7292632593307644E-005
   7.1400000000000019E-002     7.6067757618147880E-005
   7.2500000000000009E-002     8.7083310063462704E-005
   7.3600000000000027E-002     1.0173577175009996E-004
   7.4700000000000016E-002     1.2087288632756099E-004
   7.5800000000000006E-002     1.4460021338891238E-004
   7.6900000000000024E-002     1.7246716015506536E-004
   7.8000000000000014E-002     2.0392562146298587E-004
   7.9100000000000004E-002     2.3880440858192742E-004
   8.0200000000000021E-002     2.7753537870012224E-004
   8.1300000000000011E-002     3.2100986572913826E-004
   8.2400000000000029E-002     3.7015930865891278E-004
   8.3500000000000019E-002     4.2551601654849946E-004
   8.4600000000000009E-002     4.8701933701522648E-004
   8.5700000000000026E-002     5.5420229909941554E-004
   8.6800000000000016E-002     6.2665587756782770E-004
   8.7900000000000006E-002     7.0451083593070507E-004
   8.9000000000000024E-002     7.8864285023882985E-004
   9.0100000000000013E-002     8.8044063886627555E-004
   9.1200000000000003E-002     9.8122726194560528E-004
   9.2300000000000021E-002     1.0915861930698156E-003
   9.3400000000000011E-002     1.2109326198697090E-003
   9.4500000000000028E-002     1.3375011039897799E-003
   9.5600000000000018E-002     1.4687704388052225E-003
   9.6700000000000008E-002     1.6020692419260740E-003
   9.7800000000000026E-002     1.7351013375446200E-003
   9.8900000000000016E-002     1.8661629874259233E-003
  0.10000000000000001          1.9940074998885393E-003
  0.10110000000000002          2.1174680441617966E-003
  0.10220000000000001          2.2350191138684750E-003
  0.10330000000000003          2.3444655817002058E-003
  0.10440000000000002          2.4427776224911213E-003
  0.10550000000000001          2.5260597467422485E-003
  0.10660000000000003          2.5895514991134405E-003
  0.10770000000000002          2.6277466677129269E-003
  0.10880000000000001          2.6345849037170410E-003
  0.10990000000000003          2.6038556825369596E-003
  0.11100000000000002          2.5297731626778841E-003
  0.11210000000000001          2.4075137916952372E-003
  0.11320000000000002          2.2335383109748363E-003
  0.11430000000000001          2.0054385531693697E-003
  0.11540000000000003          1.7213209066540003E-003
  0.11650000000000002          1.3789476361125708E-003
  0.11760000000000001          9.7521202405914664E-004
  0.11870000000000003          5.0616642693057656E-004
  0.11980000000000002         -3.2112729968503118E-005
  0.12090000000000001         -6.4223445951938629E-004
  0.12200000000000003         -1.3243226567283273E-003
  0.12310000000000001         -2.0751911215484142E-003
  0.12420000000000003         -2.8886888176202774E-003
  0.12530000000000002         -3.7564181257039309E-003
  0.12640000000000001         -4.6688891015946865E-003
  0.12750000000000003         -5.6161424145102501E-003
  0.12860000000000002         -6.5879249013960361E-003
  0.12970000000000001         -7.5730062089860439E-003
  0.13080000000000003         -8.5585545748472214E-003
  0.13190000000000002         -9.5295440405607224E-003
  0.13300000000000001         -1.0468789376318455E-002
  0.13410000000000000         -1.1357562616467476E-002
  0.13520000000000004         -1.2176270596683025E-002
  0.13630000000000003         -1.2905216775834560E-002
  0.13740000000000002         -1.3524916023015976E-002
  0.13850000000000001         -1.4016139321029186E-002
  0.13960000000000000         -1.4360248111188412E-002
  0.14070000000000005         -1.4539353549480438E-002
  0.14180000000000004         -1.4536993578076363E-002
  0.14290000000000003         -1.4338940382003784E-002
  0.14400000000000002         -1.3933910988271236E-002
  0.14510000000000001         -1.3314002193510532E-002
  0.14620000000000000         -1.2474942952394485E-002
  0.14730000000000004         -1.1416168883442879E-002
  0.14840000000000003         -1.0140879079699516E-002
  0.14950000000000002         -8.6561031639575958E-003
  0.15060000000000001         -6.9728721864521503E-003
  0.15170000000000000         -5.1063648425042629E-003
  0.15280000000000005         -3.0758893117308617E-003
  0.15390000000000004         -9.0477225603535771E-004
  0.15500000000000003          1.3798160944133997E-003
  0.15610000000000002          3.7472799886018038E-003
  0.15720000000000001          6.1639384366571903E-003
  0.15830000000000000          8.5936794057488441E-003
  0.15940000000000004          1.0998670943081379E-002
  0.16050000000000003          1.3340196572244167E-002
  0.16160000000000002          1.5579442493617535E-002
  0.16270000000000001          1.7678452655673027E-002
  0.16380000000000000          1.9600767642259598E-002
  0.16490000000000005          2.1311828866600990E-002
  0.16600000000000004          2.2779682651162148E-002
  0.16710000000000003          2.3975804448127747E-002
  0.16820000000000002          2.4875760078430176E-002
  0.16930000000000001          2.5460248813033104E-002
  0.17040000000000000          2.5715688243508339E-002
  0.17150000000000004          2.5634599849581718E-002
  0.17260000000000003          2.5215942412614822E-002
  0.17370000000000002          2.4464741349220276E-002
  0.17480000000000001          2.3391768336296082E-002
  0.17590000000000000          2.2013146430253983E-002
  0.17700000000000005          2.0349988713860512E-002
  0.17810000000000004          1.8428022041916847E-002
  0.17920000000000003          1.6277335584163666E-002
  0.18030000000000002          1.3932082802057266E-002
  0.18140000000000001          1.1430039070546627E-002
  0.18250000000000000          8.8119078427553177E-003
  0.18360000000000004          6.1203930526971817E-003
  0.18470000000000003          3.3990857191383839E-003
  0.18580000000000002          6.9135060766711831E-004
  0.18690000000000001         -1.9610810559242964E-003
  0.18800000000000000         -4.5190611854195595E-003
  0.18910000000000005         -6.9466643035411835E-003
  0.19020000000000004         -9.2115951701998711E-003
  0.19130000000000003         -1.1285193264484406E-002
  0.19240000000000002         -1.3142605312168598E-002
  0.19350000000000001         -1.4762918464839458E-002
  0.19460000000000005         -1.6129642724990845E-002
  0.19570000000000004         -1.7231114208698273E-002
  0.19680000000000003         -1.8060844391584396E-002
  0.19790000000000002         -1.8617771565914154E-002
  0.19900000000000001         -1.8905848264694214E-002
  0.20010000000000000         -1.8933923915028572E-002
  0.20120000000000005         -1.8715178593993187E-002
  0.20230000000000004         -1.8266681581735611E-002
  0.20340000000000003         -1.7608705908060074E-002
  0.20450000000000002         -1.6764089465141296E-002
  0.20560000000000000         -1.5757683664560318E-002
  0.20670000000000005         -1.4615443535149097E-002
  0.20780000000000004         -1.3363839127123356E-002
  0.20890000000000003         -1.2029119767248631E-002
