 -0.12000000000000000          0.0000000000000000
 -0.11889999999999999          0.0000000000000000
 -0.11780000000000000          0.0000000000000000
 -0.11670000000000000          0.0000000000000000
 -0.11559999999999999          0.0000000000000000
 -0.11449999999999999          0.0000000000000000
 -0.11340000000000000          0.0000000000000000
 -0.11230000000000000          0.0000000000000000
 -0.11119999999999999          0.0000000000000000
 -0.11009999999999999          0.0000000000000000
 -0.10900000000000000          0.0000000000000000
 -0.10790000000000000         -3.9755689142550092E-031
 -0.10679999999999999         -6.2044468865779728E-030
 -0.10569999999999999         -2.4612733183279874E-029
 -0.10460000000000000          4.3103163777533622E-029
 -0.10349999999999999          6.2483860002478677E-028
 -0.10239999999999999          1.5574692126293335E-027
 -0.10130000000000000         -2.5735897549915420E-027
 -0.10020000000000000         -2.4693333893120277E-026
  -9.9099999999999994E-002    -5.2101618873220175E-026
  -9.7999999999999990E-002     4.6098803385356263E-026
  -9.6899999999999986E-002     5.1042589131698104E-025
  -9.5799999999999996E-002     1.1162592829169464E-024
  -9.4699999999999993E-002    -4.5286144148998447E-026
  -9.3599999999999989E-002    -6.2735275781577325E-024
  -9.2499999999999999E-002    -1.5796105012213038E-023
  -9.1399999999999995E-002    -9.4031131274295402E-024
  -9.0299999999999991E-002     4.8007922679201336E-023
  -8.9200000000000002E-002     1.5449945589481730E-022
  -8.8099999999999984E-002     1.6882814867240898E-022
  -8.6999999999999994E-002    -2.0278832034136042E-022
  -8.5899999999999990E-002    -1.0751746512442889E-021
  -8.4799999999999986E-002    -1.6834904630785312E-021
  -8.3699999999999997E-002    -8.1712118450739417E-023
  -8.2599999999999993E-002     5.2581161392578864E-021
  -8.1499999999999989E-002     1.1462294254729156E-020
  -8.0399999999999999E-002     8.3235751918551653E-021
  -7.9299999999999995E-002    -1.5991272090551073E-020
  -7.8199999999999992E-002    -5.6226813731770717E-020
  -7.7100000000000002E-002    -7.0486283043539724E-020
  -7.5999999999999984E-002     7.3433863608190012E-021
  -7.4899999999999994E-002     1.9568750045425637E-019
  -7.3799999999999991E-002     3.6562965057765331E-019
  -7.2699999999999987E-002     2.3402250093408167E-019
  -7.1599999999999997E-002    -4.1618773094811277E-019
  -7.0499999999999993E-002    -1.3312487614112042E-018
  -6.9399999999999989E-002    -1.5685582971538126E-018
  -6.8300000000000000E-002     7.5871536196712158E-022
  -6.7199999999999996E-002     3.3616545647899915E-018
  -6.6099999999999992E-002     6.1309233203098259E-018
  -6.5000000000000002E-002     4.2000624997972014E-018
  -6.3899999999999985E-002    -4.7351631565159174E-018
  -6.2799999999999995E-002    -1.6558566022174287E-017
  -6.1699999999999991E-002    -1.9905079045851495E-017
  -6.0599999999999994E-002    -3.5216457709184667E-018
  -5.9499999999999990E-002     3.0260973342154026E-017
  -5.8399999999999994E-002     5.7287842542793125E-017
  -5.7299999999999990E-002     4.2580342949751228E-017
  -5.6199999999999986E-002    -2.7798837161665437E-017
  -5.5099999999999996E-002    -1.1602211295703117E-016
  -5.3999999999999992E-002    -1.3936700272784973E-016
  -5.2899999999999989E-002    -3.2526498617206111E-017
  -5.1799999999999985E-002     1.6907629954099009E-016
  -5.0699999999999995E-002     3.0618112872962981E-016
  -4.9599999999999991E-002     1.9681214193592594E-016
  -4.8499999999999988E-002    -1.7624213210031247E-016
  -4.7399999999999998E-002    -5.5082563147858992E-016
  -4.6299999999999994E-002    -5.1590823347524828E-016
  -4.5199999999999990E-002     1.1566878110401792E-016
  -4.4099999999999986E-002     9.6929632983894622E-016
  -4.2999999999999997E-002     1.2030907640500524E-015
  -4.1899999999999993E-002     1.7651629284253705E-016
  -4.0799999999999989E-002    -1.7211152564044563E-015
  -3.9699999999999985E-002    -2.9012672035725598E-015
  -3.8599999999999995E-002    -1.6133439722726211E-015
  -3.7499999999999992E-002     2.2712762846568068E-015
  -3.6399999999999988E-002     6.2231002415005093E-015
  -3.5299999999999984E-002     6.2351992601190898E-015
  -3.4199999999999994E-002     1.1459269191898034E-016
  -3.3099999999999991E-002    -9.4344935238754174E-015
  -3.1999999999999987E-002    -1.5113642759176371E-014
  -3.0899999999999997E-002    -9.9285195611308573E-015
  -2.9799999999999993E-002     6.1231829644929712E-015
  -2.8699999999999989E-002     2.3264088545122893E-014
  -2.7599999999999986E-002     2.7187963591080756E-014
  -2.6499999999999996E-002     1.0338399651340160E-014
  -2.5399999999999992E-002    -1.9219038659796725E-014
  -2.4299999999999988E-002    -4.0330047380030334E-014
  -2.3199999999999985E-002    -3.3866013698881023E-014
  -2.2099999999999995E-002    -1.6595090678429934E-016
  -2.0999999999999991E-002     3.6669462361331104E-014
  -1.9899999999999987E-002     4.5221740577455066E-014
  -1.8799999999999983E-002     1.4140749186289554E-014
  -1.7699999999999994E-002    -3.2407311155360080E-014
  -1.6599999999999990E-002    -4.9183544064725082E-014
  -1.5499999999999986E-002    -8.7822425791058215E-015
  -1.4399999999999996E-002     6.5274676397560072E-014
  -1.3299999999999992E-002     1.0474332176341888E-013
  -1.2199999999999989E-002     4.8241745071331971E-014
  -1.1099999999999985E-002    -9.6463832202024064E-014
  -9.9999999999999950E-003    -2.3404333484265682E-013
  -8.8999999999999913E-003    -2.3698997950703793E-013
  -7.7999999999999875E-003    -4.6693721209457167E-014
  -6.6999999999999837E-003     2.5543879077910558E-013
  -5.5999999999999939E-003     4.7498246655286458E-013
  -4.4999999999999901E-003     4.2986613075536584E-013
  -3.3999999999999864E-003     9.2327038484114887E-014
  -2.2999999999999826E-003    -3.6319609971434408E-013
  -1.1999999999999927E-003    -6.5885377665761413E-013
  -9.9999999999988987E-005    -6.0125651202627695E-013
   1.0000000000000148E-003    -2.2246978835949865E-013
   2.1000000000000185E-003     2.3904001607982783E-013
   3.2000000000000084E-003     5.1303801701721441E-013
   4.3000000000000121E-003     4.9712388068903768E-013
   5.4000000000000159E-003     3.1992724441876064E-013
   6.5000000000000058E-003     2.0741492291059815E-013
   7.6000000000000234E-003     2.5473817933524545E-013
   8.7000000000000133E-003     3.0103087448989096E-013
   9.8000000000000032E-003     4.2411098911216902E-014
   1.0900000000000021E-002    -6.7043072482508848E-013
   1.2000000000000011E-002    -1.5793497152444269E-012
   1.3100000000000001E-002    -2.0533700607894279E-012
   1.4200000000000018E-002    -1.4663850645899035E-012
   1.5300000000000008E-002     2.9694131810538427E-013
   1.6400000000000026E-002     2.5740204238899889E-012
   1.7500000000000016E-002     4.1571694003872395E-012
   1.8600000000000005E-002     3.9633439759267919E-012
   1.9700000000000023E-002     1.7466855869660569E-012
   2.0800000000000013E-002    -1.6308475837140124E-012
   2.1900000000000003E-002    -4.6056938644845058E-012
   2.3000000000000020E-002    -5.7820098535443787E-012
   2.4100000000000010E-002    -4.7109993857319399E-012
   2.5200000000000000E-002    -2.0601131477809842E-012
   2.6300000000000018E-002     9.3107151762777951E-013
   2.7400000000000008E-002     3.2915701414504284E-012
   2.8500000000000025E-002     4.8096019354681996E-012
   2.9600000000000015E-002     5.7957466950697700E-012
   3.0700000000000005E-002     6.3433199665174911E-012
   3.1800000000000023E-002     5.7847576555303259E-012
   3.2900000000000013E-002     2.9698450729892523E-012
   3.4000000000000002E-002    -2.6518429379479569E-012
   3.5100000000000020E-002    -9.9207551895741375E-012
   3.6200000000000010E-002    -1.5849918599819546E-011
   3.7300000000000028E-002    -1.6943932368285175E-011
   3.8400000000000017E-002    -1.1327550876460979E-011
   3.9500000000000007E-002    -2.8248578606490660E-013
   4.0600000000000025E-002     1.2014824031514326E-011
   4.1700000000000015E-002     2.0609769099677600E-011
   4.2800000000000005E-002     2.2462007948087503E-011
   4.3900000000000022E-002     1.7929374998559844E-011
   4.5000000000000012E-002     1.0043403608772650E-011
   4.6100000000000002E-002     2.1472071082967448E-012
   4.7200000000000020E-002    -4.3314431902308215E-012
   4.8300000000000010E-002    -1.0308633287270386E-011
   4.9400000000000027E-002    -1.7406340258041553E-011
   5.0500000000000017E-002    -2.5626967561920289E-011
   5.1600000000000007E-002    -3.2332792693212653E-011
   5.2700000000000025E-002    -3.3562107953910569E-011
   5.3800000000000014E-002    -2.6848290951564380E-011
   5.4900000000000004E-002    -1.3356231051697698E-011
   5.6000000000000022E-002     2.5808623901196759E-012
   5.7100000000000012E-002     1.6630766208614034E-011
   5.8200000000000002E-002     2.8359623677198798E-011
   5.9300000000000019E-002     4.3082280798412143E-011
   6.0400000000000009E-002     7.0080143077522195E-011
   6.1500000000000027E-002     1.1805066646441986E-010
   6.2600000000000017E-002     1.9066632994668709E-010
   6.3700000000000007E-002     2.8522365025374086E-010
   6.4800000000000024E-002     3.9537981222359520E-010
   6.5900000000000014E-002     5.1622539576356985E-010
   6.7000000000000004E-002     6.4836580548899292E-010
   6.8100000000000022E-002     7.9846396161542543E-010
   6.9200000000000012E-002     9.7634489382159018E-010
   7.0300000000000029E-002     1.1913865449741934E-009
   7.1400000000000019E-002     1.4515192381381326E-009
   7.2500000000000009E-002     1.7661445639305384E-009
   7.3600000000000027E-002     2.1510446757133650E-009
   7.4700000000000016E-002     2.6313555778756381E-009
   7.5800000000000006E-002     3.2396563209857732E-009
   7.6900000000000024E-002     4.0097174469622132E-009
   7.8000000000000014E-002     4.9700203952340871E-009
   7.9100000000000004E-002     6.1419824781694388E-009
   8.0200000000000021E-002     7.5450081737926666E-009
   8.1300000000000011E-002     9.2058751732793098E-009
   8.2400000000000029E-002     1.1166873647994180E-008
   8.3500000000000019E-002     1.3487971628478590E-008
   8.4600000000000009E-002     1.6242616140971222E-008
   8.5700000000000026E-002     1.9511347204570484E-008
   8.6800000000000016E-002     2.3378833091669549E-008
   8.7900000000000006E-002     2.7937110402831422E-008
   8.9000000000000024E-002     3.3292788970129550E-008
   9.0100000000000013E-002     3.9572768173457007E-008
   9.1200000000000003E-002     4.6924078844767791E-008
   9.2300000000000021E-002     5.5507864971104937E-008
   9.3400000000000011E-002     6.5492422152146901E-008
   9.4500000000000028E-002     7.7050998470440391E-008
   9.5600000000000018E-002     9.0367059613072342E-008
   9.6700000000000008E-002     1.0564414054670124E-007
   9.7800000000000026E-002     1.2311396346831316E-007
   9.8900000000000016E-002     1.4303732598364149E-007
  0.10000000000000001          1.6569696015267255E-007
  0.10110000000000002          1.9138676066177140E-007
  0.10220000000000001          2.2040411806756310E-007
  0.10330000000000003          2.5304916562163271E-007
  0.10440000000000002          2.8962958253941906E-007
  0.10550000000000001          3.3046566727534810E-007
  0.10660000000000003          3.7588890222650662E-007
  0.10770000000000002          4.2623184981493978E-007
  0.10880000000000001          4.8181283318626811E-007
  0.10990000000000003          5.4292189588522888E-007
  0.11100000000000002          6.0981329852438648E-007
  0.11210000000000001          6.8270480824139668E-007
  0.11320000000000002          7.6177860819370835E-007
  0.11430000000000001          8.4717635218112264E-007
  0.11540000000000003          9.3898472641740227E-007
  0.11650000000000002          1.0372142469350365E-006
  0.11760000000000001          1.1417786254241946E-006
  0.11870000000000003          1.2524817520898068E-006
  0.11980000000000002          1.3690125797438668E-006
  0.12090000000000001          1.4909438732502167E-006
  0.12200000000000003          1.6177280031115515E-006
  0.12310000000000001          1.7486842125435942E-006
  0.12420000000000003          1.8829819055099506E-006
  0.12530000000000002          2.0196257537463680E-006
  0.12640000000000001          2.1574501261056866E-006
  0.12750000000000003          2.2951239770918619E-006
  0.12860000000000002          2.4311611923621967E-006
  0.12970000000000001          2.5639287741796579E-006
  0.13080000000000003          2.6916491151496302E-006
  0.13190000000000002          2.8124031814513728E-006
  0.13300000000000001          2.9241364245535806E-006
  0.13410000000000000          3.0246753794926917E-006
  0.13520000000000004          3.1117579055717215E-006
  0.13630000000000003          3.1830670650379034E-006
  0.13740000000000002          3.2362681849917863E-006
  0.13850000000000001          3.2690441003069282E-006
  0.13960000000000000          3.2791272133181337E-006
  0.14070000000000005          3.2643338272464462E-006
  0.14180000000000004          3.2226034818449989E-006
  0.14290000000000003          3.1520457923761569E-006
  0.14400000000000002          3.0509918360621668E-006
  0.14510000000000001          2.9180459932831582E-006
  0.14620000000000000          2.7521314223122317E-006
  0.14730000000000004          2.5525282580929343E-006
  0.14840000000000003          2.3189040803117678E-006
  0.14950000000000002          2.0513425624812953E-006
  0.15060000000000001          1.7503730305179488E-006
  0.15170000000000000          1.4170032045512926E-006
  0.15280000000000005          1.0527450058361865E-006
  0.15390000000000004          6.5962871076408192E-007
  0.15500000000000003          2.4020130240387516E-007
  0.15610000000000002         -2.0249083831913595E-007
  0.15720000000000001         -6.6492771111370530E-007
  0.15830000000000000         -1.1431461643951479E-006
  0.15940000000000004         -1.6327745697708451E-006
  0.16050000000000003         -2.1290761651471257E-006
  0.16160000000000002         -2.6270035959896632E-006
  0.16270000000000001         -3.1212664453050820E-006
  0.16380000000000000         -3.6064093364984728E-006
  0.16490000000000005         -4.0768936742097139E-006
  0.16600000000000004         -4.5271781345945783E-006
  0.16710000000000003         -4.9517993829795159E-006
  0.16820000000000002         -5.3454577937372960E-006
  0.16930000000000001         -5.7031002143048681E-006
  0.17040000000000000         -6.0200081861694343E-006
  0.17150000000000004         -6.2918843468651175E-006
  0.17260000000000003         -6.5149320107593667E-006
  0.17370000000000002         -6.6859338403446600E-006
  0.17480000000000001         -6.8023105086467694E-006
  0.17590000000000000         -6.8621739046648145E-006
  0.17700000000000005         -6.8643607846752275E-006
  0.17810000000000004         -6.8084509621257894E-006
  0.17920000000000003         -6.6947745835932437E-006
  0.18030000000000002         -6.5244134930253495E-006
  0.18140000000000001         -6.2991894083097577E-006
  0.18250000000000000         -6.0216466408746783E-006
  0.18360000000000004         -5.6950143516587559E-006
  0.18470000000000003         -5.3231551646604203E-006
  0.18580000000000002         -4.9104960453405511E-006
  0.18690000000000001         -4.4619496293307748E-006
  0.18800000000000000         -3.9828382796258666E-006
  0.18910000000000005         -3.4788090488291346E-006
  0.19020000000000004         -2.9557452307926724E-006
  0.19130000000000003         -2.4196729100367520E-006
  0.19240000000000002         -1.8766626226351946E-006
  0.19350000000000001         -1.3327306760402280E-006
  0.19460000000000005         -7.9374729011760792E-007
  0.19570000000000004         -2.6535366259849980E-007
  0.19680000000000003          2.4711442847547005E-007
  0.19790000000000002          7.3869586003638688E-007
  0.19900000000000001          1.2048668622810510E-006
  0.20010000000000000          1.6415957588833407E-006
  0.20120000000000005          2.0453876459214371E-006
  0.20230000000000004          2.4133194074238418E-006
  0.20340000000000003          2.7430619411461521E-006
  0.20450000000000002          3.0328894808917539E-006
  0.20560000000000000          3.2816758448461769E-006
  0.20670000000000005          3.4888751088146819E-006
  0.20780000000000004          3.6544947761285584E-006
  0.20890000000000003          3.7790659916936420E-006
