 -0.12000000000000000          0.0000000000000000
 -0.11889999999999999          0.0000000000000000
 -0.11780000000000000          0.0000000000000000
 -0.11670000000000000          0.0000000000000000
 -0.11559999999999999          0.0000000000000000
 -0.11449999999999999          0.0000000000000000
 -0.11340000000000000          0.0000000000000000
 -0.11230000000000000          0.0000000000000000
 -0.11119999999999999          0.0000000000000000
 -0.11009999999999999          1.4341699660548714E-038
 -0.10900000000000000          1.9074846507880138E-025
 -0.10790000000000000          7.3833909740557521E-025
 -0.10679999999999999         -1.4356376076140544E-024
 -0.10569999999999999         -1.0972072270926398E-023
 -0.10460000000000000         -4.1210858883532353E-024
 -0.10349999999999999          5.8849856566581471E-023
 -0.10239999999999999         -3.9678722189828916E-023
 -0.10130000000000000         -8.8250164816595643E-022
 -0.10020000000000000         -1.3702942559137895E-021
  -9.9099999999999994E-002     4.7631785974108073E-021
  -9.7999999999999990E-002     2.0530374003142354E-020
  -9.6899999999999986E-002     1.1781577085427604E-020
  -9.5799999999999996E-002    -9.8408882606565753E-020
  -9.4699999999999993E-002    -2.5792538399857354E-019
  -9.3599999999999989E-002     2.7894659599293871E-020
  -9.2499999999999999E-002     1.4012427168937789E-018
  -9.1399999999999995E-002     2.7003203563303838E-018
  -9.0299999999999991E-002    -1.1833321174806863E-018
  -8.9200000000000002E-002    -1.4935411012855743E-017
  -8.8099999999999984E-002    -2.6334868098141748E-017
  -8.6999999999999994E-002     6.7949400755064676E-018
  -8.5899999999999990E-002     1.1936742987753225E-016
  -8.4799999999999986E-002     2.2480347064351505E-016
  -8.3699999999999997E-002     3.4227850318460635E-017
  -8.2599999999999993E-002    -7.1364304575361296E-016
  -8.1499999999999989E-002    -1.5777367188729614E-015
  -8.0399999999999999E-002    -9.0223990777779269E-016
  -7.9299999999999995E-002     3.0932548443644083E-015
  -7.8199999999999992E-002     8.8756042446166792E-015
  -7.7100000000000002E-002     8.5225939464843558E-015
  -7.5999999999999984E-002    -8.3514128230141697E-015
  -7.4899999999999994E-002    -3.9488184721881979E-014
  -7.3799999999999991E-002    -5.3603395864802898E-014
  -7.2699999999999987E-002     1.1039069383063879E-016
  -7.1599999999999997E-002     1.3513246511359118E-013
  -7.0499999999999993E-002     2.5228885820734043E-013
  -6.9399999999999989E-002     1.4408278444036011E-013
  -6.8300000000000000E-002    -3.2470613654455614E-013
  -6.7199999999999996E-002    -9.2038280209000951E-013
  -6.6099999999999992E-002    -9.3822150569443581E-013
  -6.5000000000000002E-002     3.2789111595167492E-013
  -6.3899999999999985E-002     2.5868294051960249E-012
  -6.2799999999999995E-002     3.8727805684584412E-012
  -6.1699999999999991E-002     1.4673489203204248E-012
  -6.0599999999999994E-002    -5.2359041581575020E-012
  -5.9499999999999990E-002    -1.1891365496451265E-011
  -5.8399999999999994E-002    -1.0155732158010125E-011
  -5.7299999999999990E-002     5.3797209742541002E-012
  -5.6199999999999986E-002     2.7923632156533147E-011
  -5.5099999999999996E-002     3.6572574829690817E-011
  -5.3999999999999992E-002     1.0098775982119340E-011
  -5.2899999999999989E-002    -4.8078027670152014E-011
  -5.1799999999999985E-002    -9.5359525831275413E-011
  -5.0699999999999995E-002    -7.0862649081943470E-011
  -4.9599999999999991E-002     4.7674069553205002E-011
  -4.8499999999999988E-002     1.9245810500833295E-010
  -4.7399999999999998E-002     2.2263300925026399E-010
  -4.6299999999999994E-002     3.4545366567295424E-011
  -4.5199999999999990E-002    -3.0096364289633858E-010
  -4.4099999999999986E-002    -5.1185017335693103E-010
  -4.2999999999999997E-002    -3.0397404038310869E-010
  -4.1899999999999993E-002     3.3336811089416933E-010
  -4.0799999999999989E-002     9.5988350601312502E-010
  -3.9699999999999985E-002     9.1274460212163505E-010
  -3.8599999999999995E-002    -1.0530461225245219E-010
  -3.7499999999999992E-002    -1.5239571826697230E-009
  -3.6399999999999988E-002    -2.0697441538429029E-009
  -3.5299999999999984E-002    -7.5236028518307265E-010
  -3.4199999999999994E-002     1.9699537556762066E-009
  -3.3099999999999991E-002     3.9821554942418672E-009
  -3.1999999999999987E-002     2.9183691019336462E-009
  -3.0899999999999997E-002    -1.5453135437940950E-009
  -2.9799999999999993E-002    -6.4729306359366926E-009
  -2.8699999999999989E-002    -7.2200645462310402E-009
  -2.7599999999999986E-002    -1.3313251612237578E-009
  -2.6499999999999996E-002     8.1789552908165687E-009
  -2.5399999999999992E-002     1.3659959385847112E-008
  -2.4299999999999988E-002     8.4906552899597354E-009
  -2.3199999999999985E-002    -6.2185985250107227E-009
  -2.2099999999999995E-002    -2.0044161885834821E-008
  -2.0999999999999991E-002    -2.0042515203043287E-008
  -1.9899999999999987E-002    -2.1160380114773149E-009
  -1.8799999999999983E-002     2.2483177986033354E-008
  -1.7699999999999994E-002     3.3185965975234377E-008
  -1.6599999999999990E-002     1.6644206013436192E-008
  -1.5499999999999986E-002    -1.8866519013729225E-008
  -1.4399999999999996E-002    -4.5362288147998611E-008
  -1.3299999999999992E-002    -3.6016821525206356E-008
  -1.2199999999999989E-002     9.5573255976007779E-009
  -1.1099999999999985E-002     5.8095430688354946E-008
  -9.9999999999999950E-003     6.4859406734283018E-008
  -8.8999999999999913E-003     1.2011313721411678E-008
  -7.7999999999999875E-003    -6.8185968871151141E-008
  -6.6999999999999837E-003    -1.1015447398676558E-007
  -5.5999999999999939E-003    -6.5794459658256909E-008
  -4.4999999999999901E-003     4.8744340119818209E-008
  -3.3999999999999864E-003     1.5274463294190590E-007
  -2.2999999999999826E-003     1.5676882014758403E-007
  -1.1999999999999927E-003     3.6834002514739015E-008
  -9.9999999999988987E-005    -1.3369697171584738E-007
   1.0000000000000148E-003    -2.2882105099597837E-007
   2.1000000000000185E-003    -1.6528635171652192E-007
   3.2000000000000084E-003     2.4185142777373395E-008
   4.3000000000000121E-003     2.0400169375990846E-007
   5.4000000000000159E-003     2.3498333234784289E-007
   6.5000000000000058E-003     8.7480110266815063E-008
   7.6000000000000234E-003    -1.2403707216892077E-007
   8.7000000000000133E-003    -2.2245627917529082E-007
   9.8000000000000032E-003    -1.1105394293054334E-007
   1.0900000000000021E-002     1.3353374583858158E-007
   1.2000000000000011E-002     3.0177923804331449E-007
   1.3100000000000001E-002     2.0941274669894165E-007
   1.4200000000000018E-002    -1.3994093706061104E-007
   1.5300000000000008E-002    -5.1901457709391644E-007
   1.6400000000000026E-002    -6.1608761825480519E-007
   1.7500000000000016E-002    -2.6648280027070689E-007
   1.8600000000000005E-002     3.8924190448602092E-007
   1.9700000000000023E-002     9.5309053449457057E-007
   2.0800000000000013E-002     1.0185519840888076E-006
   2.1900000000000003E-002     4.6356683469630054E-007
   2.3000000000000020E-002    -4.2467880234664390E-007
   2.4100000000000010E-002    -1.1086062841059835E-006
   2.5200000000000000E-002    -1.1600351399465362E-006
   2.6300000000000018E-002    -5.7371482853330318E-007
   2.7400000000000008E-002     2.1093694613242380E-007
   2.8500000000000025E-002     6.3045195020106330E-007
   2.9600000000000015E-002     4.4399206444726401E-007
   3.0700000000000005E-002    -4.5591256991929239E-008
   3.1800000000000023E-002    -2.1545503159368092E-007
   3.2900000000000013E-002     3.3073999361468025E-007
   3.4000000000000002E-002     1.3168049690647584E-006
   3.5100000000000020E-002     1.8669982182472468E-006
   3.6200000000000010E-002     1.1479247632450199E-006
   3.7300000000000028E-002    -8.5761189438933827E-007
   3.8400000000000017E-002    -3.0888954825059147E-006
   3.9500000000000007E-002    -3.9950409700394396E-006
   4.0600000000000025E-002    -2.6553088900979874E-006
   4.1700000000000015E-002     3.9004987684198024E-007
   4.2800000000000005E-002     3.3215046642001453E-006
   4.3900000000000022E-002     4.2410697460582438E-006
   4.5000000000000012E-002     2.5728766104291484E-006
   4.6100000000000002E-002    -4.1896365132786125E-007
   4.7200000000000020E-002    -2.4898504307207175E-006
   4.8300000000000010E-002    -2.0935926841051192E-006
   4.9400000000000027E-002     3.8173371308397695E-007
   5.0500000000000017E-002     2.8335505248835091E-006
   5.1600000000000007E-002     3.0481439807775618E-006
   5.2700000000000025E-002     5.0478149660227634E-007
   5.3800000000000014E-002    -3.0506560051432280E-006
   5.4900000000000004E-002    -4.8219662858170295E-006
   5.6000000000000022E-002    -3.1533140827374828E-006
   5.7100000000000012E-002     9.5235293429163623E-007
   5.8200000000000002E-002     4.2439664866833262E-006
   5.9300000000000019E-002     3.4382035209996509E-006
   6.0400000000000009E-002    -2.2635549612469086E-006
   6.1500000000000027E-002    -1.0208863386652733E-005
   6.2600000000000017E-002    -1.5736382920296149E-005
   6.3700000000000007E-002    -1.5201742826321386E-005
   6.4800000000000024E-002    -8.5655319708167288E-006
   6.5900000000000014E-002     3.0852243071462014E-007
   6.7000000000000004E-002     6.0011566347389120E-006
   6.8100000000000022E-002     5.0381045184623645E-006
   6.9200000000000012E-002    -1.8652472135730769E-006
   7.0300000000000029E-002    -1.0475153430889698E-005
   7.1400000000000019E-002    -1.6275289453916428E-005
   7.2500000000000009E-002    -1.7993870642386814E-005
   7.3600000000000027E-002    -1.8751969037113627E-005
   7.4700000000000016E-002    -2.3755850634190824E-005
   7.5800000000000006E-002    -3.6043853469894665E-005
   7.6900000000000024E-002    -5.3485509852184032E-005
   7.8000000000000014E-002    -6.9588946644220733E-005
   7.9100000000000004E-002    -7.7944190707061509E-005
   8.0200000000000021E-002    -7.7232798503249845E-005
   8.1300000000000011E-002    -7.2985611041080615E-005
   8.2400000000000029E-002    -7.4470379331620311E-005
   8.3500000000000019E-002    -8.8749475253287950E-005
   8.4600000000000009E-002    -1.1626603372861733E-004
   8.5700000000000026E-002    -1.5129153325689379E-004
   8.6800000000000016E-002    -1.8687763076742747E-004
   8.7900000000000006E-002    -2.2038735914977088E-004
   8.9000000000000024E-002    -2.5520243798384467E-004
   9.0100000000000013E-002    -2.9725246713498897E-004
   9.1200000000000003E-002    -3.4928854438478774E-004
   9.2300000000000021E-002    -4.0777283720675063E-004
   9.3400000000000011E-002    -4.6526585356335734E-004
   9.4500000000000028E-002    -5.1671586697924952E-004
   9.5600000000000018E-002    -5.6464929366488524E-004
   9.6700000000000008E-002    -6.1897607520227402E-004
   9.7800000000000026E-002    -6.9095444632699492E-004
   9.8900000000000016E-002    -7.8558013774460741E-004
  0.10000000000000001         -8.9789804769686940E-004
  0.10110000000000002         -1.0160482488573395E-003
  0.10220000000000001         -1.1291137197987134E-003
  0.10330000000000003         -1.2340989196674011E-003
  0.10440000000000002         -1.3372171670199505E-003
  0.10550000000000001         -1.4484515413643092E-003
  0.10660000000000003         -1.5732981264592486E-003
  0.10770000000000002         -1.7074214993046115E-003
  0.10880000000000001         -1.8380761612208191E-003
  0.10990000000000003         -1.9517187029124904E-003
  0.11100000000000002         -2.0423047244550489E-003
  0.11210000000000001         -2.1146638318898072E-003
  0.11320000000000002         -2.1797348745169120E-003
  0.11430000000000001         -2.2447560913862745E-003
  0.11540000000000003         -2.3052704054864282E-003
  0.11650000000000002         -2.3447489365937399E-003
  0.11760000000000001         -2.3428865242751547E-003
  0.11870000000000003         -2.2869934327902491E-003
  0.11980000000000002         -2.1778703667225492E-003
  0.12090000000000001         -2.0253527909519253E-003
  0.12200000000000003         -1.8372050253676248E-003
  0.12310000000000001         -1.6091519501061971E-003
  0.12420000000000003         -1.3252543285490622E-003
  0.12530000000000002         -9.6807646332321606E-004
  0.12640000000000001         -5.3059164201850592E-004
  0.12750000000000003         -2.0605692043378902E-005
  0.12860000000000002          5.4655200801788091E-004
  0.12970000000000001          1.1619511060417022E-003
  0.13080000000000003          1.8314677290619287E-003
  0.13190000000000002          2.5705192238093888E-003
  0.13300000000000001          3.3903229050340393E-003
  0.13410000000000000          4.2856745421889298E-003
  0.13520000000000004          5.2327215671542941E-003
  0.13630000000000003          6.1995512805883574E-003
  0.13740000000000002          7.1617285721009318E-003
  0.13850000000000001          8.1117637455469568E-003
  0.13960000000000000          9.0543236583478324E-003
  0.14070000000000005          9.9927214905627532E-003
  0.14180000000000004          1.0914554819465561E-002
  0.14290000000000003          1.1789633892477521E-002
  0.14400000000000002          1.2578549794853778E-002
  0.14510000000000001          1.3247562572361156E-002
  0.14620000000000000          1.3778477907181969E-002
  0.14730000000000004          1.4167713932694241E-002
  0.14840000000000003          1.4415710233153193E-002
  0.14950000000000002          1.4514350332321044E-002
  0.15060000000000001          1.4440018683673273E-002
  0.15170000000000000          1.4157622121275790E-002
  0.15280000000000005          1.3634727336467608E-002
  0.15390000000000004          1.2855811044575036E-002
  0.15500000000000003          1.1828853748739954E-002
  0.15610000000000002          1.0577945969999942E-002
  0.15720000000000001          9.1267814859757896E-003
  0.15830000000000000          7.4845729395755936E-003
  0.15940000000000004          5.6455614976592206E-003
  0.16050000000000003          3.6026651505386507E-003
  0.16160000000000002          1.3666050508622147E-003
  0.16270000000000001         -1.0261030402032739E-003
  0.16380000000000000         -3.5214079543948538E-003
  0.16490000000000005         -6.0676676221194503E-003
  0.16600000000000004         -8.6302468553190407E-003
  0.16710000000000003         -1.1190424673259989E-002
  0.16820000000000002         -1.3729273341597095E-002
  0.16930000000000001         -1.6209946945310843E-002
  0.17040000000000000         -1.8574448302389624E-002
  0.17150000000000004         -2.0760184153916103E-002
  0.17260000000000003         -2.2716956213118502E-002
  0.17370000000000002         -2.4415018036963599E-002
  0.17480000000000001         -2.5837827473881067E-002
  0.17590000000000000         -2.6968564838173351E-002
  0.17700000000000005         -2.7780110016467643E-002
  0.17810000000000004         -2.8243102133276618E-002
  0.17920000000000003         -2.8334168717267717E-002
  0.18030000000000002         -2.8043774887922028E-002
  0.18140000000000001         -2.7377763763072691E-002
  0.18250000000000000         -2.6348842307927754E-002
  0.18360000000000004         -2.4974230676891859E-002
  0.18470000000000003         -2.3271661251785689E-002
  0.18580000000000002         -2.1263241767885466E-002
  0.18690000000000001         -1.8973406404258802E-002
  0.18800000000000000         -1.6428969800474032E-002
  0.18910000000000005         -1.3665680773557771E-002
  0.19020000000000004         -1.0729700326920841E-002
  0.19130000000000003         -7.6789488084624451E-003
  0.19240000000000002         -4.5758527703590622E-003
  0.19350000000000001         -1.4749926049266811E-003
  0.19460000000000005          1.5833982033653408E-003
  0.19570000000000004          4.5689954422415526E-003
  0.19680000000000003          7.4496227316562386E-003
  0.19790000000000002          1.0182268917561249E-002
  0.19900000000000001          1.2715117074550123E-002
  0.20010000000000000          1.5001704916359153E-002
  0.20120000000000005          1.7012661322952687E-002
  0.20230000000000004          1.8736969679595598E-002
  0.20340000000000003          2.0169680938126378E-002
  0.20450000000000002          2.1299598738552993E-002
  0.20560000000000000          2.2109316661955883E-002
  0.20670000000000005          2.2587003186347130E-002
  0.20780000000000004          2.2738693282010246E-002
  0.20890000000000003          2.2588286548855009E-002
