 -0.12000000000000000          0.0000000000000000
 -0.11889999999999999          0.0000000000000000
 -0.11780000000000000          0.0000000000000000
 -0.11670000000000000          0.0000000000000000
 -0.11559999999999999          0.0000000000000000
 -0.11449999999999999          0.0000000000000000
 -0.11340000000000000          0.0000000000000000
 -0.11230000000000000          0.0000000000000000
 -0.11119999999999999          0.0000000000000000
 -0.11009999999999999          0.0000000000000000
 -0.10900000000000000          0.0000000000000000
 -0.10790000000000000         -5.3796128305122592E-040
 -0.10679999999999999         -4.2704147508162574E-038
 -0.10569999999999999         -8.7997158055924561E-037
 -0.10460000000000000         -8.9339421721713285E-036
 -0.10349999999999999         -5.5715711602402747E-035
 -0.10239999999999999         -2.3430557218977073E-034
 -0.10130000000000000         -6.8089197023785945E-034
 -0.10020000000000000         -1.2864562420941112E-033
  -9.9099999999999994E-002    -1.0229980197030891E-033
  -9.7999999999999990E-002     2.2635322892853815E-033
  -9.6899999999999986E-002     9.2105213336787385E-033
  -9.5799999999999996E-002     1.2302713590130491E-032
  -9.4699999999999993E-002    -7.3160468834355378E-033
  -9.3599999999999989E-002    -6.1327473970605842E-032
  -9.2499999999999999E-002    -1.0738301937487659E-031
  -9.1399999999999995E-002    -2.2558199443180334E-032
  -9.0299999999999991E-002     2.9926753161341607E-031
  -8.9200000000000002E-002     6.8828020129064310E-031
  -8.8099999999999984E-002     4.7910281533300432E-031
  -8.6999999999999994E-002    -1.2264023780490549E-030
  -8.5899999999999990E-002    -4.3638924386141232E-030
  -8.4799999999999986E-002    -5.7149447078221138E-030
  -8.3699999999999997E-002     2.6588329926898957E-030
  -8.2599999999999993E-002     2.7990132707090705E-029
  -8.1499999999999989E-002     5.4488530357225201E-029
  -8.0399999999999999E-002     1.3460070098384421E-029
  -7.9299999999999995E-002    -1.8293348076558725E-028
  -7.8199999999999992E-002    -4.3671337787105269E-028
  -7.7100000000000002E-002    -1.8467434087938103E-028
  -7.5999999999999984E-002     1.3166475620057509E-027
  -7.4899999999999994E-002     3.3188152506485610E-027
  -7.3799999999999991E-002     1.4673224023153946E-027
  -7.2699999999999987E-002    -9.9038258791911239E-027
  -7.1599999999999997E-002    -2.5590228683013724E-026
  -7.0499999999999993E-002    -1.4651302510747947E-026
  -6.9399999999999989E-002     6.4944138824750162E-026
  -6.8300000000000000E-002     1.8751099224991845E-025
  -6.7199999999999996E-002     1.5921905055199085E-025
  -6.6099999999999992E-002    -3.1498441875711753E-025
  -6.5000000000000002E-002    -1.1851980346394369E-024
  -6.3899999999999985E-002    -1.4221218565079605E-024
  -6.2799999999999995E-002     8.2605377405372604E-025
  -6.1699999999999991E-002     6.0636180021656631E-024
  -6.0599999999999994E-002     9.8417324125069063E-024
  -5.9499999999999990E-002     2.1627420438300575E-024
  -5.8399999999999994E-002    -2.3679709530840434E-023
  -5.7299999999999990E-002    -5.3159039239887982E-023
  -5.6199999999999986E-002    -4.0859659586541137E-023
  -5.5099999999999996E-002     6.0791552487827151E-023
  -5.3999999999999992E-002     2.2467021113603674E-022
  -5.2899999999999989E-002     2.8091723061219427E-022
  -5.1799999999999985E-002    -1.8532636671153950E-023
  -5.0699999999999995E-002    -7.2112357761312021E-022
  -4.9599999999999991E-002    -1.3264380324493735E-021
  -4.8499999999999988E-002    -8.1150578228321788E-022
  -4.7399999999999998E-002     1.5364634510876529E-021
  -4.6299999999999994E-002     4.7072029460844162E-021
  -4.5199999999999990E-002     5.3129382613690486E-021
  -4.4099999999999986E-002    -5.0578429094307623E-022
  -4.2999999999999997E-002    -1.2372494235537957E-020
  -4.1899999999999993E-002    -2.1504910702595768E-020
  -4.0799999999999989E-002    -1.3220357594579079E-020
  -3.9699999999999985E-002     2.0299393510614898E-020
  -3.8599999999999995E-002     6.3194220654790224E-020
  -3.7499999999999992E-002     7.2462113796547736E-020
  -3.6399999999999988E-002     4.7549043679029466E-021
  -3.5299999999999984E-002    -1.3177369729003037E-019
  -3.4199999999999994E-002    -2.4098077009627188E-019
  -3.3099999999999991E-002    -1.7430687202310956E-019
  -3.1999999999999987E-002     1.4291278283730793E-019
  -3.0899999999999997E-002     5.6650642983066988E-019
  -2.9799999999999993E-002     7.2019762161878812E-019
  -2.8699999999999989E-002     2.2976551930915408E-019
  -2.7599999999999986E-002    -8.7060066707443150E-019
  -2.6499999999999996E-002    -1.8790561531096535E-018
  -2.5399999999999992E-002    -1.6957001966038523E-018
  -2.4299999999999988E-002     3.0739776396575112E-019
  -2.3199999999999985E-002     3.3338402031025897E-018
  -2.2099999999999995E-002     5.0608010026208929E-018
  -2.0999999999999991E-002     3.0130589411690661E-018
  -1.9899999999999987E-002    -3.0963008145472681E-018
  -1.8799999999999983E-002    -9.8347175708349196E-018
  -1.7699999999999994E-002    -1.1281875015580117E-017
  -1.6599999999999990E-002    -3.3011456825962781E-018
  -1.5499999999999986E-002     1.1688727935767386E-017
  -1.4399999999999996E-002     2.3723811283261751E-017
  -1.3299999999999992E-002     2.0814574055520900E-017
  -1.2199999999999989E-002    -1.1779687817851014E-018
  -1.1099999999999985E-002    -3.1476756789039566E-017
  -9.9999999999999950E-003    -4.7740242671297811E-017
  -8.8999999999999913E-003    -3.0989031247543599E-017
  -7.7999999999999875E-003     1.6789317980213305E-017
  -6.6999999999999837E-003     6.6971718765845324E-017
  -5.5999999999999939E-003     7.9700731373835937E-017
  -4.4999999999999901E-003     3.3871117098858010E-017
  -3.3999999999999864E-003    -4.9764280838321165E-017
  -2.2999999999999826E-003    -1.1441031513752465E-016
  -1.1999999999999927E-003    -1.0514818853031119E-016
  -9.9999999999988987E-005    -1.4934211600969205E-017
   1.0000000000000148E-003     9.8928299867169750E-017
   2.1000000000000185E-003     1.4941658542587898E-016
   3.2000000000000084E-003     8.7667949745489488E-017
   4.3000000000000121E-003    -4.7531194278170960E-017
   5.4000000000000159E-003    -1.4672966456829033E-016
   6.5000000000000058E-003    -1.1393138418030135E-016
   7.6000000000000234E-003     4.1586975134691396E-017
   8.7000000000000133E-003     1.8738129033608636E-016
   9.8000000000000032E-003     1.6012092459213580E-016
   1.0900000000000021E-002    -8.5586624357963161E-017
   1.2000000000000011E-002    -3.9147385250723043E-016
   1.3100000000000001E-002    -4.7020821193247781E-016
   1.4200000000000018E-002    -1.2337122227031570E-016
   1.5300000000000008E-002     5.4445663192950722E-016
   1.6400000000000026E-002     1.1015863590575965E-015
   1.7500000000000016E-002     1.0329240684081500E-015
   1.8600000000000005E-002     1.2912838609879497E-016
   1.9700000000000023E-002    -1.2499538147689622E-015
   2.0800000000000013E-002    -2.2747470021581813E-015
   2.1900000000000003E-002    -2.1186127837160857E-015
   2.3000000000000020E-002    -5.3582192512563768E-016
   2.4100000000000010E-002     1.8470161161019674E-015
   2.5200000000000000E-002     3.7709711994183583E-015
   2.6300000000000018E-002     4.0200882478870579E-015
   2.7400000000000008E-002     2.1344175714789037E-015
   2.8500000000000025E-002    -1.2746699185324875E-015
   2.9600000000000015E-002    -4.7812591593440843E-015
   3.0700000000000005E-002    -6.7833307974298190E-015
   3.1800000000000023E-002    -6.1436138226972185E-015
   3.2900000000000013E-002    -2.5710321390859207E-015
   3.4000000000000002E-002     3.2407493267443740E-015
   3.5100000000000020E-002     9.5680231858123743E-015
   3.6200000000000010E-002     1.3741006386392991E-014
   3.7300000000000028E-002     1.2714217801138277E-014
   3.8400000000000017E-002     4.4846879370384098E-015
   3.9500000000000007E-002    -9.9013746962701987E-015
   4.0600000000000025E-002    -2.4992294949603526E-014
   4.1700000000000015E-002    -3.1944570280011478E-014
   4.2800000000000005E-002    -2.2744255955063457E-014
   4.3900000000000022E-002     3.7735351681496970E-015
   4.5000000000000012E-002     3.7835660711242614E-014
   4.6100000000000002E-002     6.0679908905729441E-014
   4.7200000000000020E-002     5.3832037162334159E-014
   4.8300000000000010E-002     1.1899975193338085E-014
   4.9400000000000027E-002    -4.9133040572277992E-014
   5.0500000000000017E-002    -9.5772815947390427E-014
   5.1600000000000007E-002    -9.4387131032054594E-014
   5.2700000000000025E-002    -3.3989690673575518E-014
   5.3800000000000014E-002     6.0122520568854643E-014
   5.4900000000000004E-002     1.3415695420890272E-013
   5.6000000000000022E-002     1.3541992776710393E-013
   5.7100000000000012E-002     4.8620548369739461E-014
   5.8200000000000002E-002    -8.4956937047419440E-014
   5.9300000000000019E-002    -1.8315950427345851E-013
   6.0400000000000009E-002    -1.7097754418868294E-013
   6.1500000000000027E-002    -3.4771058238626876E-014
   6.2600000000000017E-002     1.5409589294683446E-013
   6.3700000000000007E-002     2.7023085917392276E-013
   6.4800000000000024E-002     2.1099174653520930E-013
   6.5900000000000014E-002    -2.4196038239405332E-014
   6.7000000000000004E-002    -3.0752169474096425E-013
   6.8100000000000022E-002    -4.4130923416464685E-013
   6.9200000000000012E-002    -2.8159213242423542E-013
   7.0300000000000029E-002     1.4339548157823317E-013
   7.1400000000000019E-002     6.0407386558158915E-013
   7.2500000000000009E-002     7.7370022281281203E-013
   7.3600000000000027E-002     4.2975532529333782E-013
   7.4700000000000016E-002    -3.5886934699955186E-013
   7.5800000000000006E-002    -1.1893530865031421E-012
   7.6900000000000024E-002    -1.4948189170846393E-012
   7.8000000000000014E-002    -8.7212398761082888E-013
   7.9100000000000004E-002     6.0285717390362592E-013
   8.0200000000000021E-002     2.2770266575045106E-012
   8.1300000000000011E-002     3.1565401334421317E-012
   8.2400000000000029E-002     2.4162369154090424E-012
   8.3500000000000019E-002    -5.9752617892656901E-014
   8.4600000000000009E-002    -3.4192097937701948E-012
   8.5700000000000026E-002    -6.0766634779607642E-012
   8.6800000000000016E-002    -6.4091518550690729E-012
   8.7900000000000006E-002    -3.6117582449118890E-012
   8.9000000000000024E-002     1.7276310590452759E-012
   9.0100000000000013E-002     7.6848258659389934E-012
   9.1200000000000003E-002     1.1737910123044148E-011
   9.2300000000000021E-002     1.1874874347728159E-011
   9.3400000000000011E-002     7.5311120187326885E-012
   9.4500000000000028E-002    -1.2607827921864295E-013
   9.5600000000000018E-002    -8.7161840245375544E-012
   9.6700000000000008E-002    -1.5681152557012190E-011
   9.7800000000000026E-002    -1.9264298489751752E-011
   9.8900000000000016E-002    -1.8905904619614944E-011
  0.10000000000000001         -1.4905254114294664E-011
  0.10110000000000002         -7.6878234681054813E-012
  0.10220000000000001          2.6954460798783719E-012
  0.10330000000000003          1.6339226846517896E-011
  0.10440000000000002          3.2538950700544689E-011
  0.10550000000000001          4.8735238067365572E-011
  0.10660000000000003          6.0220724240611645E-011
  0.10770000000000002          6.1177431176506758E-011
  0.10880000000000001          4.6833613376318084E-011
  0.10990000000000003          1.5714865173044323E-011
  0.11100000000000002         -2.9344693341926131E-011
  0.11210000000000001         -8.2270114332150257E-011
  0.11320000000000002         -1.3661526077068942E-010
  0.11430000000000001         -1.8884113717199114E-010
  0.11540000000000003         -2.4021279410035845E-010
  0.11650000000000002         -2.9620700336963068E-010
  0.11760000000000001         -3.6379155243793093E-010
  0.11870000000000003         -4.4834555512629493E-010
  0.11980000000000002         -5.5240756413610370E-010
  0.12090000000000001         -6.7744920784207352E-010
  0.12200000000000003         -8.2793194522423619E-010
  0.12310000000000001         -1.0151612883646521E-009
  0.12420000000000003         -1.2581017339030609E-009
  0.12530000000000002         -1.5798193864213772E-009
  0.12640000000000001         -2.0009052192904164E-009
  0.12750000000000003         -2.5335442632723471E-009
  0.12860000000000002         -3.1802960265281399E-009
  0.12970000000000001         -3.9395842144074322E-009
  0.13080000000000003         -4.8162469568069355E-009
  0.13190000000000002         -5.8323283980143970E-009
  0.13300000000000001         -7.0325212320199171E-009
  0.13410000000000000         -8.4810825029535408E-009
  0.13520000000000004         -1.0251510751402293E-008
  0.13630000000000003         -1.2414393069093421E-008
  0.13740000000000002         -1.5030174438379618E-008
  0.13850000000000001         -1.8151183667214355E-008
  0.13960000000000000         -2.1832317287362457E-008
  0.14070000000000005         -2.6144958198415225E-008
  0.14180000000000004         -3.1186893068024801E-008
  0.14290000000000003         -3.7083243142888023E-008
  0.14400000000000002         -4.3978641173225697E-008
  0.14510000000000001         -5.2025949770495572E-008
  0.14620000000000000         -6.1378827354019450E-008
  0.14730000000000004         -7.2193138578313665E-008
  0.14840000000000003         -8.4636781139124651E-008
  0.14950000000000002         -9.8902283696133964E-008
  0.15060000000000001         -1.1521451881435496E-007
  0.15170000000000000         -1.3382843633280572E-007
  0.15280000000000005         -1.5501758809932653E-007
  0.15390000000000004         -1.7905952631736000E-007
  0.15500000000000003         -2.0622567831196648E-007
  0.15610000000000002         -2.3678116178871278E-007
  0.15720000000000001         -2.7099287081000512E-007
  0.15830000000000000         -3.0913969339962932E-007
  0.15940000000000004         -3.5151646216036170E-007
  0.16050000000000003         -3.9842680621404725E-007
  0.16160000000000002         -4.5016685135124135E-007
  0.16270000000000001         -5.0700577958195936E-007
  0.16380000000000000         -5.6917178881121799E-007
  0.16490000000000005         -6.3684797169116791E-007
  0.16600000000000004         -7.1017507252690848E-007
  0.16710000000000003         -7.8925302204879699E-007
  0.16820000000000002         -8.7413445726269856E-007
  0.16930000000000001         -9.6480573574808659E-007
  0.17040000000000000         -1.0611609013722045E-006
  0.17150000000000004         -1.1629771279331180E-006
  0.17260000000000003         -1.2699019862338901E-006
  0.17370000000000002         -1.3814561725666863E-006
  0.17480000000000001         -1.4970447637097095E-006
  0.17590000000000000         -1.6159659708137042E-006
  0.17700000000000005         -1.7374078424836625E-006
  0.17810000000000004         -1.8604282558953855E-006
  0.17920000000000003         -1.9839242213492980E-006
  0.18030000000000002         -2.1066066437924746E-006
  0.18140000000000001         -2.2269930468610255E-006
  0.18250000000000000         -2.3434231479768641E-006
  0.18360000000000004         -2.4540941012674011E-006
  0.18470000000000003         -2.5571018795744749E-006
  0.18580000000000002         -2.6504712877795100E-006
  0.18690000000000001         -2.7321664219925879E-006
  0.18800000000000000         -2.8000908969261218E-006
  0.18910000000000005         -2.8520876185211819E-006
  0.19020000000000004         -2.8859515168733196E-006
  0.19130000000000003         -2.8994654712732881E-006
  0.19240000000000002         -2.8904544251417974E-006
  0.19350000000000001         -2.8568483685376123E-006
  0.19460000000000005         -2.7967387268290622E-006
  0.19570000000000004         -2.7084229259344283E-006
  0.19680000000000003         -2.5904366793838562E-006
  0.19790000000000002         -2.4415840016445145E-006
  0.19900000000000001         -2.2609690404351568E-006
  0.20010000000000000         -2.0480388229771052E-006
  0.20120000000000005         -1.8026289581030142E-006
  0.20230000000000004         -1.5250091109919595E-006
  0.20340000000000003         -1.2159132438682718E-006
  0.20450000000000002         -8.7655485003779177E-007
  0.20560000000000000         -5.0862922762462404E-007
  0.20670000000000005         -1.1431032476139080E-007
  0.20780000000000004          3.0375161941265105E-007
  0.20890000000000003          7.4243155268050032E-007
