 -0.12000000000000000          0.0000000000000000
 -0.11889999999999999          0.0000000000000000
 -0.11780000000000000          0.0000000000000000
 -0.11670000000000000          0.0000000000000000
 -0.11559999999999999          0.0000000000000000
 -0.11449999999999999          0.0000000000000000
 -0.11340000000000000          0.0000000000000000
 -0.11230000000000000          0.0000000000000000
 -0.11119999999999999          0.0000000000000000
 -0.11009999999999999          0.0000000000000000
 -0.10900000000000000          0.0000000000000000
 -0.10790000000000000          7.2624838106118591E-029
 -0.10679999999999999          3.0846837991692935E-027
 -0.10569999999999999          4.3735391520753666E-026
 -0.10460000000000000          3.6225811644574778E-025
 -0.10349999999999999          1.9213531706303698E-024
 -0.10239999999999999          6.7995305634282406E-024
 -0.10130000000000000          1.6345541899534041E-023
 -0.10020000000000000          2.5676040380637987E-023
  -9.9099999999999994E-002     1.6767787587662640E-023
  -9.7999999999999990E-002    -5.1834207302998089E-023
  -9.6899999999999986E-002    -2.4041935841400559E-022
  -9.5799999999999996E-002    -4.3559596619177571E-022
  -9.4699999999999993E-002     2.2501253890357921E-022
  -9.3599999999999989E-002     3.1931629356474302E-021
  -9.2499999999999999E-002     6.2097753170966406E-021
  -9.1399999999999995E-002    -3.9458894170834077E-021
  -9.0299999999999991E-002    -4.0481611717582831E-020
  -8.9200000000000002E-002    -5.9825282040923668E-020
  -8.8099999999999984E-002     8.0695662818747435E-020
  -8.6999999999999994E-002     4.2961700819291118E-019
  -8.5899999999999990E-002     4.3625851887928186E-019
  -8.4799999999999986E-002    -1.0502636757354897E-018
  -8.3699999999999997E-002    -3.7110469701359586E-018
  -8.2599999999999993E-002    -2.4021329124442986E-018
  -8.1499999999999989E-002     1.0311192628819552E-017
  -8.0399999999999999E-002     2.7485380377260917E-017
  -7.9299999999999995E-002     9.9070048845659287E-018
  -7.8199999999999992E-002    -8.3862303505369821E-017
  -7.7100000000000002E-002    -1.8593609330939292E-016
  -7.5999999999999984E-002    -3.6669515433239205E-017
  -7.4899999999999994E-002     5.8226029470061788E-016
  -7.3799999999999991E-002     1.1907444118108737E-015
  -7.2699999999999987E-002     2.4549174745445122E-016
  -7.1599999999999997E-002    -3.4374155540202456E-015
  -7.0499999999999993E-002    -7.1671845297853129E-015
  -6.9399999999999989E-002    -2.6278985430327854E-015
  -6.8300000000000000E-002     1.6901060154801868E-014
  -6.7199999999999996E-002     3.9272055795064667E-014
  -6.6099999999999992E-002     2.4071080550894589E-014
  -6.5000000000000002E-002    -6.6439854919803087E-014
  -6.3899999999999985E-002    -1.8954687808474951E-013
  -6.2799999999999995E-002    -1.7032908286931936E-013
  -6.1699999999999991E-002     1.8755122780343692E-013
  -6.0599999999999994E-002     7.8398420567948879E-013
  -5.9499999999999990E-002     9.5597791835433377E-013
  -5.8399999999999994E-002    -2.0632311777037809E-013
  -5.7299999999999990E-002    -2.6957581132636133E-012
  -5.6199999999999986E-002    -4.3642797709075865E-012
  -5.5099999999999996E-002    -1.5267763182197358E-012
  -5.3999999999999992E-002     7.2827924246787745E-012
  -5.2899999999999989E-002     1.6377907710585227E-011
  -5.1799999999999985E-002     1.2861958026411102E-011
  -5.0699999999999995E-002    -1.2944072029508202E-011
  -4.9599999999999991E-002    -5.0156635789111448E-011
  -4.8499999999999988E-002    -6.0314038485831389E-011
  -4.7399999999999998E-002    -1.1325979216991744E-012
  -4.6299999999999994E-002     1.2061646126326764E-010
  -4.5199999999999990E-002     2.0982268700286966E-010
  -4.4099999999999986E-002     1.2198293763976409E-010
  -4.2999999999999997E-002    -1.9865958877929302E-010
  -4.1899999999999993E-002    -5.7005972164958507E-010
  -4.0799999999999989E-002    -5.8993732121592757E-010
  -3.9699999999999985E-002     6.3086577628546081E-011
  -3.8599999999999995E-002     1.1818196421486959E-009
  -3.7499999999999992E-002     1.8568995230339169E-009
  -3.6399999999999988E-002     9.8866348441362106E-010
  -3.5299999999999984E-002    -1.6073616881939756E-009
  -3.4199999999999994E-002    -4.3434384977558693E-009
  -3.3099999999999991E-002    -4.3850030273517859E-009
  -3.1999999999999987E-002     1.1062577937037688E-010
  -3.0899999999999997E-002     7.3958492663450670E-009
  -2.9799999999999993E-002     1.1753124695701445E-008
  -2.8699999999999989E-002     7.0531398499440456E-009
  -2.7599999999999986E-002    -7.2304220388730300E-009
  -2.6499999999999996E-002    -2.2420659107069696E-008
  -2.5399999999999992E-002    -2.4399158249366337E-008
  -2.4299999999999988E-002    -4.6639865303177430E-009
  -2.3199999999999985E-002     2.8780187122379175E-008
  -2.2099999999999995E-002     5.1474863482781075E-008
  -2.0999999999999991E-002     3.8285840275875671E-008
  -1.9899999999999987E-002    -1.3615639282704706E-008
  -1.8799999999999983E-002    -7.3489815122229629E-008
  -1.7699999999999994E-002    -9.2483801950038469E-008
  -1.6599999999999990E-002    -4.0986890326166758E-008
  -1.5499999999999986E-002     5.9141370911675040E-008
  -1.4399999999999996E-002     1.3851298774625320E-007
  -1.3299999999999992E-002     1.2740872534777736E-007
  -1.2199999999999989E-002     1.5545099429914444E-008
  -1.1099999999999985E-002    -1.2609866928414704E-007
  -9.9999999999999950E-003    -1.8998460404873185E-007
  -8.8999999999999913E-003    -1.1771540897598243E-007
  -7.7999999999999875E-003     4.2289798329875339E-008
  -6.6999999999999837E-003     1.6325284946105967E-007
  -5.5999999999999939E-003     1.4470640508079669E-007
  -4.4999999999999901E-003     9.5196863725277581E-009
  -3.3999999999999864E-003    -1.0125576466180064E-007
  -2.2999999999999826E-003    -5.2653206239483552E-008
  -1.1999999999999927E-003     1.3620308436657069E-007
  -9.9999999999988987E-005     2.6330332048019045E-007
   1.0000000000000148E-003     9.8573728735118493E-008
   2.1000000000000185E-003    -3.7455029655575345E-007
   3.2000000000000084E-003    -8.4044432924201828E-007
   4.3000000000000121E-003    -8.1242632177236374E-007
   5.4000000000000159E-003    -1.9528920702782671E-008
   6.5000000000000058E-003     1.2541261185106123E-006
   7.6000000000000234E-003     2.1875262063986156E-006
   8.7000000000000133E-003     1.8923689140137867E-006
   9.8000000000000032E-003     8.5002426430946798E-008
   1.0900000000000021E-002    -2.5058884602913167E-006
   1.2000000000000011E-002    -4.3631348489725497E-006
   1.3100000000000001E-002    -4.0144468584912829E-006
   1.4200000000000018E-002    -1.0208543699263828E-006
   1.5300000000000008E-002     3.5075329378742026E-006
   1.6400000000000026E-002     7.2687225838308223E-006
   1.7500000000000016E-002     7.8958064477774315E-006
   1.8600000000000005E-002     4.2825695345527492E-006
   1.9700000000000023E-002    -2.6075051664520288E-006
   2.0800000000000013E-002    -9.9076905826223083E-006
   2.1900000000000003E-002    -1.3963359378976747E-005
   2.3000000000000020E-002    -1.1939618161704857E-005
   2.4100000000000010E-002    -3.2858208669495070E-006
   2.5200000000000000E-002     9.5096183940768242E-006
   2.6300000000000018E-002     2.1259518689475954E-005
   2.7400000000000008E-002     2.5685814762255177E-005
   2.8500000000000025E-002     1.8132486729882658E-005
   2.9600000000000015E-002    -1.3783129588773591E-006
   3.0700000000000005E-002    -2.6257217541569844E-005
   3.1800000000000023E-002    -4.4455500756157562E-005
   3.2900000000000013E-002    -4.3511081457836553E-005
   3.4000000000000002E-002    -1.8147484297514893E-005
   3.5100000000000020E-002     2.3686267013545148E-005
   3.6200000000000010E-002     6.1413593357428908E-005
   3.7300000000000028E-002     7.1465139626525342E-005
   3.8400000000000017E-002     4.2380866943858564E-005
   3.9500000000000007E-002    -1.3968169696454424E-005
   4.0600000000000025E-002    -6.4977328293025494E-005
   4.1700000000000015E-002    -7.6332289609126747E-005
   4.2800000000000005E-002    -3.7749308830825612E-005
   4.3900000000000022E-002     2.3170730855781585E-005
   4.5000000000000012E-002     5.4274794820230454E-005
   4.6100000000000002E-002     1.7414608009858057E-005
   4.7200000000000020E-002    -7.1625836426392198E-005
   4.8300000000000010E-002    -1.3564516848418862E-004
   4.9400000000000027E-002    -8.0252815678250045E-005
   5.0500000000000017E-002     1.2684293324127793E-004
   5.1600000000000007E-002     3.9390879101119936E-004
   5.2700000000000025E-002     5.1979772979393601E-004
   5.3800000000000014E-002     3.0624939245171845E-004
   5.4900000000000004E-002    -2.7996278367936611E-004
   5.6000000000000022E-002    -1.0005919029936194E-003
   5.7100000000000012E-002    -1.3993837637826800E-003
   5.8200000000000002E-002    -1.0398685699328780E-003
   5.9300000000000019E-002     1.7424547695554793E-004
   6.0400000000000009E-002     1.7942098202183843E-003
   6.1500000000000027E-002     2.9229070059955120E-003
   6.2600000000000017E-002     2.6520623359829187E-003
   6.3700000000000007E-002     6.5750133944675326E-004
   6.4800000000000024E-002    -2.3957404773682356E-003
   6.5900000000000014E-002    -4.9663828685879707E-003
   6.7000000000000004E-002    -5.3493282757699490E-003
   6.8100000000000022E-002    -2.6980573311448097E-003
   6.9200000000000012E-002     2.2143062669783831E-003
   7.0300000000000029E-002     7.0491954684257507E-003
   7.1400000000000019E-002     8.9444350451231003E-003
   7.2500000000000009E-002     6.1296247877180576E-003
   7.3600000000000027E-002    -7.5887737330049276E-004
   7.4700000000000016E-002    -8.5453772917389870E-003
   7.5800000000000006E-002    -1.2898172251880169E-002
   7.6900000000000024E-002    -1.0688396170735359E-002
   7.8000000000000014E-002    -2.0718961022794247E-003
   7.9100000000000004E-002     9.0271728113293648E-003
   8.0200000000000021E-002     1.6611777245998383E-002
   8.1300000000000011E-002     1.5831157565116882E-002
   8.2400000000000029E-002     6.0212961398065090E-003
   8.3500000000000019E-002    -8.3070574328303337E-003
   8.4600000000000009E-002    -1.9445177167654037E-002
   8.5700000000000026E-002    -2.0658601075410843E-002
   8.6800000000000016E-002    -1.0317288339138031E-002
   8.7900000000000006E-002     6.5530100837349892E-003
   8.9000000000000024E-002     2.0592771470546722E-002
   9.0100000000000013E-002     2.3360708728432655E-002
   9.1200000000000003E-002     1.2604537419974804E-002
   9.2300000000000021E-002    -5.7631614618003368E-003
   9.3400000000000011E-002    -2.0641114562749863E-002
   9.4500000000000028E-002    -2.2367322817444801E-002
   9.5600000000000018E-002    -9.1607384383678436E-003
   9.6700000000000008E-002     1.0866243392229080E-002
   9.7800000000000026E-002     2.4052552878856659E-002
   9.8900000000000016E-002     1.9891025498509407E-002
  0.10000000000000001         -1.1111968196928501E-003
  0.10110000000000002         -2.5862159207463264E-002
  0.10220000000000001         -3.5524617880582809E-002
  0.10330000000000003         -1.7616095021367073E-002
  0.10440000000000002          2.3812560364603996E-002
  0.10550000000000001          6.7047342658042908E-002
  0.10660000000000003          8.3000905811786652E-002
  0.10770000000000002          5.2215881645679474E-002
  0.10880000000000001         -2.1253734827041626E-002
  0.10990000000000003        -0.10846331715583801
  0.11100000000000002        -0.16948565840721130
  0.11210000000000001        -0.17603275179862976
  0.11320000000000002        -0.12974606454372406
  0.11430000000000001         -6.4122632145881653E-002
  0.11540000000000003         -2.6933988556265831E-002
  0.11650000000000002         -5.2079249173402786E-002
  0.11760000000000001        -0.13771346211433411
  0.11870000000000003        -0.24551662802696228
  0.11980000000000002        -0.32407900691032410
  0.12090000000000001        -0.34404191374778748
  0.12200000000000003        -0.32331091165542603
  0.12310000000000001        -0.32424286007881165
  0.12420000000000003        -0.42059129476547241
  0.12530000000000002        -0.65143585205078125
  0.12640000000000001        -0.99027127027511597
  0.12750000000000003         -1.3517169952392578
  0.12860000000000002         -1.6374219655990601
  0.12970000000000001         -1.7981190681457520
  0.13080000000000003         -1.8755210638046265
  0.13190000000000002         -1.9956486225128174
  0.13300000000000001         -2.3115262985229492
  0.13410000000000000         -2.9239065647125244
  0.13520000000000004         -3.8250718116760254
  0.13630000000000003         -4.9012498855590820
  0.13740000000000002         -5.9975857734680176
  0.13850000000000001         -7.0121936798095703
  0.13960000000000000         -7.9664359092712402
  0.14070000000000005         -9.0083761215209961
  0.14180000000000004         -10.343806266784668
  0.14290000000000003         -12.131769180297852
  0.14400000000000002         -14.404256820678711
  0.14510000000000001         -17.059068679809570
  0.14620000000000000         -19.932439804077148
  0.14730000000000004         -22.911554336547852
  0.14840000000000003         -26.020082473754883
  0.14950000000000002         -29.425111770629883
  0.15060000000000001         -33.357215881347656
  0.15170000000000000         -37.990699768066406
  0.15280000000000005         -43.352447509765625
  0.15390000000000004         -49.316650390625000
  0.15500000000000003         -55.690067291259766
  0.15610000000000002         -62.337371826171875
  0.15720000000000001         -69.270927429199219
  0.15830000000000000         -76.648262023925781
  0.15940000000000004         -84.676528930664062
  0.16050000000000003         -93.478324890136719
  0.16160000000000002         -103.00054168701172
  0.16270000000000001         -113.02454376220703
  0.16380000000000000         -123.27072906494141
  0.16490000000000005         -133.53598022460938
  0.16600000000000004         -143.77822875976562
  0.16710000000000003         -154.09320068359375
  0.16820000000000002         -164.58726501464844
  0.16930000000000001         -175.22944641113281
  0.17040000000000000         -185.76631164550781
  0.17150000000000004         -195.76049804687500
  0.17260000000000003         -204.73884582519531
  0.17370000000000002         -212.35086059570312
  0.17480000000000001         -218.46444702148438
  0.17590000000000000         -223.10935974121094
  0.17700000000000005         -226.31993103027344
  0.17810000000000004         -227.95347595214844
  0.17920000000000003         -227.60520935058594
  0.18030000000000002         -224.67771911621094
  0.18140000000000001         -218.55357360839844
  0.18250000000000000         -208.81019592285156
  0.18360000000000004         -195.31887817382812
  0.18470000000000003         -178.18952941894531
  0.18580000000000002         -157.59999084472656
  0.18690000000000001         -133.59213256835938
  0.18800000000000000         -105.97775268554688
  0.18910000000000005         -74.384407043457031
  0.19020000000000004         -38.454200744628906
  0.19130000000000003          1.9590443372726440
  0.19240000000000002          46.665031433105469
  0.19350000000000001          95.177223205566406
  0.19460000000000005          146.86894226074219
  0.19570000000000004          201.15264892578125
  0.19680000000000003          257.58688354492188
  0.19790000000000002          315.84149169921875
  0.19900000000000001          375.56106567382812
  0.20010000000000000          436.21832275390625
  0.20120000000000005          497.03649902343750
  0.20230000000000004          557.03234863281250
  0.20340000000000003          615.15313720703125
  0.20450000000000002          670.41296386718750
  0.20560000000000000          721.96118164062500
  0.20670000000000005          769.05053710937500
  0.20780000000000004          810.93579101562500
  0.20890000000000003          846.79095458984375
