 -0.12000000000000000          0.0000000000000000
 -0.11889999999999999          0.0000000000000000
 -0.11780000000000000          0.0000000000000000
 -0.11670000000000000          0.0000000000000000
 -0.11559999999999999          0.0000000000000000
 -0.11449999999999999          0.0000000000000000
 -0.11340000000000000          0.0000000000000000
 -0.11230000000000000          0.0000000000000000
 -0.11119999999999999          0.0000000000000000
 -0.11009999999999999          0.0000000000000000
 -0.10900000000000000          0.0000000000000000
 -0.10790000000000000         -8.1259692867225519E-026
 -0.10679999999999999          2.3069776490745793E-026
 -0.10569999999999999          5.1952588503600986E-024
 -0.10460000000000000          2.7308408163706481E-023
 -0.10349999999999999          2.9425493107709835E-023
 -0.10239999999999999         -2.3812416445482143E-022
 -0.10130000000000000         -1.1188096402468115E-021
 -0.10020000000000000         -1.5160631294254030E-021
  -9.9099999999999994E-002     3.6940226140838141E-021
  -9.7999999999999990E-002     2.0067034922257058E-020
  -9.6899999999999986E-002     3.2260085894833561E-020
  -9.5799999999999996E-002    -2.1379954731311976E-020
  -9.4699999999999993E-002    -2.0264252551748172E-019
  -9.3599999999999989E-002    -3.7939047215172062E-019
  -9.2499999999999999E-002    -4.6062773793888569E-020
  -9.1399999999999995E-002     1.2874384844358285E-018
  -9.0299999999999991E-002     2.7888832757949981E-018
  -8.9200000000000002E-002     1.3579659714136310E-018
  -8.8099999999999984E-002    -5.7960636511458030E-018
  -8.6999999999999994E-002    -1.4051370004997485E-017
  -8.5899999999999990E-002    -7.7273169688590839E-018
  -8.4799999999999986E-002     2.4877010245001529E-017
  -8.3699999999999997E-002     5.7539993663278889E-017
  -8.2599999999999993E-002     1.6255141284238811E-017
  -8.1499999999999989E-002    -1.4009993769013092E-016
  -8.0399999999999999E-002    -2.6517433145913820E-016
  -7.9299999999999995E-002    -3.6861583462751568E-018
  -7.8199999999999992E-002     8.1802101001965648E-016
  -7.7100000000000002E-002     1.4977608209056146E-015
  -7.5999999999999984E-002     3.5540851310212240E-016
  -7.4899999999999994E-002    -3.6268714133326149E-015
  -7.3799999999999991E-002    -7.8202892837657412E-015
  -7.2699999999999987E-002    -5.0687006370277784E-015
  -7.1599999999999997E-002     1.0523793987670445E-014
  -7.0499999999999993E-002     3.1910831263656445E-014
  -6.9399999999999989E-002     3.3217803101269830E-014
  -6.8300000000000000E-002    -1.3509968832666960E-014
  -6.7199999999999996E-002    -9.7967003975275857E-014
  -6.6099999999999992E-002    -1.4240266409636104E-013
  -6.5000000000000002E-002    -4.0021886629423853E-014
  -6.3899999999999985E-002     2.2319394054302888E-013
  -6.2799999999999995E-002     4.5364469017199205E-013
  -6.1699999999999991E-002     3.1300380039581133E-013
  -6.0599999999999994E-002    -3.5817797837921217E-013
  -5.9499999999999990E-002    -1.1613877177671372E-012
  -5.8399999999999994E-002    -1.1744124553056401E-012
  -5.7299999999999990E-002     2.8393045835468922E-013
  -5.6199999999999986E-002     2.5583252964006542E-012
  -5.5099999999999996E-002     3.4093851873640002E-012
  -5.3999999999999992E-002     6.3126782447187058E-013
  -5.2899999999999989E-002    -5.0892554059878137E-012
  -5.1799999999999985E-002    -8.8036800072188726E-012
  -5.0699999999999995E-002    -4.3202338408099283E-012
  -4.9599999999999991E-002     8.9411004641770653E-012
  -4.8499999999999988E-002     2.1085888243788098E-011
  -4.7399999999999998E-002     1.6393003274273177E-011
  -4.6299999999999994E-002    -1.1567936712697513E-011
  -4.5199999999999990E-002    -4.5663150344266157E-011
  -4.4099999999999986E-002    -4.9689918846240744E-011
  -4.2999999999999997E-002     1.3411381380445953E-012
  -4.1899999999999993E-002     8.4548465451028676E-011
  -4.0799999999999989E-002     1.2539611016215702E-010
  -3.9699999999999985E-002     5.1493750236053515E-011
  -3.8599999999999995E-002    -1.2367971924387433E-010
  -3.7499999999999992E-002    -2.6567029132174014E-010
  -3.6399999999999988E-002    -2.0033671943586739E-010
  -3.5299999999999984E-002     1.1524374510241131E-010
  -3.4199999999999994E-002     4.7480991360870917E-010
  -3.3099999999999991E-002     5.1702181425028471E-010
  -3.1999999999999987E-002     3.7538305797113480E-011
  -3.0899999999999997E-002    -7.1280853441990644E-010
  -2.9799999999999993E-002    -1.0751369794448351E-009
  -2.8699999999999989E-002    -4.9000142832156257E-010
  -2.7599999999999986E-002     8.6430901324874299E-010
  -2.6499999999999996E-002     1.9252679450687538E-009
  -2.5399999999999992E-002     1.4679879534185147E-009
  -2.4299999999999988E-002    -6.8711714096281185E-010
  -2.3199999999999985E-002    -3.0433853215328099E-009
  -2.2099999999999995E-002    -3.2766669377792823E-009
  -2.0999999999999991E-002    -2.8800725693223228E-010
  -1.9899999999999987E-002     4.1825130026040824E-009
  -1.8799999999999983E-002     6.2166654046791336E-009
  -1.7699999999999994E-002     2.8505802163181215E-009
  -1.6599999999999990E-002    -4.5868580045294038E-009
  -1.5499999999999986E-002    -1.0239537218126316E-008
  -1.4399999999999996E-002    -7.9402395769534451E-009
  -1.3299999999999992E-002     2.8000592955379489E-009
  -1.2199999999999989E-002     1.4403610748559004E-008
  -1.1099999999999985E-002     1.6000507585545165E-008
  -9.9999999999999950E-003     2.9568505421906366E-009
  -8.8999999999999913E-003    -1.6720763440503106E-008
  -7.7999999999999875E-003    -2.6323098367697639E-008
  -6.6999999999999837E-003    -1.3947409449599490E-008
  -5.5999999999999939E-003     1.4768395395492462E-008
  -4.4999999999999901E-003     3.7206596914529655E-008
  -3.3999999999999864E-003     3.0709792042671324E-008
  -2.2999999999999826E-003    -5.9958233933343763E-009
  -1.1999999999999927E-003    -4.6194269742727556E-008
  -9.9999999999988987E-005    -5.3384965781333449E-008
   1.0000000000000148E-003    -1.3087603889516686E-008
   2.1000000000000185E-003     4.8552994513784142E-008
   3.2000000000000084E-003     7.9867369606745342E-008
   4.3000000000000121E-003     4.5804942061522524E-008
   5.4000000000000159E-003    -3.6361686994723641E-008
   6.5000000000000058E-003    -1.0224497515309849E-007
   7.6000000000000234E-003    -8.9816794002217648E-008
   8.7000000000000133E-003     3.8888039455287071E-009
   9.8000000000000032E-003     1.0951098516898128E-007
   1.0900000000000021E-002     1.3538264909129794E-007
   1.2000000000000011E-002     4.6126956476655323E-008
   1.3100000000000001E-002    -9.6746362032718025E-008
   1.4200000000000018E-002    -1.7488588355263346E-007
   1.5300000000000008E-002    -1.0990429188950657E-007
   1.6400000000000026E-002     6.1585744504100148E-008
   1.7500000000000016E-002     2.0455830451737711E-007
   1.8600000000000005E-002     1.9095006109637325E-007
   1.9700000000000023E-002     1.1765982854683443E-008
   2.0800000000000013E-002    -2.0153092350483348E-007
   2.1900000000000003E-002    -2.7449596018414013E-007
   2.3000000000000020E-002    -1.3318579306087486E-007
   2.4100000000000010E-002     1.2553948636195855E-007
   2.5200000000000000E-002     3.0234409109652916E-007
   2.6300000000000018E-002     2.5357235244882759E-007
   2.7400000000000008E-002     1.1183159287497801E-008
   2.8500000000000025E-002    -2.3734213527859538E-007
   2.9600000000000015E-002    -2.9707837256864877E-007
   3.0700000000000005E-002    -1.2263497239928256E-007
   3.1800000000000023E-002     1.4428007943934062E-007
   3.2900000000000013E-002     2.8765910542460915E-007
   3.4000000000000002E-002     1.8895642028837756E-007
   3.5100000000000020E-002    -7.9326831325943203E-008
   3.6200000000000010E-002    -3.0951568419368414E-007
   3.7300000000000028E-002    -3.1636727726436220E-007
   3.8400000000000017E-002    -7.4363462942983460E-008
   3.9500000000000007E-002     2.6341757575210067E-007
   4.0600000000000025E-002     4.7013190851430409E-007
   4.1700000000000015E-002     3.9486349123762920E-007
   4.2800000000000005E-002     5.9612901281980157E-008
   4.3900000000000022E-002    -3.4990995345651754E-007
   4.5000000000000012E-002    -5.8907397715302068E-007
   4.6100000000000002E-002    -4.9762877551984275E-007
   4.7200000000000020E-002    -1.0641613101824987E-007
   4.8300000000000010E-002     3.5840955092680815E-007
   4.9400000000000027E-002     5.9771844007627806E-007
   5.0500000000000017E-002     4.3743307287513744E-007
   5.1600000000000007E-002    -2.2497742335758630E-008
   5.2700000000000025E-002    -4.3850181441484892E-007
   5.3800000000000014E-002    -4.5771972168040520E-007
   5.4900000000000004E-002    -1.2438797547531522E-008
   5.6000000000000022E-002     5.6452023500241921E-007
   5.7100000000000012E-002     7.4820763984462246E-007
   5.8200000000000002E-002     2.4466439185744093E-007
   5.9300000000000019E-002    -6.9881087938483688E-007
   6.0400000000000009E-002    -1.3937334415459190E-006
   6.1500000000000027E-002    -1.2115262961742701E-006
   6.2600000000000017E-002    -1.1924326770440530E-007
   6.3700000000000007E-002     1.2065406735928264E-006
   6.4800000000000024E-002     1.8417649698676541E-006
   6.5900000000000014E-002     1.3273902368382551E-006
   6.7000000000000004E-002     5.6306969753450176E-008
   6.8100000000000022E-002    -1.0146609383809846E-006
   6.9200000000000012E-002    -1.1269587503193179E-006
   7.0300000000000029E-002    -3.3955942058128130E-007
   7.1400000000000019E-002     5.2137522743578302E-007
   7.2500000000000009E-002     5.6189395536421216E-007
   7.3600000000000027E-002    -4.0222400343736808E-007
   7.4700000000000016E-002    -1.6412190007031313E-006
   7.5800000000000006E-002    -2.0648390091082547E-006
   7.6900000000000024E-002    -1.0953706350846915E-006
   7.8000000000000014E-002     8.3449117482814472E-007
   7.9100000000000004E-002     2.5425492822250817E-006
   8.0200000000000021E-002     2.9007255761825945E-006
   8.1300000000000011E-002     1.5748807982163271E-006
   8.2400000000000029E-002    -8.0275867730961181E-007
   8.3500000000000019E-002    -3.0771402634854894E-006
   8.4600000000000009E-002    -4.2654082790249959E-006
   8.5700000000000026E-002    -4.0535946936870459E-006
   8.6800000000000016E-002    -2.8611173092940589E-006
   8.7900000000000006E-002    -1.5227778931148350E-006
   8.9000000000000024E-002    -8.0261418133886764E-007
   9.0100000000000013E-002    -9.8544524007593282E-007
   9.1200000000000003E-002    -1.7560024616614101E-006
   9.2300000000000021E-002    -2.4748194391577272E-006
   9.3400000000000011E-002    -2.7470218810776714E-006
   9.4500000000000028E-002    -2.9146972337912302E-006
   9.5600000000000018E-002    -4.0147078834706917E-006
   9.6700000000000008E-002    -7.0461273935507052E-006
   9.7800000000000026E-002    -1.1980058843619190E-005
   9.8900000000000016E-002    -1.7344600564683788E-005
  0.10000000000000001         -2.0956516891601495E-005
  0.10110000000000002         -2.1484647731995210E-005
  0.10220000000000001         -1.9697285097208805E-005
  0.10330000000000003         -1.8270058717462234E-005
  0.10440000000000002         -2.0077988665434532E-005
  0.10550000000000001         -2.6186991817667149E-005
  0.10660000000000003         -3.5161916457582265E-005
  0.10770000000000002         -4.4336327846394852E-005
  0.10880000000000001         -5.2062423492316157E-005
  0.10990000000000003         -5.9071215218864381E-005
  0.11100000000000002         -6.7765504354611039E-005
  0.11210000000000001         -8.0026627983897924E-005
  0.11320000000000002         -9.5415161922574043E-005
  0.11430000000000001         -1.1135614477097988E-004
  0.11540000000000003         -1.2521122698672116E-004
  0.11650000000000002         -1.3653647329192609E-004
  0.11760000000000001         -1.4767561515327543E-004
  0.11870000000000003         -1.6224176215473562E-004
  0.11980000000000002         -1.8274570174980909E-004
  0.12090000000000001         -2.0917106303386390E-004
  0.12200000000000003         -2.3939878155943006E-004
  0.12310000000000001         -2.7083934401161969E-004
  0.12420000000000003         -3.0193064594641328E-004
  0.12530000000000002         -3.3255599555559456E-004
  0.12640000000000001         -3.6347759305499494E-004
  0.12750000000000003         -3.9550775545649230E-004
  0.12860000000000002         -4.2893344652839005E-004
  0.12970000000000001         -4.6335012302733958E-004
  0.13080000000000003         -4.9780908739194274E-004
  0.13190000000000002         -5.3127692081034184E-004
  0.13300000000000001         -5.6337396381422877E-004
  0.13410000000000000         -5.9491535648703575E-004
  0.13520000000000004         -6.2754814280197024E-004
  0.13630000000000003         -6.6227791830897331E-004
  0.13740000000000002         -6.9768395042046905E-004
  0.13850000000000001         -7.2953366907313466E-004
  0.13960000000000000         -7.5260904850438237E-004
  0.14070000000000005         -7.6383678242564201E-004
  0.14180000000000004         -7.6417112722992897E-004
  0.14290000000000003         -7.5750611722469330E-004
  0.14400000000000002         -7.4700039112940431E-004
  0.14510000000000001         -7.3187699308618903E-004
  0.14620000000000000         -7.0748192956671119E-004
  0.14730000000000004         -6.6872366005554795E-004
  0.14840000000000003         -6.1402039136737585E-004
  0.14950000000000002         -5.4609728977084160E-004
  0.15060000000000001         -4.6889824443496764E-004
  0.15170000000000000         -3.8350193062797189E-004
  0.15280000000000005         -2.8630366432480514E-004
  0.15390000000000004         -1.7164529708679765E-004
  0.15500000000000003         -3.6343943065730855E-005
  0.15610000000000002          1.1753290164051577E-004
  0.15720000000000001          2.8433607076294720E-004
  0.15830000000000000          4.5875192154198885E-004
  0.15940000000000004          6.3887704163789749E-004
  0.16050000000000003          8.2566135097295046E-004
  0.16160000000000002          1.0201799450442195E-003
  0.16270000000000001          1.2215513270348310E-003
  0.16380000000000000          1.4268548693507910E-003
  0.16490000000000005          1.6330658691003919E-003
  0.16600000000000004          1.8378451932221651E-003
  0.16710000000000003          2.0388450939208269E-003
  0.16820000000000002          2.2325073368847370E-003
  0.16930000000000001          2.4137510918080807E-003
  0.17040000000000000          2.5783807504922152E-003
  0.17150000000000004          2.7242715004831553E-003
  0.17260000000000003          2.8506307862699032E-003
  0.17370000000000002          2.9552932828664780E-003
  0.17480000000000001          3.0333118047565222E-003
  0.17590000000000000          3.0789484735578299E-003
  0.17700000000000005          3.0894128140062094E-003
  0.17810000000000004          3.0668273102492094E-003
  0.17920000000000003          3.0156520660966635E-003
  0.18030000000000002          2.9372319113463163E-003
  0.18140000000000001          2.8269779868423939E-003
  0.18250000000000000          2.6774583384394646E-003
  0.18360000000000004          2.4851229973137379E-003
  0.18470000000000003          2.2545561660081148E-003
  0.18580000000000002          1.9958494231104851E-003
  0.18690000000000001          1.7169214552268386E-003
  0.18800000000000000          1.4180988073348999E-003
  0.18910000000000005          1.0944325476884842E-003
  0.19020000000000004          7.4357265839353204E-004
  0.19130000000000003          3.7188400165177882E-004
  0.19240000000000002         -7.3423020694463048E-006
  0.19350000000000001         -3.8213247898966074E-004
  0.19460000000000005         -7.4875570135191083E-004
  0.19570000000000004         -1.1105485027655959E-003
  0.19680000000000003         -1.4699288876727223E-003
  0.19790000000000002         -1.8219217890873551E-003
  0.19900000000000001         -2.1550408564507961E-003
  0.20010000000000000         -2.4588990490883589E-003
  0.20120000000000005         -2.7306880801916122E-003
  0.20230000000000004         -2.9738047160208225E-003
  0.20340000000000003         -3.1897609587758780E-003
  0.20450000000000002         -3.3731663133949041E-003
  0.20560000000000000         -3.5141573753207922E-003
  0.20670000000000005         -3.6073599476367235E-003
  0.20780000000000004         -3.6567423958331347E-003
  0.20890000000000003         -3.6719806957989931E-003
