 -0.12000000000000000          0.0000000000000000
 -0.11889999999999999          0.0000000000000000
 -0.11780000000000000          0.0000000000000000
 -0.11670000000000000          0.0000000000000000
 -0.11559999999999999          0.0000000000000000
 -0.11449999999999999          0.0000000000000000
 -0.11340000000000000          0.0000000000000000
 -0.11230000000000000          0.0000000000000000
 -0.11119999999999999          0.0000000000000000
 -0.11009999999999999          0.0000000000000000
 -0.10900000000000000         -3.9687082251716327E-028
 -0.10790000000000000         -3.2989743203614837E-027
 -0.10679999999999999         -6.5014397134307398E-028
 -0.10569999999999999          8.7137064063719735E-026
 -0.10460000000000000          3.5358639038178280E-025
 -0.10349999999999999         -4.6205570778497269E-026
 -0.10239999999999999         -4.3766464505291289E-024
 -0.10130000000000000         -1.2563237060064264E-023
 -0.10020000000000000          3.5034649920099484E-024
  -9.9099999999999994E-002     1.1023087905677012E-022
  -9.7999999999999990E-002     2.6909264740503822E-022
  -9.6899999999999986E-002    -2.6795859990035422E-023
  -9.5799999999999996E-002    -1.7022207725153155E-021
  -9.4699999999999993E-002    -4.0935011706425593E-021
  -9.3599999999999989E-002    -1.0931725948384404E-021
  -9.2499999999999999E-002     1.7431482394298258E-020
  -9.1399999999999995E-002     4.6037441387629132E-020
  -9.0299999999999991E-002     3.0536238267098783E-020
  -8.9200000000000002E-002    -1.2057465407303978E-019
  -8.8099999999999984E-002    -3.8954031430987012E-019
  -8.6999999999999994E-002    -4.0610587269655747E-019
  -8.5899999999999990E-002     5.1569908375249640E-019
  -8.4799999999999986E-002     2.5018168616533703E-018
  -8.3699999999999997E-002     3.5790355618173958E-018
  -8.2599999999999993E-002    -5.1236492549844828E-019
  -8.1499999999999989E-002    -1.2074784708174460E-017
  -8.0399999999999999E-002    -2.3071026813614503E-017
  -7.9299999999999995E-002    -1.1661535200310318E-017
  -7.8199999999999992E-002     4.1250223289876158E-017
  -7.7100000000000002E-002     1.1295224056305498E-016
  -7.5999999999999984E-002     1.1158418970901067E-016
  -7.4899999999999994E-002    -7.4253819832068154E-017
  -7.3799999999999991E-002    -4.2074130252436946E-016
  -7.2699999999999987E-002    -6.1614272432153317E-016
  -7.1599999999999997E-002    -1.5703133221235633E-016
  -7.0499999999999993E-002     1.1358383597413107E-015
  -6.9399999999999989E-002     2.4469585412138740E-015
  -6.8300000000000000E-002     1.9531798375790324E-015
  -6.7199999999999996E-002    -1.7585166314651804E-015
  -6.6099999999999992E-002    -7.2803845539552194E-015
  -6.5000000000000002E-002    -9.2851158754953325E-015
  -6.3899999999999985E-002    -1.5839322354868732E-015
  -6.2799999999999995E-002     1.5659416580278418E-014
  -6.1699999999999991E-002     3.0111950124122808E-014
  -6.0599999999999994E-002     2.1666091433425981E-014
  -5.9499999999999990E-002    -1.9531497255577575E-014
  -5.8399999999999994E-002    -7.2421581264522222E-014
  -5.7299999999999990E-002    -8.5134156668775773E-014
  -5.6199999999999986E-002    -1.2203169789774815E-014
  -5.5099999999999996E-002     1.2749721525935620E-013
  -5.3999999999999992E-002     2.2573521556764481E-013
  -5.2899999999999989E-002     1.4586982067122528E-013
  -5.1799999999999985E-002    -1.4172502418603045E-013
  -5.0699999999999995E-002    -4.5626913705576477E-013
  -4.9599999999999991E-002    -4.7463519659701747E-013
  -4.8499999999999988E-002    -1.9373521799266385E-015
  -4.7399999999999998E-002     7.3656629840518351E-013
  -4.6299999999999994E-002     1.0976024776565563E-012
  -4.5199999999999990E-002     4.8603422718798694E-013
  -4.4099999999999986E-002    -9.6749756643699225E-013
  -4.2999999999999997E-002    -2.1488492409071913E-012
  -4.1899999999999993E-002    -1.6377917902085648E-012
  -4.0799999999999989E-002     9.1609022884880931E-013
  -3.9699999999999985E-002     3.8474570751567683E-012
  -3.8599999999999995E-002     4.2081832810070274E-012
  -3.7499999999999992E-002     2.5090213652372018E-013
  -3.6399999999999988E-002    -6.1087588980324181E-012
  -3.5299999999999984E-002    -9.4686628329676559E-012
  -3.4199999999999994E-002    -4.8391919811596740E-012
  -3.3099999999999991E-002     7.0412928959706633E-012
  -3.1999999999999987E-002     1.7797071108494045E-011
  -3.0899999999999997E-002     1.6363939717156661E-011
  -2.9799999999999993E-002    -1.2523252834045762E-012
  -2.8699999999999989E-002    -2.5152302116082659E-011
  -2.7599999999999986E-002    -3.5563382100312069E-011
  -2.6499999999999996E-002    -1.7925107578808941E-011
  -2.5399999999999992E-002     2.1526671070692949E-011
  -2.4299999999999988E-002     5.4506128777109808E-011
  -2.3199999999999985E-002     4.9800108481434791E-011
  -2.2099999999999995E-002     1.1814726714326484E-012
  -2.0999999999999991E-002    -5.9603197377633421E-011
  -1.9899999999999987E-002    -8.1535299345514289E-011
  -1.8799999999999983E-002    -3.6277054277222831E-011
  -1.7699999999999994E-002     4.9637457338880253E-011
  -1.6599999999999990E-002     1.0547075712796783E-010
  -1.5499999999999986E-002     7.1427634640297555E-011
  -1.4399999999999996E-002    -4.1824949753577201E-011
  -1.3299999999999992E-002    -1.4434103912108753E-010
  -1.2199999999999989E-002    -1.3073071791769308E-010
  -1.1099999999999985E-002     2.3887414615786362E-011
  -9.9999999999999950E-003     2.1695600871396437E-010
  -8.8999999999999913E-003     2.7706076322076001E-010
  -7.7999999999999875E-003     1.0164373509535807E-010
  -6.6999999999999837E-003    -2.3106716540155503E-010
  -5.5999999999999939E-003    -4.8239817695971965E-010
  -4.4999999999999901E-003    -4.1870706901647736E-010
  -3.3999999999999864E-003    -1.0022159317724100E-011
  -2.2999999999999826E-003     5.0164922216211494E-010
  -1.1999999999999927E-003     7.4693218277133155E-010
  -9.9999999999988987E-005     5.0284204577977221E-010
   1.0000000000000148E-003    -1.1045962755584782E-010
   2.1000000000000185E-003    -6.8262329122603660E-010
   3.2000000000000084E-003    -8.0480194730725430E-010
   4.3000000000000121E-003    -3.8986802675111676E-010
   5.4000000000000159E-003     2.3796536963160975E-010
   6.5000000000000058E-003     5.8200239072547788E-010
   7.6000000000000234E-003     3.7633363092481886E-010
   8.7000000000000133E-003    -1.6674830960461406E-010
   9.8000000000000032E-003    -4.9362081089299181E-010
   1.0900000000000021E-002    -1.6557695492469549E-010
   1.2000000000000011E-002     7.0805772356408170E-010
   1.3100000000000001E-002     1.4348059407254254E-009
   1.4200000000000018E-002     1.2058161136252465E-009
   1.5300000000000008E-002    -2.2787707831817272E-010
   1.6400000000000026E-002    -2.1841839448200062E-009
   1.7500000000000016E-002    -3.3457525638880270E-009
   1.8600000000000005E-002    -2.6220645654717600E-009
   1.9700000000000023E-002    -1.8217299196932046E-011
   2.0800000000000013E-002     3.1500018149444031E-009
   2.1900000000000003E-002     4.9659116818645543E-009
   2.3000000000000020E-002     4.1613850143562559E-009
   2.4100000000000010E-002     1.0582031917394374E-009
   2.5200000000000000E-002    -2.5310058493488441E-009
   2.6300000000000018E-002    -4.4823642575408940E-009
   2.7400000000000008E-002    -3.8421221759676882E-009
   2.8500000000000025E-002    -1.5080101611886221E-009
   2.9600000000000015E-002     4.8816606312840349E-010
   3.0700000000000005E-002     6.4518912434863296E-010
   3.1800000000000023E-002    -6.7516525703581465E-010
   3.2900000000000013E-002    -1.4186033459040459E-009
   3.4000000000000002E-002     4.2115394505159998E-010
   3.5100000000000020E-002     4.7590820173581960E-009
   3.6200000000000010E-002     8.8194758163240294E-009
   3.7300000000000028E-002     8.8040579271364550E-009
   3.8400000000000017E-002     2.8712747734971344E-009
   3.9500000000000007E-002    -6.8091381422163977E-009
   4.0600000000000025E-002    -1.4790469293757269E-008
   4.1700000000000015E-002    -1.5769531458431629E-008
   4.2800000000000005E-002    -8.4202840255898082E-009
   4.3900000000000022E-002     3.2591518372981909E-009
   4.5000000000000012E-002     1.2371886626283413E-008
   4.6100000000000002E-002     1.3803574283599573E-008
   4.7200000000000020E-002     7.7792376984575640E-009
   4.8300000000000010E-002    -4.4203862792357995E-010
   4.9400000000000027E-002    -4.6365631334310820E-009
   5.0500000000000017E-002    -2.4182515989679132E-009
   5.1600000000000007E-002     2.9696101133680486E-009
   5.2700000000000025E-002     5.4075770528072553E-009
   5.3800000000000014E-002     1.1819850653793651E-009
   5.4900000000000004E-002    -7.3808781309026017E-009
   5.6000000000000022E-002    -1.3082385841300948E-008
   5.7100000000000012E-002    -9.3729521921659398E-009
   5.8200000000000002E-002     3.7526164398116180E-009
   5.9300000000000019E-002     1.8174752369759517E-008
   6.0400000000000009E-002     2.2205648875228690E-008
   6.1500000000000027E-002     8.5821056927670725E-009
   6.2600000000000017E-002    -1.9688242147708479E-008
   6.3700000000000007E-002    -5.0160881670535673E-008
   6.4800000000000024E-002    -6.8492532534492057E-008
   6.5900000000000014E-002    -6.7806318782004382E-008
   6.7000000000000004E-002    -5.3310930780980925E-008
   6.8100000000000022E-002    -3.8630183496479731E-008
   6.9200000000000012E-002    -3.6195036301478467E-008
   7.0300000000000029E-002    -4.8638977290238472E-008
   7.1400000000000019E-002    -6.7826157135186804E-008
   7.2500000000000009E-002    -8.2698662140501256E-008
   7.3600000000000027E-002    -9.0251759843340551E-008
   7.4700000000000016E-002    -1.0086350954452428E-007
   7.5800000000000006E-002    -1.3278143740080850E-007
   7.6900000000000024E-002    -1.9874102008543559E-007
   7.8000000000000014E-002    -2.9448267468978884E-007
   7.9100000000000004E-002    -3.9874817048257682E-007
   8.0200000000000021E-002    -4.8649218342688982E-007
   8.1300000000000011E-002    -5.4691611239832127E-007
   8.2400000000000029E-002    -5.9330659496481530E-007
   8.3500000000000019E-002    -6.5672833216012805E-007
   8.4600000000000009E-002    -7.6725632425223012E-007
   8.5700000000000026E-002    -9.3603381401408114E-007
   8.6800000000000016E-002    -1.1513798199302983E-006
   8.7900000000000006E-002    -1.3919551520302775E-006
   8.9000000000000024E-002    -1.6470677337565576E-006
   9.0100000000000013E-002    -1.9285182588646421E-006
   9.1200000000000003E-002    -2.2646422621619422E-006
   9.2300000000000021E-002    -2.6808493203134276E-006
   9.3400000000000011E-002    -3.1816373393667163E-006
   9.4500000000000028E-002    -3.7484082895389292E-006
   9.5600000000000018E-002    -4.3557092794799246E-006
   9.6700000000000008E-002    -4.9944592319661751E-006
   9.7800000000000026E-002    -5.6849430620786734E-006
   9.8900000000000016E-002    -6.4693854255892802E-006
  0.10000000000000001         -7.3886735663108993E-006
  0.10110000000000002         -8.4594948930316605E-006
  0.10220000000000001         -9.6682033472461626E-006
  0.10330000000000003         -1.0985912012984045E-005
  0.10440000000000002         -1.2393992619763594E-005
  0.10550000000000001         -1.3901370948588010E-005
  0.10660000000000003         -1.5540503227384761E-005
  0.10770000000000002         -1.7344122170470655E-005
  0.10880000000000001         -1.9319193597766571E-005
  0.10990000000000003         -2.1437386749312282E-005
  0.11100000000000002         -2.3650291041121818E-005
  0.11210000000000001         -2.5919400286511518E-005
  0.11320000000000002         -2.8238891900400631E-005
  0.11430000000000001         -3.0633054848294705E-005
  0.11540000000000003         -3.3128108043456450E-005
  0.11650000000000002         -3.5717508581001312E-005
  0.11760000000000001         -3.8346199289662763E-005
  0.11870000000000003         -4.0926526708062738E-005
  0.11980000000000002         -4.3374941014917567E-005
  0.12090000000000001         -4.5642693294212222E-005
  0.12200000000000003         -4.7717341658426449E-005
  0.12310000000000001         -4.9593068979447708E-005
  0.12420000000000003         -5.1232058467576280E-005
  0.12530000000000002         -5.2546482038451359E-005
  0.12640000000000001         -5.3415533329825848E-005
  0.12750000000000003         -5.3725289035355672E-005
  0.12860000000000002         -5.3401447075884789E-005
  0.12970000000000001         -5.2411007345654070E-005
  0.13080000000000003         -5.0732323870761320E-005
  0.13190000000000002         -4.8317357141058892E-005
  0.13300000000000001         -4.5075925299897790E-005
  0.13410000000000000         -4.0894537960411981E-005
  0.13520000000000004         -3.5676504921866581E-005
  0.13630000000000003         -2.9374943551374599E-005
  0.13740000000000002         -2.1996427676640451E-005
  0.13850000000000001         -1.3574936019722372E-005
  0.13960000000000000         -4.1372209125256632E-006
  0.14070000000000005          6.3141987993731163E-006
  0.14180000000000004          1.7788095647119917E-005
  0.14290000000000003          3.0270815841504373E-005
  0.14400000000000002          4.3695050408132374E-005
  0.14510000000000001          5.7932818890549242E-005
  0.14620000000000000          7.2817500040400773E-005
  0.14730000000000004          8.8178778241854161E-005
  0.14840000000000003          1.0386596113676205E-004
  0.14950000000000002          1.1974333028774709E-004
  0.15060000000000001          1.3565947301685810E-004
  0.15170000000000000          1.5141282347030938E-004
  0.15280000000000005          1.6674016660545021E-004
  0.15390000000000004          1.8133927369490266E-004
  0.15500000000000003          1.9491350394673645E-004
  0.15610000000000002          2.0720846077892929E-004
  0.15720000000000001          2.1801629918627441E-004
  0.15830000000000000          2.2714707301929593E-004
  0.15940000000000004          2.3439210781361908E-004
  0.16050000000000003          2.3951170442160219E-004
  0.16160000000000002          2.4226070672739297E-004
  0.16270000000000001          2.4243505322374403E-004
  0.16380000000000000          2.3990505724214017E-004
  0.16490000000000005          2.3461275850422680E-004
  0.16600000000000004          2.2653900668956339E-004
  0.16710000000000003          2.1567037038039416E-004
  0.16820000000000002          2.0199533901177347E-004
  0.16930000000000001          1.8553320842329413E-004
  0.17040000000000000          1.6637302178423852E-004
  0.17150000000000004          1.4469282177742571E-004
  0.17260000000000003          1.2074448750354350E-004
  0.17370000000000002          9.4817274657543749E-005
  0.17480000000000001          6.7207009124103934E-005
  0.17590000000000000          3.8209316699067131E-005
  0.17700000000000005          8.1353227869840339E-006
  0.17810000000000004         -2.2668164092465304E-005
  0.17920000000000003         -5.3809693781659007E-005
  0.18030000000000002         -8.4862520452588797E-005
  0.18140000000000001         -1.1538824765011668E-004
  0.18250000000000000         -1.4496143558062613E-004
  0.18360000000000004         -1.7318644677288830E-004
  0.18470000000000003         -1.9970284483861178E-004
  0.18580000000000002         -2.2417902073357254E-004
  0.18690000000000001         -2.4630216648802161E-004
  0.18800000000000000         -2.6577556855045259E-004
  0.18910000000000005         -2.8232898330315948E-004
  0.19020000000000004         -2.9573991196230054E-004
  0.19130000000000003         -3.0585422064177692E-004
  0.19240000000000002         -3.1259196111932397E-004
  0.19350000000000001         -3.1593360472470522E-004
  0.19460000000000005         -3.1589841819368303E-004
  0.19570000000000004         -3.1253302586264908E-004
  0.19680000000000003         -3.0592005350627005E-004
  0.19790000000000002         -2.9619887936860323E-004
  0.19900000000000001         -2.8357713017612696E-004
  0.20010000000000000         -2.6831938885152340E-004
  0.20120000000000005         -2.5071873096749187E-004
  0.20230000000000004         -2.3107274319045246E-004
  0.20340000000000003         -2.0968113676644862E-004
  0.20450000000000002         -1.8686214752960950E-004
  0.20560000000000000         -1.6296652029268444E-004
  0.20670000000000005         -1.3836963626090437E-004
  0.20780000000000004         -1.1344355880282819E-004
  0.20890000000000003         -8.8529493950773031E-005
