 -0.12000000000000000          0.0000000000000000
 -0.11889999999999999          0.0000000000000000
 -0.11780000000000000          0.0000000000000000
 -0.11670000000000000          0.0000000000000000
 -0.11559999999999999          0.0000000000000000
 -0.11449999999999999          0.0000000000000000
 -0.11340000000000000          0.0000000000000000
 -0.11230000000000000          0.0000000000000000
 -0.11119999999999999          0.0000000000000000
 -0.11009999999999999          0.0000000000000000
 -0.10900000000000000         -7.3358422083033852E-033
 -0.10790000000000000         -2.7653711490100058E-031
 -0.10679999999999999         -3.6601606462005653E-030
 -0.10569999999999999         -2.5500913392953275E-029
 -0.10460000000000000         -1.0932790496500699E-028
 -0.10349999999999999         -2.9648184453660013E-028
 -0.10239999999999999         -4.2286035637406974E-028
 -0.10130000000000000          2.4836609599473077E-028
 -0.10020000000000000          2.8071391904416156E-027
  -9.9099999999999994E-002     6.2034292101490309E-027
  -9.7999999999999990E-002     2.5540238475005231E-027
  -9.6899999999999986E-002    -2.1213814810866167E-026
  -9.5799999999999996E-002    -5.7308969827269760E-026
  -9.4699999999999993E-002    -2.8761671389131785E-026
  -9.3599999999999989E-002     1.9129179302746481E-025
  -9.2499999999999999E-002     5.1332012337062378E-025
  -9.1399999999999995E-002     1.6070326769326089E-025
  -9.0299999999999991E-002    -2.0823375932806322E-024
  -8.9200000000000002E-002    -5.1730614877785371E-024
  -8.8099999999999984E-002    -1.2716460471913735E-024
  -8.6999999999999994E-002     2.1626416612798681E-023
  -8.5899999999999990E-002     5.4131079958188554E-023
  -8.4799999999999986E-002     2.3672385746196362E-023
  -8.3699999999999997E-002    -1.8429444198420179E-022
  -8.2599999999999993E-002    -5.1189282589632428E-022
  -8.1499999999999989E-002    -3.7726488979999462E-022
  -8.0399999999999999E-002     1.2071458047860300E-021
  -7.9299999999999995E-002     4.0828811086179161E-021
  -7.8199999999999992E-002     4.3039180662382200E-021
  -7.7100000000000002E-002    -5.5730360769190417E-021
  -7.5999999999999984E-002    -2.6873057615297763E-020
  -7.4899999999999994E-002    -3.7227331322608634E-020
  -7.3799999999999991E-002     1.1874568665285114E-020
  -7.2699999999999987E-002     1.4425157465872501E-019
  -7.1599999999999997E-002     2.5576918263567733E-019
  -7.0499999999999993E-002     7.3823892191705835E-020
  -6.9399999999999989E-002    -6.1541534470424589E-019
  -6.8300000000000000E-002    -1.4321249880756945E-018
  -6.7199999999999996E-002    -1.0587335916177264E-018
  -6.6099999999999992E-002     1.9227002701794826E-018
  -6.5000000000000002E-002     6.5939467671731213E-018
  -6.3899999999999985E-002     7.5164074193539883E-018
  -6.2799999999999995E-002    -2.9079025718224968E-018
  -6.1699999999999991E-002    -2.4728736465840173E-017
  -6.0599999999999994E-002    -3.9123664357732982E-017
  -5.9499999999999990E-002    -1.2063002347529255E-017
  -5.8399999999999994E-002     7.2249581060186870E-017
  -5.7299999999999990E-002     1.6173341062591197E-016
  -5.6199999999999986E-002     1.2748988027167033E-016
  -5.5099999999999996E-002    -1.3905259468574078E-016
  -5.3999999999999992E-002    -5.3941673295378493E-016
  -5.2899999999999989E-002    -6.6225895667876072E-016
  -5.1799999999999985E-002    -6.9734336575649926E-018
  -5.0699999999999995E-002     1.4122847144949335E-015
  -4.9599999999999991E-002     2.5169334152942095E-015
  -4.8499999999999988E-002     1.4893493602229058E-015
  -4.7399999999999998E-002    -2.5632510826742059E-015
  -4.6299999999999994E-002    -7.4918937630823017E-015
  -4.5199999999999990E-002    -7.8915560948488762E-015
  -4.4099999999999986E-002     1.1164652339299471E-015
  -4.2999999999999997E-002     1.7250942360258308E-014
  -4.1899999999999993E-002     2.7400780619078399E-014
  -4.0799999999999989E-002     1.4092606374666462E-014
  -3.9699999999999985E-002    -2.7199273174992496E-014
  -3.8599999999999995E-002    -7.1877298221407343E-014
  -3.7499999999999992E-002    -7.1428106485083021E-014
  -3.6399999999999988E-002     9.3544057116795760E-015
  -3.5299999999999984E-002     1.4203858900684041E-013
  -3.4199999999999994E-002     2.1922632979787249E-013
  -3.3099999999999991E-002     1.1681781030784683E-013
  -3.1999999999999987E-002    -1.8160055707469591E-013
  -3.0899999999999997E-002    -4.9369059187953646E-013
  -2.9799999999999993E-002    -5.0216731814489712E-013
  -2.8699999999999989E-002    -3.6869268963258921E-015
  -2.7599999999999986E-002     8.0804276030715938E-013
  -2.6499999999999996E-002     1.3033027348313686E-012
  -2.5399999999999992E-002     8.0486453005873537E-013
  -2.4299999999999988E-002    -7.5543531933425223E-013
  -2.3199999999999985E-002    -2.4362387107679240E-012
  -2.2099999999999995E-002    -2.6834827762667324E-012
  -2.0999999999999991E-002    -5.3664505565015341E-013
  -1.9899999999999987E-002     3.1498354272074813E-012
  -1.8799999999999983E-002     5.6628829230020994E-012
  -1.7699999999999994E-002     4.1540985061538915E-012
  -1.6599999999999990E-002    -1.7412488551721284E-012
  -1.5499999999999986E-002    -8.5088698240087801E-012
  -1.4399999999999996E-002    -1.0419966972596839E-011
  -1.3299999999999992E-002    -3.9189801577521610E-012
  -1.2199999999999989E-002     8.3147126336835520E-012
  -1.1099999999999985E-002     1.7530891668893211E-011
  -9.9999999999999950E-003     1.4673082193716880E-011
  -8.8999999999999913E-003    -1.6062553847770444E-012
  -7.7999999999999875E-003    -2.1259547941521184E-011
  -6.6999999999999837E-003    -2.8254733622223860E-011
  -5.5999999999999939E-003    -1.3027892133143926E-011
  -4.4999999999999901E-003     1.7157150700164436E-011
  -3.3999999999999864E-003     3.9927127576389054E-011
  -2.2999999999999826E-003     3.3530633131162446E-011
  -1.1999999999999927E-003    -3.6436955883067945E-012
  -9.9999999999988987E-005    -4.6287883248563588E-011
   1.0000000000000148E-003    -5.7698755495660947E-011
   2.1000000000000185E-003    -1.9646831037056778E-011
   3.2000000000000084E-003     4.6397091030270232E-011
   4.3000000000000121E-003     8.7967813588996080E-011
   5.4000000000000159E-003     6.0310943739150247E-011
   6.5000000000000058E-003    -3.1548229306732622E-011
   7.6000000000000234E-003    -1.2376863423035900E-010
   8.7000000000000133E-003    -1.3410619836839999E-010
   9.8000000000000032E-003    -2.8922534506259368E-011
   1.0900000000000021E-002     1.3477967353292541E-010
   1.2000000000000011E-002     2.3459503784017954E-010
   1.3100000000000001E-002     1.6969120553156358E-010
   1.4200000000000018E-002    -4.9837856064272046E-011
   1.5300000000000008E-002    -2.8572494370493473E-010
   1.6400000000000026E-002    -3.5625125072158426E-010
   1.7500000000000016E-002    -1.7382029149359823E-010
   1.8600000000000005E-002     1.6748588627102379E-010
   1.9700000000000023E-002     4.3559003626292281E-010
   2.0800000000000013E-002     4.2295644764323015E-010
   2.1900000000000003E-002     1.1465992738601827E-010
   2.3000000000000020E-002    -2.7612101494156605E-010
   2.4100000000000010E-002    -4.5631529110856661E-010
   2.5200000000000000E-002    -2.8915073113644496E-010
   2.6300000000000018E-002     7.0771818960757571E-011
   2.7400000000000008E-002     2.8105320848403892E-010
   2.8500000000000025E-002     1.0809694805935521E-010
   2.9600000000000015E-002    -3.1348518225726707E-010
   3.0700000000000005E-002    -5.1264181788468477E-010
   3.1800000000000023E-002    -5.9841159805174016E-011
   3.2900000000000013E-002     9.5840213543141317E-010
   3.4000000000000002E-002     1.7870600554914517E-009
   3.5100000000000020E-002     1.4348410237730036E-009
   3.6200000000000010E-002    -4.8708065358837871E-010
   3.7300000000000028E-002    -3.1247984200177825E-009
   3.8400000000000017E-002    -4.5828758565846783E-009
   3.9500000000000007E-002    -3.1064648631229375E-009
   4.0600000000000025E-002     1.4011597437857404E-009
   4.1700000000000015E-002     6.6664740394628552E-009
   4.2800000000000005E-002     8.9902627564697468E-009
   4.3900000000000022E-002     5.6328315345410829E-009
   4.5000000000000012E-002    -2.7843138905581100E-009
   4.6100000000000002E-002    -1.1714285541586378E-008
   4.7200000000000020E-002    -1.4917665325242524E-008
   4.8300000000000010E-002    -8.5817237760466014E-009
   4.9400000000000027E-002     5.2471111899876632E-009
   5.0500000000000017E-002     1.8635944343259325E-008
   5.1600000000000007E-002     2.2019550627305762E-008
   5.2700000000000025E-002     1.0684767737245693E-008
   5.3800000000000014E-002    -1.0677439377104747E-008
   5.4900000000000004E-002    -2.9092532827235118E-008
   5.6000000000000022E-002    -3.0626914337972266E-008
   5.7100000000000012E-002    -1.0139808992448707E-008
   5.8200000000000002E-002     2.2904028895709416E-008
   5.9300000000000019E-002     4.7605567488062661E-008
   6.0400000000000009E-002     4.3682788941623585E-008
   6.1500000000000027E-002     6.0691722758576816E-009
   6.2600000000000017E-002    -4.7521563573127423E-008
   6.3700000000000007E-002    -8.3038777631827543E-008
   6.4800000000000024E-002    -6.9554715764752473E-008
   6.5900000000000014E-002    -1.6263856927878351E-009
   6.7000000000000004E-002     8.9945956460724119E-008
   6.8100000000000022E-002     1.4915013935024035E-007
   6.9200000000000012E-002     1.2565257634378213E-007
   7.0300000000000029E-002     9.9769126293836052E-009
   7.1400000000000019E-002    -1.4915642054802447E-007
   7.2500000000000009E-002    -2.6106019390681467E-007
   7.3600000000000027E-002    -2.4053855440797633E-007
   7.4700000000000016E-002    -6.3584820964024402E-008
   7.5800000000000006E-002     2.0221357033278764E-007
   7.6900000000000024E-002     4.1759798818929994E-007
   7.8000000000000014E-002     4.4071592242289626E-007
   7.9100000000000004E-002     2.1309533337898756E-007
   8.0200000000000021E-002    -1.8711216398514807E-007
   8.1300000000000011E-002    -5.6414637583657168E-007
   8.2400000000000029E-002    -6.9861567908446887E-007
   8.3500000000000019E-002    -4.7334100372609100E-007
   8.4600000000000009E-002     3.9879253677099769E-008
   8.5700000000000026E-002     5.9246849559713155E-007
   8.6800000000000016E-002     8.7967941908573266E-007
   8.7900000000000006E-002     7.1362563858201611E-007
   8.9000000000000024E-002     1.5083665516613110E-007
   9.0100000000000013E-002    -5.1120417765559978E-007
   9.1200000000000003E-002    -8.8576564394315938E-007
   9.2300000000000021E-002    -7.2373325110675069E-007
   9.3400000000000011E-002    -8.4297056446303031E-008
   9.4500000000000028E-002     6.6538797227622126E-007
   9.5600000000000018E-002     1.0439600828249240E-006
   9.6700000000000008E-002     7.4506129976725788E-007
   9.7800000000000026E-002    -1.5013533527508116E-007
   9.8900000000000016E-002    -1.1819415703939740E-006
  0.10000000000000001         -1.7620527614781167E-006
  0.10110000000000002         -1.5288101167243440E-006
  0.10220000000000001         -5.8660674540078617E-007
  0.10330000000000003          5.4137194638315123E-007
  0.10440000000000002          1.2463157190722995E-006
  0.10550000000000001          1.2579068879858823E-006
  0.10660000000000003          8.7599477183175622E-007
  0.10770000000000002          8.1937071172433207E-007
  0.10880000000000001          1.7391156461599167E-006
  0.10990000000000003          3.6863498280581553E-006
  0.11100000000000002          5.9058575061499141E-006
  0.11210000000000001          7.1664262577542104E-006
  0.11320000000000002          6.5067351897596382E-006
  0.11430000000000001          3.9691981328360271E-006
  0.11540000000000003          8.2531141742947511E-007
  0.11650000000000002         -9.5116109832815710E-007
  0.11760000000000001          2.4968161937977129E-007
  0.11870000000000003          4.6693212425452657E-006
  0.11980000000000002          1.0891785677813459E-005
  0.12090000000000001          1.6557720300625078E-005
  0.12200000000000003          1.9763409000006504E-005
  0.12310000000000001          2.0343819414847530E-005
  0.12420000000000003          2.0208441128488630E-005
  0.12530000000000002          2.2399457520805299E-005
  0.12640000000000001          2.9317166990949772E-005
  0.12750000000000003          4.1143703128909692E-005
  0.12860000000000002          5.5494132539024577E-005
  0.12970000000000001          6.8668712629005313E-005
  0.13080000000000003          7.7915588917676359E-005
  0.13190000000000002          8.3413418906275183E-005
  0.13300000000000001          8.8715009042061865E-005
  0.13410000000000000          9.9214848887640983E-005
  0.13520000000000004          1.1935677321162075E-004
  0.13630000000000003          1.5014146629255265E-004
  0.13740000000000002          1.8843212455976754E-004
  0.13850000000000001          2.2861141769681126E-004
  0.13960000000000000          2.6575196534395218E-004
  0.14070000000000005          2.9856406035833061E-004
  0.14180000000000004          3.3037239336408675E-004
  0.14290000000000003          3.6751557490788400E-004
  0.14400000000000002          4.1598232928663492E-004
  0.14510000000000001          4.7823615022934973E-004
  0.14620000000000000          5.5203400552272797E-004
  0.14730000000000004          6.3194619724527001E-004
  0.14840000000000003          7.1267801104113460E-004
  0.14950000000000002          7.9219532199203968E-004
  0.15060000000000001          8.7278726277872920E-004
  0.15170000000000000          9.5938594313338399E-004
  0.15280000000000005          1.0562476236373186E-003
  0.15390000000000004          1.1639515869319439E-003
  0.15500000000000003          1.2787040323019028E-003
  0.15610000000000002          1.3942051446065307E-003
  0.15720000000000001          1.5050548827275634E-003
  0.15830000000000000          1.6094268066808581E-003
  0.15940000000000004          1.7091821646317840E-003
  0.16050000000000003          1.8074315739795566E-003
  0.16160000000000002          1.9050072878599167E-003
  0.16270000000000001          1.9979525823146105E-003
  0.16380000000000000          2.0779175683856010E-003
  0.16490000000000005          2.1354318596422672E-003
  0.16600000000000004          2.1639890037477016E-003
  0.16710000000000003          2.1622835192829370E-003
  0.16820000000000002          2.1331522148102522E-003
  0.16930000000000001          2.0798444747924805E-003
  0.17040000000000000          2.0010776352137327E-003
  0.17150000000000004          1.8889066996052861E-003
  0.17260000000000003          1.7303745262324810E-003
  0.17370000000000002          1.5127385267987847E-003
  0.17480000000000001          1.2289965525269508E-003
  0.17590000000000000          8.8041980052366853E-004
  0.17700000000000005          4.7557865036651492E-004
  0.17810000000000004          2.4524375476175919E-005
  0.17920000000000003         -4.6731944894418120E-004
  0.18030000000000002         -1.0027324315160513E-003
  0.18140000000000001         -1.5907495981082320E-003
  0.18250000000000000         -2.2414945997297764E-003
  0.18360000000000004         -2.9585300944745541E-003
  0.18470000000000003         -3.7345048040151596E-003
  0.18580000000000002         -4.5521873980760574E-003
  0.18690000000000001         -5.3898501209914684E-003
  0.18800000000000000         -6.2282048165798187E-003
  0.18910000000000005         -7.0546143688261509E-003
  0.19020000000000004         -7.8629059717059135E-003
  0.19130000000000003         -8.6484830826520920E-003
  0.19240000000000002         -9.4042886048555374E-003
  0.19350000000000001         -1.0116148740053177E-002
  0.19460000000000005         -1.0763569734990597E-002
  0.19570000000000004         -1.1323246173560619E-002
  0.19680000000000003         -1.1773506179451942E-002
  0.19790000000000002         -1.2097097933292389E-002
  0.19900000000000001         -1.2281632050871849E-002
  0.20010000000000000         -1.2316983193159103E-002
  0.20120000000000005         -1.2192211113870144E-002
  0.20230000000000004         -1.1894974857568741E-002
  0.20340000000000003         -1.1413293890655041E-002
  0.20450000000000002         -1.0739264078438282E-002
  0.20560000000000000         -9.8720472306013107E-003
  0.20670000000000005         -8.8179390877485275E-003
  0.20780000000000004         -7.5881211087107658E-003
  0.20890000000000003         -6.1945519410073757E-003
