 -0.12000000000000000          0.0000000000000000
 -0.11889999999999999          0.0000000000000000
 -0.11780000000000000          0.0000000000000000
 -0.11670000000000000          9.5689933754528056E-010
 -0.11559999999999999          2.7185287354569709E-009
 -0.11449999999999999          2.1465318411628687E-009
 -0.11340000000000000         -1.5573918821232269E-009
 -0.11230000000000000         -1.9983039667437197E-009
 -0.11119999999999999          2.2269497357285672E-009
 -0.11009999999999999         -9.9336130432448044E-009
 -0.10900000000000000         -6.0508725141517061E-008
 -0.10790000000000000         -1.0710216713505361E-007
 -0.10679999999999999         -2.7065855334740263E-008
 -0.10569999999999999          2.4720958435864304E-007
 -0.10460000000000000          5.2641092906924314E-007
 -0.10349999999999999          3.8850103578624839E-007
 -0.10239999999999999         -3.9486144487455022E-007
 -0.10130000000000000         -1.3525186659535393E-006
 -0.10020000000000000         -1.4182290897224448E-006
  -9.9099999999999994E-002     7.2864821731855045E-008
  -9.7999999999999990E-002     2.2808110315963859E-006
  -9.6899999999999986E-002     3.0421617793763289E-006
  -9.5799999999999996E-002     8.0317914807892521E-007
  -9.4699999999999993E-002    -3.2254001780529507E-006
  -9.3599999999999989E-002    -5.2212917580618523E-006
  -9.2499999999999999E-002    -2.0482007130340207E-006
  -9.1399999999999995E-002     4.8694482757127844E-006
  -9.0299999999999991E-002     9.3351764007820748E-006
  -8.9200000000000002E-002     5.4163738241186365E-006
  -8.8099999999999984E-002    -6.0519760154420510E-006
  -8.6999999999999994E-002    -1.6091124052763917E-005
  -8.5899999999999990E-002    -1.4305500371847302E-005
  -8.4799999999999986E-002     1.1180351293660351E-006
  -8.3699999999999997E-002     1.9555984181351960E-005
  -8.2599999999999993E-002     2.5421291866223328E-005
  -8.1499999999999989E-002     1.1746577911253553E-005
  -8.0399999999999999E-002    -1.2261464689800050E-005
  -7.9299999999999995E-002    -2.7671219868352637E-005
  -7.8199999999999992E-002    -2.1703628590330482E-005
  -7.7100000000000002E-002     8.9566208316682605E-007
  -7.5999999999999984E-002     2.1551019017351791E-005
  -7.4899999999999994E-002     2.3534350475529209E-005
  -7.3799999999999991E-002     5.4912570703891106E-006
  -7.2699999999999987E-002    -1.8951886886497959E-005
  -7.1599999999999997E-002    -3.3817570511018857E-005
  -7.0499999999999993E-002    -3.2893323805183172E-005
  -6.9399999999999989E-002    -2.0811778085771948E-005
  -6.8300000000000000E-002    -5.0567973630677443E-006
  -6.7199999999999996E-002     1.0184030543314293E-005
  -6.6099999999999992E-002     2.1627251044264995E-005
  -6.5000000000000002E-002     2.1418873075162992E-005
  -6.3899999999999985E-002    -5.6907856560428627E-007
  -6.2799999999999995E-002    -4.4742308091372252E-005
  -6.1699999999999991E-002    -9.2268404841888696E-005
  -6.0599999999999994E-002    -1.1253773845965043E-004
  -5.9499999999999990E-002    -8.6883235780987889E-005
  -5.8399999999999994E-002    -2.9026119591435418E-005
  -5.7299999999999990E-002     1.9038572645513341E-005
  -5.6199999999999986E-002     1.6540750948479399E-005
  -5.5099999999999996E-002    -4.4832748244516551E-005
  -5.3999999999999992E-002    -1.3538968050852418E-004
  -5.2899999999999989E-002    -2.1244351228233427E-004
  -5.1799999999999985E-002    -2.5288813048973680E-004
  -5.0699999999999995E-002    -2.6458251522853971E-004
  -4.9599999999999991E-002    -2.6995211374014616E-004
  -4.8499999999999988E-002    -2.8258809470571578E-004
  -4.7399999999999998E-002    -3.0203824280761182E-004
  -4.6299999999999994E-002    -3.2940105302259326E-004
  -4.5199999999999990E-002    -3.8152403431013227E-004
  -4.4099999999999986E-002    -4.8226403305307031E-004
  -4.2999999999999997E-002    -6.3589628553017974E-004
  -4.1899999999999993E-002    -8.1139674875885248E-004
  -4.0799999999999989E-002    -9.5981243066489697E-004
  -3.9699999999999985E-002    -1.0539551731199026E-003
  -3.8599999999999995E-002    -1.1141526047140360E-003
  -3.7499999999999992E-002    -1.1938592651858926E-003
  -3.6399999999999988E-002    -1.3370375381782651E-003
  -3.5299999999999984E-002    -1.5470590442419052E-003
  -3.4199999999999994E-002    -1.7950681503862143E-003
  -3.3099999999999991E-002    -2.0557886455208063E-003
  -3.1999999999999987E-002    -2.3314210120588541E-003
  -3.0899999999999997E-002    -2.6389306876808405E-003
  -2.9799999999999993E-002    -2.9768745880573988E-003
  -2.8699999999999989E-002    -3.3118259161710739E-003
  -2.7599999999999986E-002    -3.6053480580449104E-003
  -2.6499999999999996E-002    -3.8564519491046667E-003
  -2.5399999999999992E-002    -4.1143270209431648E-003
  -2.4299999999999988E-002    -4.4424417428672314E-003
  -2.3199999999999985E-002    -4.8636640422046185E-003
  -2.2099999999999995E-002    -5.3381863981485367E-003
  -2.0999999999999991E-002    -5.7951416820287704E-003
  -1.9899999999999987E-002    -6.1875786632299423E-003
  -1.8799999999999983E-002    -6.5186750143766403E-003
  -1.7699999999999994E-002    -6.8182805553078651E-003
  -1.6599999999999990E-002    -7.0988577790558338E-003
  -1.5499999999999986E-002    -7.3379944078624249E-003
  -1.4399999999999996E-002    -7.5039737857878208E-003
  -1.3299999999999992E-002    -7.5913942418992519E-003
  -1.2199999999999989E-002    -7.6256501488387585E-003
  -1.1099999999999985E-002    -7.6286015100777149E-003
  -9.9999999999999950E-003    -7.5806630775332451E-003
  -8.8999999999999913E-003    -7.4228760786354542E-003
  -7.7999999999999875E-003    -7.0974272675812244E-003
  -6.6999999999999837E-003    -6.5861935727298260E-003
  -5.5999999999999939E-003    -5.9086326509714127E-003
  -4.4999999999999901E-003    -5.0843381322920322E-003
  -3.3999999999999864E-003    -4.1036126203835011E-003
  -2.2999999999999826E-003    -2.9360384214669466E-003
  -1.1999999999999927E-003    -1.5701603842899203E-003
  -9.9999999999988987E-005    -3.1987841794034466E-005
   1.0000000000000148E-003     1.6408562660217285E-003
   2.1000000000000185E-003     3.4416154958307743E-003
   3.2000000000000084E-003     5.4097212851047516E-003
   4.3000000000000121E-003     7.5938431546092033E-003
   5.4000000000000159E-003     9.9973147734999657E-003
   6.5000000000000058E-003     1.2564668431878090E-002
   7.6000000000000234E-003     1.5223008580505848E-002
   8.7000000000000133E-003     1.7932295799255371E-002
   9.8000000000000032E-003     2.0698839798569679E-002
   1.0900000000000021E-002     2.3529050871729851E-002
   1.2000000000000011E-002     2.6384066790342331E-002
   1.3100000000000001E-002     2.9176944866776466E-002
   1.4200000000000018E-002     3.1828176230192184E-002
   1.5300000000000008E-002     3.4311387687921524E-002
   1.6400000000000026E-002     3.6645032465457916E-002
   1.7500000000000016E-002     3.8830041885375977E-002
   1.8600000000000005E-002     4.0800791233778000E-002
   1.9700000000000023E-002     4.2446356266736984E-002
   2.0800000000000013E-002     4.3678734451532364E-002
   2.1900000000000003E-002     4.4480457901954651E-002
   2.3000000000000020E-002     4.4879984110593796E-002
   2.4100000000000010E-002     4.4872868806123734E-002
   2.5200000000000000E-002     4.4384244829416275E-002
   2.6300000000000018E-002     4.3310210108757019E-002
   2.7400000000000008E-002     4.1600927710533142E-002
   2.8500000000000025E-002     3.9301030337810516E-002
   2.9600000000000015E-002     3.6494974046945572E-002
   3.0700000000000005E-002     3.3214550465345383E-002
   3.1800000000000023E-002     2.9407808557152748E-002
   3.2900000000000013E-002     2.5003874674439430E-002
   3.4000000000000002E-002     2.0009487867355347E-002
   3.5100000000000020E-002     1.4534532092511654E-002
   3.6200000000000010E-002     8.7122814729809761E-003
   3.7300000000000028E-002     2.5957317557185888E-003
   3.8400000000000017E-002    -3.8586077280342579E-003
   3.9500000000000007E-002    -1.0693907737731934E-002
   4.0600000000000025E-002    -1.7838567495346069E-002
   4.1700000000000015E-002    -2.5098232552409172E-002
   4.2800000000000005E-002    -3.2267227768898010E-002
   4.3900000000000022E-002    -3.9256043732166290E-002
   4.5000000000000012E-002    -4.6103134751319885E-002
   4.6100000000000002E-002    -5.2847966551780701E-002
   4.7200000000000020E-002    -5.9400107711553574E-002
   4.8300000000000010E-002    -6.5544106066226959E-002
   4.9400000000000027E-002    -7.1070797741413116E-002
   5.0500000000000017E-002    -7.5915150344371796E-002
   5.1600000000000007E-002    -8.0149732530117035E-002
   5.2700000000000025E-002    -8.3836652338504791E-002
   5.3800000000000014E-002    -8.6889728903770447E-002
   5.4900000000000004E-002    -8.9087158441543579E-002
   5.6000000000000022E-002    -9.0235821902751923E-002
   5.7100000000000012E-002    -9.0319089591503143E-002
   5.8200000000000002E-002    -8.9475378394126892E-002
   5.9300000000000019E-002    -8.7836787104606628E-002
   6.0400000000000009E-002    -8.5376195609569550E-002
   6.1500000000000027E-002    -8.1938020884990692E-002
   6.2600000000000017E-002    -7.7408835291862488E-002
   6.3700000000000007E-002    -7.1857936680316925E-002
   6.4800000000000024E-002    -6.5502591431140900E-002
   6.5900000000000014E-002    -5.8534644544124603E-002
   6.7000000000000004E-002    -5.0986602902412415E-002
   6.8100000000000022E-002    -4.2771637439727783E-002
   6.9200000000000012E-002    -3.3857610076665878E-002
   7.0300000000000029E-002    -2.4391923099756241E-002
   7.1400000000000019E-002    -1.4652855694293976E-002
   7.2500000000000009E-002    -4.8693716526031494E-003
   7.3600000000000027E-002     4.8944726586341858E-003
   7.4700000000000016E-002     1.4679729007184505E-002
   7.5800000000000006E-002     2.4456912651658058E-002
   7.6900000000000024E-002     3.4020986407995224E-002
   7.8000000000000014E-002     4.3073590844869614E-002
   7.9100000000000004E-002     5.1408659666776657E-002
   8.0200000000000021E-002     5.9009671211242676E-002
   8.1300000000000011E-002     6.5958611667156219E-002
   8.2400000000000029E-002     7.2251915931701660E-002
   8.3500000000000019E-002     7.7715307474136353E-002
   8.4600000000000009E-002     8.2112781703472137E-002
   8.5700000000000026E-002     8.5327796638011932E-002
   8.6800000000000016E-002     8.7438620626926422E-002
   8.7900000000000006E-002     8.8602475821971893E-002
   8.9000000000000024E-002     8.8874585926532745E-002
   9.0100000000000013E-002     8.8143043220043182E-002
   9.1200000000000003E-002     8.6262866854667664E-002
   9.2300000000000021E-002     8.3238542079925537E-002
   9.3400000000000011E-002     7.9276844859123230E-002
   9.4500000000000028E-002     7.4645392596721649E-002
   9.5600000000000018E-002     6.9479748606681824E-002
   9.6700000000000008E-002     6.3731007277965546E-002
   9.7800000000000026E-002     5.7315647602081299E-002
   9.8900000000000016E-002     5.0302945077419281E-002
  0.10000000000000001          4.2954131960868835E-002
  0.10110000000000002          3.5564042627811432E-002
  0.10220000000000001          2.8269005939364433E-002
  0.10330000000000003          2.1024288609623909E-002
  0.10440000000000002          1.3756718486547470E-002
  0.10550000000000001          6.5444074571132660E-003
  0.10660000000000003         -3.6733935121446848E-004
  0.10770000000000002         -6.7250281572341919E-003
  0.10880000000000001         -1.2442764826118946E-002
  0.10990000000000003         -1.7614204436540604E-002
  0.11100000000000002         -2.2356631234288216E-002
  0.11210000000000001         -2.6649367064237595E-002
  0.11320000000000002         -3.0328551307320595E-002
  0.11430000000000001         -3.3241335302591324E-002
  0.11540000000000003         -3.5395942628383636E-002
  0.11650000000000002         -3.6950379610061646E-002
  0.11760000000000001         -3.8055673241615295E-002
  0.11870000000000003         -3.8718536496162415E-002
  0.11980000000000002         -3.8825206458568573E-002
  0.12090000000000001         -3.8296341896057129E-002
  0.12200000000000003         -3.7212163209915161E-002
  0.12310000000000001         -3.5773042589426041E-002
  0.12420000000000003         -3.4143224358558655E-002
  0.12530000000000002         -3.2335743308067322E-002
  0.12640000000000001         -3.0257547274231911E-002
  0.12750000000000003         -2.7867408469319344E-002
  0.12860000000000002         -2.5275958701968193E-002
  0.12970000000000001         -2.2682556882500648E-002
  0.13080000000000003         -2.0215217024087906E-002
  0.13190000000000002         -1.7837245017290115E-002
  0.13300000000000001         -1.5421735122799873E-002
  0.13410000000000000         -1.2918972410261631E-002
  0.13520000000000004         -1.0440674610435963E-002
  0.13630000000000003         -8.1755993887782097E-003
  0.13740000000000002         -6.2206229194998741E-003
  0.13850000000000001         -4.4996668584644794E-003
  0.13960000000000000         -2.8572587762027979E-003
  0.14070000000000005         -1.2298247311264277E-003
  0.14180000000000004          2.8373114764690399E-004
  0.14290000000000003          1.5169739490374923E-003
  0.14400000000000002          2.4104996118694544E-003
  0.14510000000000001          3.0786923598498106E-003
  0.14620000000000000          3.7055225111544132E-003
  0.14730000000000004          4.3702614493668079E-003
  0.14840000000000003          4.9797538667917252E-003
  0.14950000000000002          5.3735291585326195E-003
  0.15060000000000001          5.4938588291406631E-003
  0.15170000000000000          5.4493923671543598E-003
  0.15280000000000005          5.4120132699608803E-003
  0.15390000000000004          5.4525011219084263E-003
  0.15500000000000003          5.4831635206937790E-003
  0.15610000000000002          5.3619560785591602E-003
  0.15720000000000001          5.0498098134994507E-003
  0.15830000000000000          4.6597202308475971E-003
  0.15940000000000004          4.3504075147211552E-003
  0.16050000000000003          4.1747749783098698E-003
  0.16160000000000002          4.0368251502513885E-003
  0.16270000000000001          3.7991765420883894E-003
  0.16380000000000000          3.4275678917765617E-003
  0.16490000000000005          3.0250230338424444E-003
  0.16600000000000004          2.7233981527388096E-003
  0.16710000000000003          2.5468498934060335E-003
  0.16820000000000002          2.3893474135547876E-003
  0.16930000000000001          2.1279125940054655E-003
  0.17040000000000000          1.7541311681270599E-003
  0.17150000000000004          1.3866797089576721E-003
  0.17260000000000003          1.1523399734869599E-003
  0.17370000000000002          1.0580149246379733E-003
  0.17480000000000001          9.8702427931129932E-004
  0.17590000000000000          8.2305673277005553E-004
  0.17700000000000005          5.7227822253480554E-004
  0.17810000000000004          3.5597415990196168E-004
  0.17920000000000003          2.7947136550210416E-004
  0.18030000000000002          3.1400006264448166E-004
  0.18140000000000001          3.1713771750219166E-004
  0.18250000000000000          1.7576088430359960E-004
  0.18360000000000004         -7.3788331064861268E-005
  0.18470000000000003         -2.7399265673011541E-004
  0.18580000000000002         -2.9960030224174261E-004
  0.18690000000000001         -1.8248785636387765E-004
  0.18800000000000000         -7.9831261245999485E-005
  0.18910000000000005         -1.1574795644264668E-004
  0.19020000000000004         -2.5711100897751749E-004
  0.19130000000000003         -3.5091413883492351E-004
  0.19240000000000002         -2.8719365946017206E-004
  0.19350000000000001         -1.2053311365889385E-004
  0.19460000000000005         -2.2618494767812081E-005
  0.19570000000000004         -1.1004976113326848E-004
  0.19680000000000003         -3.2159578404389322E-004
  0.19790000000000002         -4.7300284495577216E-004
  0.19900000000000001         -4.3768994510173798E-004
  0.20010000000000000         -2.7191339177079499E-004
  0.20120000000000005         -1.5619979240000248E-004
  0.20230000000000004         -2.1087095956318080E-004
  0.20340000000000003         -3.7351416540332139E-004
  0.20450000000000002         -4.6499658492393792E-004
  0.20560000000000000         -3.7820090074092150E-004
  0.20670000000000005         -1.9545432587619871E-004
  0.20780000000000004         -1.1097365495515987E-004
  0.20890000000000003         -2.3369606060441583E-004
