 -0.12000000000000000          0.0000000000000000
 -0.11889999999999999          0.0000000000000000
 -0.11780000000000000          0.0000000000000000
 -0.11670000000000000          0.0000000000000000
 -0.11559999999999999          1.1207809726753262E-015
 -0.11449999999999999          5.7051285828261904E-015
 -0.11340000000000000          1.2363657969324034E-014
 -0.11230000000000000          9.0366904294280660E-015
 -0.11119999999999999         -2.3934484629688571E-014
 -0.11009999999999999         -9.4693214857874408E-014
 -0.10900000000000000         -1.7928049995084849E-013
 -0.10790000000000000         -2.2392153506845675E-013
 -0.10679999999999999         -1.7424500427590250E-013
 -0.10569999999999999         -5.5237728995884139E-015
 -0.10460000000000000          2.7032204057662879E-013
 -0.10349999999999999          6.0831347554676785E-013
 -0.10239999999999999          9.1242703496863253E-013
 -0.10130000000000000          1.0053818671681980E-012
 -0.10020000000000000          6.5634303547668083E-013
  -9.9099999999999994E-002    -2.8156031109047297E-013
  -9.7999999999999990E-002    -1.6930999787931333E-012
  -9.6899999999999986E-002    -3.1509170272947529E-012
  -9.5799999999999996E-002    -4.0859971656148630E-012
  -9.4699999999999993E-002    -4.0479256231684690E-012
  -9.3599999999999989E-002    -2.8030275583262876E-012
  -9.2499999999999999E-002    -2.0658960111184788E-013
  -9.1399999999999995E-002     3.8597636371762167E-012
  -9.0299999999999991E-002     9.1140688746049747E-012
  -8.9200000000000002E-002     1.4150743077312455E-011
  -8.8099999999999984E-002     1.6114854242688104E-011
  -8.6999999999999994E-002     1.1627105528377868E-011
  -8.5899999999999990E-002    -1.0343244273222640E-012
  -8.4799999999999986E-002    -1.9744332904747530E-011
  -8.3699999999999997E-002    -3.8091158699460337E-011
  -8.2599999999999993E-002    -4.7532536934236091E-011
  -8.1499999999999989E-002    -4.1256102700781838E-011
  -8.0399999999999999E-002    -1.7698094725848712E-011
  -7.9299999999999995E-002     1.8009274627139860E-011
  -7.8199999999999992E-002     5.5095927820048018E-011
  -7.7100000000000002E-002     8.0144502145884644E-011
  -7.5999999999999984E-002     8.1313997202236976E-011
  -7.4899999999999994E-002     5.3142837352915251E-011
  -7.3799999999999991E-002     5.3892654228171466E-013
  -7.2699999999999987E-002    -6.0563269677071929E-011
  -7.1599999999999997E-002    -1.0808397232775491E-010
  -7.0499999999999993E-002    -1.2342506183760094E-010
  -6.9399999999999989E-002    -1.0086766838446337E-010
  -6.8300000000000000E-002    -5.0181501315416099E-011
  -6.7199999999999996E-002     1.0442057808701666E-011
  -6.6099999999999992E-002     6.6877413329446966E-011
  -6.5000000000000002E-002     1.1779240083331644E-010
  -6.3899999999999985E-002     1.7258681983545188E-010
  -6.2799999999999995E-002     2.3990071040813632E-010
  -6.1699999999999991E-002     3.1607053085913606E-010
  -6.0599999999999994E-002     3.8365291499253829E-010
  -5.9499999999999990E-002     4.2261619204175815E-010
  -5.8399999999999994E-002     4.2704820235606178E-010
  -5.7299999999999990E-002     4.1602782330230070E-010
  -5.6199999999999986E-002     4.3145428896274041E-010
  -5.5099999999999996E-002     5.2407173045665445E-010
  -5.3999999999999992E-002     7.3512740339509719E-010
  -5.2899999999999989E-002     1.0819121154526101E-009
  -5.1799999999999985E-002     1.5526374630425721E-009
  -5.0699999999999995E-002     2.1128656602087403E-009
  -4.9599999999999991E-002     2.7226720877848720E-009
  -4.8499999999999988E-002     3.3595186632595642E-009
  -4.7399999999999998E-002     4.0369987353017223E-009
  -4.6299999999999994E-002     4.8084918269353238E-009
  -4.5199999999999990E-002     5.7514735196662059E-009
  -4.4099999999999986E-002     6.9406795866200355E-009
  -4.2999999999999997E-002     8.4273388267774862E-009
  -4.1899999999999993E-002     1.0238395020678581E-008
  -4.0799999999999989E-002     1.2394785642300121E-008
  -3.9699999999999985E-002     1.4933251080151422E-008
  -3.8599999999999995E-002     1.7914771888172254E-008
  -3.7499999999999992E-002     2.1416157736098285E-008
  -3.6399999999999988E-002     2.5517245205719519E-008
  -3.5299999999999984E-002     3.0299379005782612E-008
  -3.4199999999999994E-002     3.5858349178852222E-008
  -3.3099999999999991E-002     4.2319182824712698E-008
  -3.1999999999999987E-002     4.9837311166811560E-008
  -3.0899999999999997E-002     5.8583964346325956E-008
  -2.9799999999999993E-002     6.8729896440800076E-008
  -2.8699999999999989E-002     8.0444038985660882E-008
  -2.7599999999999986E-002     9.3908830933742138E-008
  -2.6499999999999996E-002     1.0933683114444648E-007
  -2.5399999999999992E-002     1.2697070417289069E-007
  -2.4299999999999988E-002     1.4706469642078446E-007
  -2.3199999999999985E-002     1.6986388118311879E-007
  -2.2099999999999995E-002     1.9560013697628165E-007
  -2.0999999999999991E-002     2.2450791448136442E-007
  -1.9899999999999987E-002     2.5684434490358399E-007
  -1.8799999999999983E-002     2.9289498115758761E-007
  -1.7699999999999994E-002     3.3296112178504700E-007
  -1.6599999999999990E-002     3.7734105262643425E-007
  -1.5499999999999986E-002     4.2631822338989878E-007
  -1.4399999999999996E-002     4.8015596121331328E-007
  -1.3299999999999992E-002     5.3908695463178447E-007
  -1.2199999999999989E-002     6.0329034567985218E-007
  -1.1099999999999985E-002     6.7286526928000967E-007
  -9.9999999999999950E-003     7.4782121828320669E-007
  -8.8999999999999913E-003     8.2809350487877964E-007
  -7.7999999999999875E-003     9.1356679376985994E-007
  -6.6999999999999837E-003     1.0040782854048302E-006
  -5.5999999999999939E-003     1.0993820751536987E-006
  -4.4999999999999901E-003     1.1990905477432534E-006
  -3.3999999999999864E-003     1.3026241276747896E-006
  -2.2999999999999826E-003     1.4091950788497343E-006
  -1.1999999999999927E-003     1.5178194416876067E-006
  -9.9999999999988987E-005     1.6273302207991946E-006
   1.0000000000000148E-003     1.7363706774631282E-006
   2.1000000000000185E-003     1.8433664763506385E-006
   3.2000000000000084E-003     1.9465001059870701E-006
   4.3000000000000121E-003     2.0437030343600782E-006
   5.4000000000000159E-003     2.1326618480088655E-006
   6.5000000000000058E-003     2.2108238226792309E-006
   7.6000000000000234E-003     2.2753961275157053E-006
   8.7000000000000133E-003     2.3233442334458232E-006
   9.8000000000000032E-003     2.3514098757004831E-006
   1.0900000000000021E-002     2.3561478883493692E-006
   1.2000000000000011E-002     2.3339725885307416E-006
   1.3100000000000001E-002     2.2811905182607006E-006
   1.4200000000000018E-002     2.1940236365480814E-006
   1.5300000000000008E-002     2.0686400148406392E-006
   1.6400000000000026E-002     1.9012109078175854E-006
   1.7500000000000016E-002     1.6879988606888219E-006
   1.8600000000000005E-002     1.4254577536121360E-006
   1.9700000000000023E-002     1.1103229553555138E-006
   2.0800000000000013E-002     7.3969192726508481E-007
   2.1900000000000003E-002     3.1110894838093373E-007
   2.3000000000000020E-002    -1.7733408697040431E-007
   2.4100000000000010E-002    -7.2688811769694439E-007
   2.5200000000000000E-002    -1.3380475820667925E-006
   2.6300000000000018E-002    -2.0104723716940498E-006
   2.7400000000000008E-002    -2.7429184683569474E-006
   2.8500000000000025E-002    -3.5331534036231460E-006
   2.9600000000000015E-002    -4.3778522922366392E-006
   3.0700000000000005E-002    -5.2724940360349137E-006
   3.1800000000000023E-002    -6.2112917476042639E-006
   3.2900000000000013E-002    -7.1871736508910544E-006
   3.4000000000000002E-002    -8.1918014984694310E-006
   3.5100000000000020E-002    -9.2155933089088649E-006
   3.6200000000000010E-002    -1.0247748832625803E-005
   3.7300000000000028E-002    -1.1276284567429684E-005
   3.8400000000000017E-002    -1.2288110156077892E-005
   3.9500000000000007E-002    -1.3269162081996910E-005
   4.0600000000000025E-002    -1.4204566468833946E-005
   4.1700000000000015E-002    -1.5078807336976752E-005
   4.2800000000000005E-002    -1.5875908502493985E-005
   4.3900000000000022E-002    -1.6579642760916613E-005
   4.5000000000000012E-002    -1.7173782907775603E-005
   4.6100000000000002E-002    -1.7642398233874701E-005
   4.7200000000000020E-002    -1.7970174667425454E-005
   4.8300000000000010E-002    -1.8142693079425953E-005
   4.9400000000000027E-002    -1.8146707589039579E-005
   5.0500000000000017E-002    -1.7970409317058511E-005
   5.1600000000000007E-002    -1.7603735614102334E-005
   5.2700000000000025E-002    -1.7038692021742463E-005
   5.3800000000000014E-002    -1.6269641491817310E-005
   5.4900000000000004E-002    -1.5293540855054744E-005
   5.6000000000000022E-002    -1.4110130905464757E-005
   5.7100000000000012E-002    -1.2722066458081827E-005
   5.8200000000000002E-002    -1.1135041859233752E-005
   5.9300000000000019E-002    -9.3578837550012395E-006
   6.0400000000000009E-002    -7.4025733738380950E-006
   6.1500000000000027E-002    -5.2841860451735556E-006
   6.2600000000000017E-002    -3.0207513646018924E-006
   6.3700000000000007E-002    -6.3307993514172267E-007
   6.4800000000000024E-002     1.8554358121036785E-006
   6.5900000000000014E-002     4.4190624066686723E-006
   6.7000000000000004E-002     7.0300411607604474E-006
   6.8100000000000022E-002     9.6589928944013081E-006
   6.9200000000000012E-002     1.2275389963178895E-005
   7.0300000000000029E-002     1.4848040336801205E-005
   7.1400000000000019E-002     1.7345562810078263E-005
   7.2500000000000009E-002     1.9736868125619367E-005
   7.3600000000000027E-002     2.1991652829456143E-005
   7.4700000000000016E-002     2.4080931325443089E-005
   7.5800000000000006E-002     2.5977560653700493E-005
   7.6900000000000024E-002     2.7656707970891148E-005
   7.8000000000000014E-002     2.9096274374751374E-005
   7.9100000000000004E-002     3.0277251426014118E-005
   8.0200000000000021E-002     3.1184055842459202E-005
   8.1300000000000011E-002     3.1804825994186103E-005
   8.2400000000000029E-002     3.2131662010215223E-005
   8.3500000000000019E-002     3.2160751288756728E-005
   8.4600000000000009E-002     3.1892395782051608E-005
   8.5700000000000026E-002     3.1330982892541215E-005
   8.6800000000000016E-002     3.0484910894301720E-005
   8.7900000000000006E-002     2.9366434318944812E-005
   8.9000000000000024E-002     2.7991472961730324E-005
   9.0100000000000013E-002     2.6379277187515981E-005
   9.1200000000000003E-002     2.4552055037929676E-005
   9.2300000000000021E-002     2.2534533854923211E-005
   9.3400000000000011E-002     2.0353540094220079E-005
   9.4500000000000028E-002     1.8037548215943389E-005
   9.5600000000000018E-002     1.5616196833434515E-005
   9.6700000000000008E-002     1.3119769391778391E-005
   9.7800000000000026E-002     1.0578660294413567E-005
   9.8900000000000016E-002     8.0228765000356361E-006
  0.10000000000000001          5.4816073316032998E-006
  0.10110000000000002          2.9828215701854788E-006
  0.10220000000000001          5.5288484190896270E-007
  0.10330000000000003         -1.7838187886809465E-006
  0.10440000000000002         -4.0052213989838492E-006
  0.10550000000000001         -6.0918246163055301E-006
  0.10660000000000003         -8.0268628153135069E-006
  0.10770000000000002         -9.7964039014186710E-006
  0.10880000000000001         -1.1389418432372622E-005
  0.10990000000000003         -1.2797828276234213E-005
  0.11100000000000002         -1.4016493878443725E-005
  0.11210000000000001         -1.5043112398416270E-005
  0.11320000000000002         -1.5878045815043151E-005
  0.11430000000000001         -1.6524112652405165E-005
  0.11540000000000003         -1.6986385162454098E-005
  0.11650000000000002         -1.7272002878598869E-005
  0.11760000000000001         -1.7389946151524782E-005
  0.11870000000000003         -1.7350765119772404E-005
  0.11980000000000002         -1.7166268662549555E-005
  0.12090000000000001         -1.6849226085469127E-005
  0.12200000000000003         -1.6413108824053779E-005
  0.12310000000000001         -1.5871852156124078E-005
  0.12420000000000003         -1.5239636013575364E-005
  0.12530000000000002         -1.4530643056787085E-005
  0.12640000000000001         -1.3758807654085103E-005
  0.12750000000000003         -1.2937610335939098E-005
  0.12860000000000002         -1.2079935004294384E-005
  0.12970000000000001         -1.1197968888154719E-005
  0.13080000000000003         -1.0303101589670405E-005
  0.13190000000000002         -9.4058186732581817E-006
  0.13300000000000001         -8.5155988926999271E-006
  0.13410000000000000         -7.6408678069128655E-006
  0.13520000000000004         -6.7890073296439368E-006
  0.13630000000000003         -5.9663952924893238E-006
  0.13740000000000002         -5.1784413699351717E-006
  0.13850000000000001         -4.4295929910731502E-006
  0.13960000000000000         -3.7233417060633656E-006
  0.14070000000000005         -3.0622611575381598E-006
  0.14180000000000004         -2.4480873435095418E-006
  0.14290000000000003         -1.8818109310814179E-006
  0.14400000000000002         -1.3637529718835140E-006
  0.14510000000000001         -8.9361947175348178E-007
  0.14620000000000000         -4.7055951313268451E-007
  0.14730000000000004         -9.3248800681067223E-008
  0.14840000000000003          2.4000672738111462E-007
  0.14950000000000002          5.3117923926038202E-007
  0.15060000000000001          7.8246353041322436E-007
  0.15170000000000000          9.9625003713299520E-007
  0.15280000000000005          1.1750951216527028E-006
  0.15390000000000004          1.3216651950642699E-006
  0.15500000000000003          1.4386660041054711E-006
  0.15610000000000002          1.5287836276911548E-006
  0.15720000000000001          1.5946559415169759E-006
  0.15830000000000000          1.6388630683650263E-006
  0.15940000000000004          1.6639087334624492E-006
  0.16050000000000003          1.6721849078749074E-006
  0.16160000000000002          1.6659337234159466E-006
  0.16270000000000001          1.6472325796712539E-006
  0.16380000000000000          1.6180065358639695E-006
  0.16490000000000005          1.5800452501935069E-006
  0.16600000000000004          1.5349996829172596E-006
  0.16710000000000003          1.4843586768620298E-006
  0.16820000000000002          1.4294311085905065E-006
  0.16930000000000001          1.3713575981455506E-006
  0.17040000000000000          1.3111463204040774E-006
  0.17150000000000004          1.2497043826442678E-006
  0.17260000000000003          1.1878411214638618E-006
  0.17370000000000002          1.1262476391493692E-006
  0.17480000000000001          1.0654833886292181E-006
  0.17590000000000000          1.0059900432679569E-006
  0.17700000000000005          9.4812293127688463E-007
  0.17810000000000004          8.9217462573287776E-007
  0.17920000000000003          8.3837386455343221E-007
  0.18030000000000002          7.8687475024707965E-007
  0.18140000000000001          7.3776237741185469E-007
  0.18250000000000000          6.9108398292883066E-007
  0.18360000000000004          6.4688396150813787E-007
  0.18470000000000003          6.0521188061102293E-007
  0.18580000000000002          5.6609707144161803E-007
  0.18690000000000001          5.2951691031921655E-007
  0.18800000000000000          4.9539158908373793E-007
  0.18910000000000005          4.6361262207028631E-007
  0.19020000000000004          4.3407740690781793E-007
  0.19130000000000003          4.0669877421350975E-007
  0.19240000000000002          3.8138523450470529E-007
  0.19350000000000001          3.5801863873530237E-007
  0.19460000000000005          3.3645781627456017E-007
  0.19570000000000004          3.1656659871259762E-007
  0.19680000000000003          2.9823658564964717E-007
  0.19790000000000002          2.8138001084698772E-007
  0.19900000000000001          2.6589893309392210E-007
  0.20010000000000000          2.5166389150399482E-007
  0.20120000000000005          2.3852578578953398E-007
  0.20230000000000004          2.2635100549450726E-007
  0.20340000000000003          2.1504486369394726E-007
  0.20450000000000002          2.0454055515983782E-007
  0.20560000000000000          1.9476620138902945E-007
  0.20670000000000005          1.8562514014774933E-007
  0.20780000000000004          1.7701061949537689E-007
  0.20890000000000003          1.6884041542652994E-007
