 -0.12000000000000000          0.0000000000000000
 -0.11889999999999999          0.0000000000000000
 -0.11780000000000000          0.0000000000000000
 -0.11670000000000000          0.0000000000000000
 -0.11559999999999999          0.0000000000000000
 -0.11449999999999999          0.0000000000000000
 -0.11340000000000000          0.0000000000000000
 -0.11230000000000000          0.0000000000000000
 -0.11119999999999999          0.0000000000000000
 -0.11009999999999999          1.3171808982297994E-025
 -0.10900000000000000          2.2060692429732933E-024
 -0.10790000000000000          1.3429444988181476E-023
 -0.10679999999999999          3.4743728273444632E-023
 -0.10569999999999999         -1.6209067385215769E-023
 -0.10460000000000000         -4.1342324446946108E-022
 -0.10349999999999999         -1.3412164138082393E-021
 -0.10239999999999999         -1.5374659229040638E-021
 -0.10130000000000000          3.3396041963284080E-021
 -0.10020000000000000          1.7767537442844915E-020
  -9.9099999999999994E-002     3.2650557149222055E-020
  -9.7999999999999990E-002     8.0236947548185010E-021
  -9.6899999999999986E-002    -1.1121498911973207E-019
  -9.5799999999999996E-002    -3.0192991917100472E-019
  -9.4699999999999993E-002    -3.2728137643389425E-019
  -9.3599999999999989E-002     2.3808372509722382E-019
  -9.2499999999999999E-002     1.5562504700244643E-018
  -9.1399999999999995E-002     2.7323775341755209E-018
  -9.0299999999999991E-002     1.5364659641330339E-018
  -8.9200000000000002E-002    -4.0666581193273404E-018
  -8.8099999999999984E-002    -1.2423667983852786E-017
  -8.6999999999999994E-002    -1.5500022992288298E-017
  -8.5899999999999990E-002    -2.0318610208692260E-018
  -8.4799999999999986E-002     3.1029536627778843E-017
  -8.3699999999999997E-002     6.5291026727474910E-017
  -8.2599999999999993E-002     6.1479391699716008E-017
  -8.1499999999999989E-002    -1.3825721751344253E-017
  -8.0399999999999999E-002    -1.4489295303149906E-016
  -7.9299999999999995E-002    -2.4433430340177893E-016
  -7.8199999999999992E-002    -1.9178104416188850E-016
  -7.7100000000000002E-002     6.8395819378198092E-017
  -7.5999999999999984E-002     4.3839878957079301E-016
  -7.4899999999999994E-002     6.8061188424462110E-016
  -7.3799999999999991E-002     5.6082686712412134E-016
  -7.2699999999999987E-002     2.5665645895440883E-017
  -7.1599999999999997E-002    -7.4050484279104433E-016
  -7.0499999999999993E-002    -1.4336845783906676E-015
  -6.9399999999999989E-002    -1.7846334100861690E-015
  -6.8300000000000000E-002    -1.5490135139949047E-015
  -6.7199999999999996E-002    -3.6108741902759442E-016
  -6.6099999999999992E-002     2.1771086672952900E-015
  -6.5000000000000002E-002     5.8138571200682876E-015
  -6.3899999999999985E-002     8.6859738965195531E-015
  -6.2799999999999995E-002     7.2791207807980138E-015
  -6.1699999999999991E-002    -1.4809929566833971E-015
  -6.0599999999999994E-002    -1.6435307230295594E-014
  -5.9499999999999990E-002    -2.9600166041129721E-014
  -5.8399999999999994E-002    -2.8582872695209860E-014
  -5.7299999999999990E-002    -5.0232789187413259E-015
  -5.6199999999999986E-002     3.5548908922887797E-014
  -5.5099999999999996E-002     7.1050675380050385E-014
  -5.3999999999999992E-002     7.3334106799248506E-014
  -5.2899999999999989E-002     2.8088644217066549E-014
  -5.1799999999999985E-002    -4.9622811963049805E-014
  -5.0699999999999995E-002    -1.1866317661551944E-013
  -4.9599999999999991E-002    -1.3593145435205879E-013
  -4.8499999999999988E-002    -8.5590294075240899E-014
  -4.7399999999999998E-002     9.6008279248344053E-015
  -4.6299999999999994E-002     1.0528619534368727E-013
  -4.5199999999999990E-002     1.6673648410305881E-013
  -4.4099999999999986E-002     1.8566374024133113E-013
  -4.2999999999999997E-002     1.6655894599736798E-013
  -4.1899999999999993E-002     9.8894796431900856E-014
  -4.0799999999999989E-002    -4.6753060949569221E-014
  -3.9699999999999985E-002    -2.7738694587804445E-013
  -3.8599999999999995E-002    -5.1916728294888756E-013
  -3.7499999999999992E-002    -6.0816271723475906E-013
  -3.6399999999999988E-002    -3.7655775307794939E-013
  -3.5299999999999984E-002     1.9894893024685207E-013
  -3.4199999999999994E-002     8.9882268294888058E-013
  -3.3099999999999991E-002     1.3238167072966224E-012
  -3.1999999999999987E-002     1.1250261789870997E-012
  -3.0899999999999997E-002     2.6384550468892703E-013
  -2.9799999999999993E-002    -8.9454902903558419E-013
  -2.8699999999999989E-002    -1.7561340836386868E-012
  -2.7599999999999986E-002    -1.8485375990332649E-012
  -2.6499999999999996E-002    -1.1096820077407129E-012
  -2.5399999999999992E-002     9.0075841751032378E-014
  -2.4299999999999988E-002     1.1995321185995079E-012
  -2.3199999999999985E-002     1.8130541555927109E-012
  -2.2099999999999995E-002     1.8310765230452279E-012
  -2.0999999999999991E-002     1.3731414009314544E-012
  -1.9899999999999987E-002     5.8180131719285851E-013
  -1.8799999999999983E-002    -4.6287122355443143E-013
  -1.7699999999999994E-002    -1.6326056175365274E-012
  -1.6599999999999990E-002    -2.5850764671239228E-012
  -1.5499999999999986E-002    -2.7833451689279255E-012
  -1.4399999999999996E-002    -1.7991586952901651E-012
  -1.3299999999999992E-002     2.7755220539431773E-013
  -1.2199999999999989E-002     2.6650960084646678E-012
  -1.1099999999999985E-002     4.1782016214916534E-012
  -9.9999999999999950E-003     3.8727437055855412E-012
  -8.8999999999999913E-003     1.6519032235840816E-012
  -7.7999999999999875E-003    -1.5760420312576346E-012
  -6.6999999999999837E-003    -4.3186838653850405E-012
  -5.5999999999999939E-003    -5.2613725008699852E-012
  -4.4999999999999901E-003    -3.9323167118346177E-012
  -3.3999999999999864E-003    -9.1478755993729206E-013
  -2.2999999999999826E-003     2.4748714362596156E-012
  -1.1999999999999927E-003     4.8444282439716466E-012
  -9.9999999999988987E-005     5.3757263397667597E-012
   1.0000000000000148E-003     4.1530355543425109E-012
   2.1000000000000185E-003     2.0155784593432054E-012
   3.2000000000000084E-003     9.8333765857061878E-015
   4.3000000000000121E-003    -1.2650930650270670E-012
   5.4000000000000159E-003    -2.0317695009060027E-012
   6.5000000000000058E-003    -3.1654735256623680E-012
   7.6000000000000234E-003    -5.5382187551250151E-012
   8.7000000000000133E-003    -9.2578271437829072E-012
   9.8000000000000032E-003    -1.3270787246887410E-011
   1.0900000000000021E-002    -1.5552859347620271E-011
   1.2000000000000011E-002    -1.3715006560996192E-011
   1.3100000000000001E-002    -5.6296790146277550E-012
   1.4200000000000018E-002     1.0189551459536848E-011
   1.5300000000000008E-002     3.4402192899957486E-011
   1.6400000000000026E-002     6.6642552587473560E-011
   1.7500000000000016E-002     1.0530836619392558E-010
   1.8600000000000005E-002     1.4769159506488165E-010
   1.9700000000000023E-002     1.9086610070216845E-010
   2.0800000000000013E-002     2.3328480813765136E-010
   2.1900000000000003E-002     2.7635868593553884E-010
   2.3000000000000020E-002     3.2502009417175914E-010
   2.4100000000000010E-002     3.8678799052501195E-010
   2.5200000000000000E-002     4.6984771628895134E-010
   2.6300000000000018E-002     5.8133842184554962E-010
   2.7400000000000008E-002     7.2682293517083950E-010
   2.8500000000000025E-002     9.1097634991036430E-010
   2.9600000000000015E-002     1.1386981357829458E-009
   3.0700000000000005E-002     1.4158381134164863E-009
   3.1800000000000023E-002     1.7494615756062483E-009
   3.2900000000000013E-002     2.1482640111257006E-009
   3.4000000000000002E-002     2.6236495198614874E-009
   3.5100000000000020E-002     3.1911639997159193E-009
   3.6200000000000010E-002     3.8712584249364027E-009
   3.7300000000000028E-002     4.6885841875617137E-009
   3.8400000000000017E-002     5.6701163764211690E-009
   3.9500000000000007E-002     6.8434808930811221E-009
   4.0600000000000025E-002     8.2369258080909223E-009
   4.1700000000000015E-002     9.8813073279293692E-009
   4.2800000000000005E-002     1.1813096278955393E-008
   4.3900000000000022E-002     1.4076788623639123E-008
   4.5000000000000012E-002     1.6725620000100540E-008
   4.6100000000000002E-002     1.9820568297744155E-008
   4.7200000000000020E-002     2.3428546214174913E-008
   4.8300000000000010E-002     2.7620826514860064E-008
   4.9400000000000027E-002     3.2472577515815665E-008
   5.0500000000000017E-002     3.8063838303511391E-008
   5.1600000000000007E-002     4.4481808458836562E-008
   5.2700000000000025E-002     5.1823469959795056E-008
   5.3800000000000014E-002     6.0197038465043136E-008
   5.4900000000000004E-002     6.9720947237777288E-008
   5.6000000000000022E-002     8.0520180745217695E-008
   5.7100000000000012E-002     9.2721926137065413E-008
   5.8200000000000002E-002     1.0645305792421774E-007
   5.9300000000000019E-002     1.2184099773547852E-007
   6.0400000000000009E-002     1.3901698991957001E-007
   6.1500000000000027E-002     1.5811808395936558E-007
   6.2600000000000017E-002     1.7928540785304191E-007
   6.3700000000000007E-002     2.0265794375971366E-007
   6.4800000000000024E-002     2.2836512414412686E-007
   6.5900000000000014E-002     2.5652133217588415E-007
   6.7000000000000004E-002     2.8722425327029787E-007
   6.8100000000000022E-002     3.2055470455813331E-007
   6.9200000000000012E-002     3.5657495800475255E-007
   7.0300000000000029E-002     3.9532437767771658E-007
   7.1400000000000019E-002     4.3681268380165072E-007
   7.2500000000000009E-002     4.8101389893413551E-007
   7.3600000000000027E-002     5.2786202786587356E-007
   7.4700000000000016E-002     5.7724753332872005E-007
   7.5800000000000006E-002     6.2901210640114782E-007
   7.6900000000000024E-002     6.8294224320191549E-007
   7.8000000000000014E-002     7.3876253736664263E-007
   7.9100000000000004E-002     7.9613204206900202E-007
   8.0200000000000021E-002     8.5464387211678821E-007
   8.1300000000000011E-002     9.1382770506234666E-007
   8.2400000000000029E-002     9.7315160019197815E-007
   8.3500000000000019E-002     1.0320221690561948E-006
   8.4600000000000009E-002     1.0897852007473275E-006
   8.5700000000000026E-002     1.1457259461166203E-006
   8.6800000000000016E-002     1.1990698567386765E-006
   8.7900000000000006E-002     1.2489844039008603E-006
   8.9000000000000024E-002     1.2945807839058644E-006
   9.0100000000000013E-002     1.3349213077161609E-006
   9.1200000000000003E-002     1.3690342939297433E-006
   9.2300000000000021E-002     1.3959377156423724E-006
   9.3400000000000011E-002     1.4146645526123880E-006
   9.4500000000000028E-002     1.4242839370125259E-006
   9.5600000000000018E-002     1.4239112715584742E-006
   9.6700000000000008E-002     1.4127119811745184E-006
   9.7800000000000026E-002     1.3899049235986738E-006
   9.8900000000000016E-002     1.3547755770558594E-006
  0.10000000000000001          1.3066984365649318E-006
  0.10110000000000002          1.2451647535270860E-006
  0.10220000000000001          1.1698072057696442E-006
  0.10330000000000003          1.0804222938530843E-006
  0.10440000000000002          9.7698750778353748E-007
  0.10550000000000001          8.5967639051878578E-007
  0.10660000000000003          7.2886871294023836E-007
  0.10770000000000002          5.8515109913053856E-007
  0.10880000000000001          4.2930793142654677E-007
  0.10990000000000003          2.6230901539744702E-007
  0.11100000000000002          8.5301600449824850E-008
  0.11210000000000001         -1.0038758802010859E-007
  0.11320000000000002         -2.9324502293091086E-007
  0.11430000000000001         -4.9156921022582152E-007
  0.11540000000000003         -6.9348385522965593E-007
  0.11650000000000002         -8.9696669647302200E-007
  0.11760000000000001         -1.0998867310262473E-006
  0.11870000000000003         -1.3000425269636905E-006
  0.11980000000000002         -1.4952008768885673E-006
  0.12090000000000001         -1.6831345419630736E-006
  0.12200000000000003         -1.8616622128318453E-006
  0.12310000000000001         -2.0286797735023307E-006
  0.12420000000000003         -2.1821822429044713E-006
  0.12530000000000002         -2.3202742340797731E-006
  0.12640000000000001         -2.4411867798332877E-006
  0.12750000000000003         -2.5433096197955263E-006
  0.12860000000000002         -2.6252425868731093E-006
  0.12970000000000001         -2.6858529054149789E-006
  0.13080000000000003         -2.7243127078688461E-006
  0.13190000000000002         -2.7401092665965871E-006
  0.13300000000000001         -2.7330352168061973E-006
  0.13410000000000000         -2.7031755962522924E-006
  0.13520000000000004         -2.6509017061468712E-006
  0.13630000000000003         -2.5768713385329911E-006
  0.13740000000000002         -2.4820237740639075E-006
  0.13850000000000001         -2.3675622742300670E-006
  0.13960000000000000         -2.2349363462124188E-006
  0.14070000000000005         -2.0858260540988135E-006
  0.14180000000000004         -1.9221374714104915E-006
  0.14290000000000003         -1.7459893797420701E-006
  0.14400000000000002         -1.5596770026603110E-006
  0.14510000000000001         -1.3656130022353418E-006
  0.14620000000000000         -1.1662618817352920E-006
  0.14730000000000004         -9.6409132765974633E-007
  0.14840000000000003         -7.6154879025117586E-007
  0.14950000000000002         -5.6104937584671909E-007
  0.15060000000000001         -3.6495492850004270E-007
  0.15170000000000000         -1.7553742281959394E-007
  0.15280000000000005          5.0595287959300396E-009
  0.15390000000000004          1.7484386205522872E-007
  0.15500000000000003          3.3198065807479909E-007
  0.15610000000000002          4.7479767317777672E-007
  0.15720000000000001          6.0180974514873072E-007
  0.15830000000000000          7.1175946914075077E-007
  0.15940000000000004          8.0365072108172004E-007
  0.16050000000000003          8.7674931137363253E-007
  0.16160000000000002          9.3055172101221922E-007
  0.16270000000000001          9.6474639121870400E-007
  0.16380000000000000          9.7919848940354916E-007
  0.16490000000000005          9.7396161891074021E-007
  0.16600000000000004          9.4929345095797364E-007
  0.16710000000000003          9.0564986976451268E-007
  0.16820000000000002          8.4365365182739636E-007
  0.16930000000000001          7.6406155358191862E-007
  0.17040000000000000          6.6775601226247463E-007
  0.17150000000000004          5.5575952728753240E-007
  0.17260000000000003          4.2924574472631088E-007
  0.17370000000000002          2.8951993158440141E-007
  0.17480000000000001          1.3797277631508815E-007
  0.17590000000000000         -2.3960428308107267E-008
  0.17700000000000005         -1.9480447122076827E-007
  0.17810000000000004         -3.7301626321093109E-007
  0.17920000000000003         -5.5695795708739102E-007
  0.18030000000000002         -7.4490236556806260E-007
  0.18140000000000001         -9.3506821485781435E-007
  0.18250000000000000         -1.1256518064327739E-006
  0.18360000000000004         -1.3148243169779330E-006
  0.18470000000000003         -1.5007003639765162E-006
  0.18580000000000002         -1.6813147567516679E-006
  0.18690000000000001         -1.8546382989368953E-006
  0.18800000000000000         -2.0186250822005602E-006
  0.18910000000000005         -2.1712544366889992E-006
  0.19020000000000004         -2.3105385480446495E-006
  0.19130000000000003         -2.4344958546860240E-006
  0.19240000000000002         -2.5411395654370995E-006
  0.19350000000000001         -2.6285051717420467E-006
  0.19460000000000005         -2.6947129754259766E-006
  0.19570000000000004         -2.7380201572666172E-006
  0.19680000000000003         -2.7568326004254364E-006
  0.19790000000000002         -2.7496867005536056E-006
  0.19900000000000001         -2.7152507300340544E-006
  0.20010000000000000         -2.6523771339268207E-006
  0.20120000000000005         -2.5601875677236676E-006
  0.20230000000000004         -2.4381399725823383E-006
  0.20340000000000003         -2.2860426724944339E-006
  0.20450000000000002         -2.1040302726758177E-006
  0.20560000000000000         -1.8925446738647129E-006
  0.20670000000000005         -1.6523633803442977E-006
  0.20780000000000004         -1.3846544106853240E-006
  0.20890000000000003         -1.0910132459683767E-006
