 -0.12000000000000000          0.0000000000000000
 -0.11889999999999999          0.0000000000000000
 -0.11780000000000000          0.0000000000000000
 -0.11670000000000000          0.0000000000000000
 -0.11559999999999999          0.0000000000000000
 -0.11449999999999999          0.0000000000000000
 -0.11340000000000000          0.0000000000000000
 -0.11230000000000000          0.0000000000000000
 -0.11119999999999999          0.0000000000000000
 -0.11009999999999999          0.0000000000000000
 -0.10900000000000000          1.7428017400672089E-026
 -0.10790000000000000          3.4187025286934362E-025
 -0.10679999999999999          2.8049012475202860E-024
 -0.10569999999999999          1.2379621006904116E-023
 -0.10460000000000000          2.6300477429661973E-023
 -0.10349999999999999         -2.3892239702759647E-023
 -0.10239999999999999         -3.7119333664598334E-022
 -0.10130000000000000         -1.2802478914204038E-021
 -0.10020000000000000         -1.9902312889259633E-021
  -9.9099999999999994E-002     1.4667744942220190E-021
  -9.7999999999999990E-002     1.6412920945451443E-020
  -9.6899999999999986E-002     4.3071271877416277E-020
  -9.5799999999999996E-002     4.7720295107428518E-020
  -9.4699999999999993E-002    -5.7757795798635659E-020
  -9.3599999999999989E-002    -3.5667045736309147E-019
  -9.2499999999999999E-002    -7.1492517239437512E-019
  -9.1399999999999995E-002    -5.1714840758326587E-019
  -9.0299999999999991E-002     1.1904485590842655E-018
  -8.9200000000000002E-002     4.5477893769797930E-018
  -8.8099999999999984E-002     6.9199891045976352E-018
  -8.6999999999999994E-002     2.2847888639523730E-018
  -8.5899999999999990E-002    -1.4462511856660841E-017
  -8.4799999999999986E-002    -3.7413326166214238E-017
  -8.3699999999999997E-002    -4.1483412121999757E-017
  -8.2599999999999993E-002     7.5252888575909701E-018
  -8.1499999999999989E-002     1.1433572329860707E-016
  -8.0399999999999999E-002     2.0760786801625762E-016
  -7.9299999999999995E-002     1.4493382237121320E-016
  -7.8199999999999992E-002    -1.7435409566088264E-016
  -7.7100000000000002E-002    -6.2378227329149731E-016
  -7.5999999999999984E-002    -7.7095535960767527E-016
  -7.4899999999999994E-002    -1.2821523164209563E-016
  -7.3799999999999991E-002     1.2692299553078651E-015
  -7.2699999999999987E-002     2.4067405698452926E-015
  -7.1599999999999997E-002     1.6698217998549329E-015
  -7.0499999999999993E-002    -1.6718069274459417E-015
  -6.9399999999999989E-002    -5.8030883666926238E-015
  -6.8300000000000000E-002    -6.4640548569729929E-015
  -6.7199999999999996E-002    -1.1047879186050911E-016
  -6.6099999999999992E-002     1.1345728501664654E-014
  -6.5000000000000002E-002     1.8731493271620728E-014
  -6.3899999999999985E-002     1.0952753495016652E-014
  -6.2799999999999995E-002    -1.3912072313387522E-014
  -6.1699999999999991E-002    -4.0780513053907327E-014
  -6.0599999999999994E-002    -4.3768950323905959E-014
  -5.9499999999999990E-002    -7.4116636493513216E-015
  -5.8399999999999994E-002     5.2589985317930132E-014
  -5.7299999999999990E-002     9.1973182000069931E-014
  -5.6199999999999986E-002     7.1431372644127633E-014
  -5.5099999999999996E-002    -3.1406234678735745E-015
  -5.3999999999999992E-002    -7.6390594696239267E-014
  -5.2899999999999989E-002    -9.4012166486964061E-014
  -5.1799999999999985E-002    -6.7855463815099520E-014
  -5.0699999999999995E-002    -7.6787189074670886E-014
  -4.9599999999999991E-002    -1.6639550251985186E-013
  -4.8499999999999988E-002    -2.2615646876923690E-013
  -4.7399999999999998E-002    -7.3529117500638688E-015
  -4.6299999999999994E-002     6.2898200103161939E-013
  -4.5199999999999990E-002     1.3843104180316645E-012
  -4.4099999999999986E-002     1.4774492393399008E-012
  -4.2999999999999997E-002     1.5478343975451614E-013
  -4.1899999999999993E-002    -2.4406650745573133E-012
  -4.0799999999999989E-002    -4.7692917323760575E-012
  -3.9699999999999985E-002    -4.5257105354967742E-012
  -3.8599999999999995E-002    -3.9670784018897010E-013
  -3.7499999999999992E-002     6.2073879023016865E-012
  -3.6399999999999988E-002     1.1121662618629458E-011
  -3.5299999999999984E-002     9.8535346548800362E-012
  -3.4199999999999994E-002     1.2033267177830043E-012
  -3.3099999999999991E-002    -1.0740669638409361E-011
  -3.1999999999999987E-002    -1.8464703724352383E-011
  -3.0899999999999997E-002    -1.6129748578452840E-011
  -2.9799999999999993E-002    -4.2336334091230832E-012
  -2.8699999999999989E-002     1.0234684627574708E-011
  -2.7599999999999986E-002     1.8900611978289739E-011
  -2.6499999999999996E-002     1.8413062741196029E-011
  -2.5399999999999992E-002     1.2385953374050018E-011
  -2.4299999999999988E-002     6.6296989599534673E-012
  -2.3199999999999985E-002     1.9584986844095598E-012
  -2.2099999999999995E-002    -7.6212178928836138E-012
  -2.0999999999999991E-002    -2.7502595686956788E-011
  -1.9899999999999987E-002    -5.1376965182203804E-011
  -1.8799999999999983E-002    -5.8401831981580443E-011
  -1.7699999999999994E-002    -2.6349028861560875E-011
  -1.6599999999999990E-002     4.5582364271989917E-011
  -1.5499999999999986E-002     1.2326817344643359E-010
  -1.4399999999999996E-002     1.5066563274768185E-010
  -1.3299999999999992E-002     8.7574635043718985E-011
  -1.2199999999999989E-002    -5.2667648020587876E-011
  -1.1099999999999985E-002    -1.9739165857401986E-010
  -9.9999999999999950E-003    -2.5336829856392740E-010
  -8.8999999999999913E-003    -1.6882857611921764E-010
  -7.7999999999999875E-003     2.4835975290238288E-011
  -6.6999999999999837E-003     2.2517056275095371E-010
  -5.5999999999999939E-003     3.2004041083943946E-010
  -4.4999999999999901E-003     2.5652838187006921E-010
  -3.3999999999999864E-003     6.9470020014339440E-011
  -2.2999999999999826E-003    -1.4717428664656751E-010
  -1.1999999999999927E-003    -2.9973767912139238E-010
  -9.9999999999988987E-005    -3.3920263819986474E-010
   1.0000000000000148E-003    -2.6429219923684855E-010
   2.1000000000000185E-003    -9.6769835200571919E-011
   3.2000000000000084E-003     1.3497447604038371E-010
   4.3000000000000121E-003     3.8376293809427864E-010
   5.4000000000000159E-003     5.6165988526757360E-010
   6.5000000000000058E-003     5.5008170241066523E-010
   7.6000000000000234E-003     2.6361307581268534E-010
   8.7000000000000133E-003    -2.6270621789059589E-010
   9.8000000000000032E-003    -8.3203904877038326E-010
   1.0900000000000021E-002    -1.1464590388143847E-009
   1.2000000000000011E-002    -9.6055519094306874E-010
   1.3100000000000001E-002    -2.4587495928152237E-010
   1.4200000000000018E-002     7.4112171954965333E-010
   1.5300000000000008E-002     1.5487254811930029E-009
   1.6400000000000026E-002     1.7466401658339237E-009
   1.7500000000000016E-002     1.1589680326551388E-009
   1.8600000000000005E-002    -1.5786379148341467E-011
   1.9700000000000023E-002    -1.2722386477648229E-009
   2.0800000000000013E-002    -2.0296015978971127E-009
   2.1900000000000003E-002    -1.9148302943250428E-009
   2.3000000000000020E-002    -9.5333807514919044E-010
   2.4100000000000010E-002     4.3276099370714860E-010
   2.5200000000000000E-002     1.6195474961122613E-009
   2.6300000000000018E-002     2.0685764212657887E-009
   2.7400000000000008E-002     1.5615683190972618E-009
   2.8500000000000025E-002     2.7797505963711444E-010
   2.9600000000000015E-002    -1.2925419623499579E-009
   3.0700000000000005E-002    -2.5277504533960382E-009
   3.1800000000000023E-002    -2.8545095176468749E-009
   3.2900000000000013E-002    -1.9036339171663030E-009
   3.4000000000000002E-002     3.4122149550341874E-010
   3.5100000000000020E-002     3.4025298134565674E-009
   3.6200000000000010E-002     6.2672218525960943E-009
   3.7300000000000028E-002     7.5924555531514670E-009
   3.8400000000000017E-002     6.2203149298056815E-009
   3.9500000000000007E-002     1.8340065022215413E-009
   4.0600000000000025E-002    -4.6274504228449587E-009
   4.1700000000000015E-002    -1.1170714131480963E-008
   4.2800000000000005E-002    -1.5626907767796183E-008
   4.3900000000000022E-002    -1.6810822955903859E-008
   4.5000000000000012E-002    -1.5284765453316140E-008
   4.6100000000000002E-002    -1.3199776383032713E-008
   4.7200000000000020E-002    -1.3221009176334064E-008
   4.8300000000000010E-002    -1.7127128160154825E-008
   4.9400000000000027E-002    -2.4904942108605610E-008
   5.0500000000000017E-002    -3.4870733855996150E-008
   5.1600000000000007E-002    -4.4729329573556242E-008
   5.2700000000000025E-002    -5.2941249606419660E-008
   5.3800000000000014E-002    -5.9642097482992540E-008
   5.4900000000000004E-002    -6.6683710997494927E-008
   5.6000000000000022E-002    -7.6892462175237597E-008
   5.7100000000000012E-002    -9.3029029812896624E-008
   5.8200000000000002E-002    -1.1698983115593364E-007
   5.9300000000000019E-002    -1.4954841276448860E-007
   6.0400000000000009E-002    -1.9059390865550085E-007
   6.1500000000000027E-002    -2.3959498207659635E-007
   6.2600000000000017E-002    -2.9600857942568837E-007
   6.3700000000000007E-002    -3.5953138421973563E-007
   6.4800000000000024E-002    -4.3031292307205149E-007
   6.5900000000000014E-002    -5.0932322892549564E-007
   6.7000000000000004E-002    -5.9890703596465755E-007
   6.8100000000000022E-002    -7.0324142598110484E-007
   6.9200000000000012E-002    -8.2820207580880378E-007
   7.0300000000000029E-002    -9.8030545814253855E-007
   7.1400000000000019E-002    -1.1649692623905139E-006
   7.2500000000000009E-002    -1.3849775086782756E-006
   7.3600000000000027E-002    -1.6402198070863960E-006
   7.4700000000000016E-002    -1.9292001525172964E-006
   7.5800000000000006E-002    -2.2517147044709418E-006
   7.6900000000000024E-002    -2.6111999886779813E-006
   7.8000000000000014E-002    -3.0152668841765262E-006
   7.9100000000000004E-002    -3.4739782677206676E-006
   8.0200000000000021E-002    -3.9968685996427666E-006
   8.1300000000000011E-002    -4.5905267143098172E-006
   8.2400000000000029E-002    -5.2581581257982180E-006
   8.3500000000000019E-002    -6.0012152971467003E-006
   8.4600000000000009E-002    -6.8218246269680094E-006
   8.5700000000000026E-002    -7.7242621046025306E-006
   8.6800000000000016E-002    -8.7144881035783328E-006
   8.7900000000000006E-002    -9.7980728241964243E-006
   8.9000000000000024E-002    -1.0977887541230302E-005
   9.0100000000000013E-002    -1.2253087334102020E-005
   9.1200000000000003E-002    -1.3620011486636940E-005
   9.2300000000000021E-002    -1.5074451766849961E-005
   9.3400000000000011E-002    -1.6613688785582781E-005
   9.4500000000000028E-002    -1.8236725736642256E-005
   9.5600000000000018E-002    -1.9942121070926078E-005
   9.6700000000000008E-002    -2.1724192265537567E-005
   9.7800000000000026E-002    -2.3569713448523544E-005
   9.8900000000000016E-002    -2.5457236915826797E-005
  0.10000000000000001         -2.7359688829164952E-005
  0.10110000000000002         -2.9248982173157856E-005
  0.10220000000000001         -3.1099843909032643E-005
  0.10330000000000003         -3.2890089642023668E-005
  0.10440000000000002         -3.4596923796925694E-005
  0.10550000000000001         -3.6191468097968027E-005
  0.10660000000000003         -3.7634963518939912E-005
  0.10770000000000002         -3.8879315980011597E-005
  0.10880000000000001         -3.9871676563052461E-005
  0.10990000000000003         -4.0560567867942154E-005
  0.11100000000000002         -4.0899936720961705E-005
  0.11210000000000001         -4.0849146898835897E-005
  0.11320000000000002         -4.0369912312598899E-005
  0.11430000000000001         -3.9422608097083867E-005
  0.11540000000000003         -3.7964775401633233E-005
  0.11650000000000002         -3.5952623875346035E-005
  0.11760000000000001         -3.3344967960147187E-005
  0.11870000000000003         -3.0107696147751994E-005
  0.11980000000000002         -2.6216663172817789E-005
  0.12090000000000001         -2.1658641344401985E-005
  0.12200000000000003         -1.6430387404398061E-005
  0.12310000000000001         -1.0537041816860437E-005
  0.12420000000000003         -3.9919618757267017E-006
  0.12530000000000002          3.1811987355467863E-006
  0.12640000000000001          1.0945055691991001E-005
  0.12750000000000003          1.9245699149905704E-005
  0.12860000000000002          2.8013335395371541E-005
  0.12970000000000001          3.7166209949646145E-005
  0.13080000000000003          4.6614757593488321E-005
  0.13190000000000002          5.6263041187776253E-005
  0.13300000000000001          6.6006614360958338E-005
  0.13410000000000000          7.5728537922259420E-005
  0.13520000000000004          8.5297331679612398E-005
  0.13630000000000003          9.4569484645035118E-005
  0.13740000000000002          1.0339583241147920E-004
  0.13850000000000001          1.1162878945469856E-004
  0.13960000000000000          1.1912654736079276E-004
  0.14070000000000005          1.2575369328260422E-004
  0.14180000000000004          1.3138016220182180E-004
  0.14290000000000003          1.3588144793175161E-004
  0.14400000000000002          1.3914183364249766E-004
  0.14510000000000001          1.4105929585639387E-004
  0.14620000000000000          1.4154994278214872E-004
  0.14730000000000004          1.4055026986170560E-004
  0.14840000000000003          1.3801694149151444E-004
  0.14950000000000002          1.3392628170549870E-004
  0.15060000000000001          1.2827489990741014E-004
  0.15170000000000000          1.2108153896406293E-004
  0.15280000000000005          1.1239077139180154E-004
  0.15390000000000004          1.0227743041468784E-004
  0.15500000000000003          9.0848399850074202E-005
  0.15610000000000002          7.8239587310235947E-005
  0.15720000000000001          6.4607396780047566E-005
  0.15830000000000000          5.0116879720008001E-005
  0.15940000000000004          3.4933123970404267E-005
  0.16050000000000003          1.9221595721319318E-005
  0.16160000000000002          3.1576194032822968E-006
  0.16270000000000001         -1.3061020581517369E-005
  0.16380000000000000         -2.9208742489572614E-005
  0.16490000000000005         -4.5040898839943111E-005
  0.16600000000000004         -6.0315062000881881E-005
  0.16710000000000003         -7.4814568506553769E-005
  0.16820000000000002         -8.8361928646918386E-005
  0.16930000000000001         -1.0081708023790270E-004
  0.17040000000000000         -1.1206364433746785E-004
  0.17150000000000004         -1.2199320917716250E-004
  0.17260000000000003         -1.3049696281086653E-004
  0.17370000000000002         -1.3746830518357456E-004
  0.17480000000000001         -1.4281390758696944E-004
  0.17590000000000000         -1.4646703493781388E-004
  0.17700000000000005         -1.4839852519799024E-004
  0.17810000000000004         -1.4862268290016800E-004
  0.17920000000000003         -1.4719655155204237E-004
  0.18030000000000002         -1.4421185187529773E-004
  0.18140000000000001         -1.3978140486869961E-004
  0.18250000000000000         -1.3402520562522113E-004
  0.18360000000000004         -1.2706249253824353E-004
  0.18470000000000003         -1.1901264224434271E-004
  0.18580000000000002         -1.1000155791407451E-004
  0.18690000000000001         -1.0016658779932186E-004
  0.18800000000000000         -8.9655361080076545E-005
  0.18910000000000005         -7.8621145803481340E-005
  0.19020000000000004         -6.7220236815046519E-005
  0.19130000000000003         -5.5614138545934111E-005
  0.19240000000000002         -4.3971554987365380E-005
  0.19350000000000001         -3.2462045055581257E-005
  0.19460000000000005         -2.1239226043689996E-005
  0.19570000000000004         -1.0421057595522143E-005
  0.19680000000000003         -8.1753356084846018E-008
  0.19790000000000002          9.7373822427471168E-006
  0.19900000000000001          1.9005277863470837E-005
  0.20010000000000000          2.7682368454406969E-005
  0.20120000000000005          3.5717941500479355E-005
  0.20230000000000004          4.3062780605396256E-005
  0.20340000000000003          4.9685233534546569E-005
  0.20450000000000002          5.5578857427462935E-005
  0.20560000000000000          6.0760557971661910E-005
  0.20670000000000005          6.5266853198409081E-005
  0.20780000000000004          6.9154019001871347E-005
  0.20890000000000003          7.2499518864788115E-005
