 -0.12000000000000000          0.0000000000000000
 -0.11889999999999999          0.0000000000000000
 -0.11780000000000000          0.0000000000000000
 -0.11670000000000000          0.0000000000000000
 -0.11559999999999999          0.0000000000000000
 -0.11449999999999999          0.0000000000000000
 -0.11340000000000000          0.0000000000000000
 -0.11230000000000000          0.0000000000000000
 -0.11119999999999999          0.0000000000000000
 -0.11009999999999999          0.0000000000000000
 -0.10900000000000000          0.0000000000000000
 -0.10790000000000000         -8.8763681768375494E-039
 -0.10679999999999999         -3.5236261972616742E-037
 -0.10569999999999999         -5.1246430997081672E-036
 -0.10460000000000000         -4.0753025959862613E-035
 -0.10349999999999999         -2.0866815519270684E-034
 -0.10239999999999999         -7.3532631264180676E-034
 -0.10130000000000000         -1.7736455695931701E-033
 -0.10020000000000000         -2.5114418438218941E-033
  -9.9099999999999994E-002     1.4740034499908042E-034
  -9.7999999999999990E-002     1.0312391534573149E-032
  -9.6899999999999986E-002     2.3567752195232916E-032
  -9.5799999999999996E-002     1.1154398138067154E-032
  -9.4699999999999993E-002    -7.0602806185317167E-032
  -9.3599999999999989E-002    -1.8716163454569271E-031
  -9.2499999999999999E-002    -7.2257396768704095E-032
  -9.1399999999999995E-002     6.6376418514944154E-031
  -9.0299999999999991E-002     1.5942366597151442E-030
  -8.9200000000000002E-002     5.0808440080049735E-033
  -8.8099999999999984E-002    -7.8434790969351565E-030
  -8.6999999999999994E-002    -1.7230730975144204E-029
  -8.5899999999999990E-002    -4.5002037979705044E-031
  -8.4799999999999986E-002     8.1829296663113754E-029
  -8.3699999999999997E-002     1.9275219662275150E-028
  -8.2599999999999993E-002     8.0678824355240810E-029
  -8.1499999999999989E-002    -6.5078482453206883E-028
  -8.0399999999999999E-002    -1.8387390513519425E-027
  -7.9299999999999995E-002    -1.5660469194156454E-027
  -7.8199999999999992E-002     3.6469313130419479E-027
  -7.7100000000000002E-002     1.4067650211473373E-026
  -7.5999999999999984E-002     1.7744994654639118E-026
  -7.4899999999999994E-002    -1.1094059058914191E-026
  -7.3799999999999991E-002    -8.4978185959211063E-026
  -7.2699999999999987E-002    -1.4449407428752229E-025
  -7.1599999999999997E-002    -2.9465569509670165E-026
  -7.0499999999999993E-002     3.9504361940099222E-025
  -6.9399999999999989E-002     9.0887968245553383E-025
  -6.8300000000000000E-002     6.7806322171523134E-025
  -6.7199999999999996E-002    -1.2856243666090504E-024
  -6.6099999999999992E-002    -4.5303796637385997E-024
  -6.5000000000000002E-002    -5.4486673999574125E-024
  -6.3899999999999985E-002     1.6117198419123993E-024
  -6.2799999999999995E-002     1.7766960387937384E-023
  -6.1699999999999991E-002     3.0403639609416818E-023
  -6.0599999999999994E-002     1.3118546227963732E-023
  -5.9499999999999990E-002    -5.1506176850501847E-023
  -5.8399999999999994E-002    -1.3072713882686935E-022
  -5.7299999999999990E-002    -1.2252611561264274E-022
  -5.6199999999999986E-002     8.1372327659868139E-023
  -5.5099999999999996E-002     4.3953350544675759E-022
  -5.3999999999999992E-002     6.2944107773572863E-022
  -5.2899999999999989E-002     1.6665440142730541E-022
  -5.1799999999999985E-002    -1.0974656137499766E-021
  -5.0699999999999995E-002    -2.3700235123614432E-021
  -4.9599999999999991E-002    -1.9337170412404403E-021
  -4.8499999999999988E-002     1.5480788157609699E-021
  -4.7399999999999998E-002     6.8319876016630604E-021
  -4.6299999999999994E-002     9.0143622840100084E-021
  -4.5199999999999990E-002     2.1315458877339849E-021
  -4.4099999999999986E-002    -1.4300052860572391E-020
  -4.2999999999999997E-002    -2.9380731574847559E-020
  -4.1899999999999993E-002    -2.3587769256462765E-020
  -4.0799999999999989E-002     1.5360138129934514E-020
  -3.9699999999999985E-002     7.1360102425473965E-020
  -3.8599999999999995E-002     9.4448942832073739E-020
  -3.7499999999999992E-002     3.0566255876046508E-020
  -3.6399999999999988E-002    -1.1974443615667503E-019
  -3.5299999999999984E-002    -2.5873630534229919E-019
  -3.4199999999999994E-002    -2.2586151116123935E-019
  -3.3099999999999991E-002     7.2277148456762636E-020
  -3.1999999999999987E-002     5.1176537465071219E-019
  -3.0899999999999997E-002     7.3151696791611689E-019
  -2.9799999999999993E-002     3.5390294367803632E-019
  -2.8699999999999989E-002    -6.3133350501463978E-019
  -2.7599999999999986E-002    -1.6210311196965734E-018
  -2.6499999999999996E-002    -1.6329970110401889E-018
  -2.5399999999999992E-002    -6.7966555188383955E-020
  -2.4299999999999988E-002     2.4709499967104946E-018
  -2.3199999999999985E-002     4.0957897661399919E-018
  -2.2099999999999995E-002     2.7727807576055815E-018
  -2.0999999999999991E-002    -1.7972422002638712E-018
  -1.9899999999999987E-002    -7.0166058680953602E-018
  -1.8799999999999983E-002    -8.4246691027300763E-018
  -1.7699999999999994E-002    -2.9806440077097975E-018
  -1.6599999999999990E-002     7.4898400324400101E-018
  -1.5499999999999986E-002     1.5853412747946307E-017
  -1.4399999999999996E-002     1.3921254494642893E-017
  -1.3299999999999992E-002    -6.1906419348258215E-019
  -1.2199999999999989E-002    -1.9901348461288881E-017
  -1.1099999999999985E-002    -2.9122832376285164E-017
  -9.9999999999999950E-003    -1.7131936189932769E-017
  -8.8999999999999913E-003     1.2613387647606725E-017
  -7.7999999999999875E-003     4.0415141448112024E-017
  -6.6999999999999837E-003     4.2492843784555369E-017
  -5.5999999999999939E-003     1.0382320235331762E-017
  -4.4999999999999901E-003    -3.7491948029076179E-017
  -3.3999999999999864E-003    -6.4606068240727371E-017
  -2.2999999999999826E-003    -4.3408367286529060E-017
  -1.1999999999999927E-003     1.8361401204149936E-017
  -9.9999999999988987E-005     7.5722297029921293E-017
   1.0000000000000148E-003     7.7074863062898602E-017
   2.1000000000000185E-003     8.6119303857028934E-018
   3.2000000000000084E-003    -8.3623671824815623E-017
   4.3000000000000121E-003    -1.1971878973197556E-016
   5.4000000000000159E-003    -4.9372858972461072E-017
   6.5000000000000058E-003     9.3949314471755864E-017
   7.6000000000000234E-003     1.9909812504188769E-016
   8.7000000000000133E-003     1.5448689817836362E-016
   9.8000000000000032E-003    -5.2392815979553371E-017
   1.0900000000000021E-002    -2.9426880146658015E-016
   1.2000000000000011E-002    -3.7306136793717167E-016
   1.3100000000000001E-002    -1.6799396348796651E-016
   1.4200000000000018E-002     2.4239981249917701E-016
   1.5300000000000008E-002     5.9248980572548966E-016
   1.6400000000000026E-002     5.9685255479944134E-016
   1.7500000000000016E-002     1.7015132993484361E-016
   1.8600000000000005E-002    -4.6687249030707197E-016
   1.9700000000000023E-002    -9.0123839719736566E-016
   2.0800000000000013E-002    -8.0854038199927591E-016
   2.1900000000000003E-002    -2.0406507330502770E-016
   2.3000000000000020E-002     5.3914875290509735E-016
   2.4100000000000010E-002     9.4825613730826781E-016
   2.5200000000000000E-002     8.0522197160972958E-016
   2.6300000000000018E-002     3.1231550015232306E-016
   2.7400000000000008E-002    -9.4957065303306768E-017
   2.8500000000000025E-002    -1.6215524626853441E-016
   2.9600000000000015E-002    -9.8556128148524991E-017
   3.0700000000000005E-002    -4.1427407362318487E-016
   3.1800000000000023E-002    -1.3502885731403783E-015
   3.2900000000000013E-002    -2.3587108371206584E-015
   3.4000000000000002E-002    -2.2074667516412986E-015
   3.5100000000000020E-002     1.0612009928028139E-016
   3.6200000000000010E-002     4.1558646647166068E-015
   3.7300000000000028E-002     7.6162415878710220E-015
   3.8400000000000017E-002     7.2956125122809572E-015
   3.9500000000000007E-002     1.4297037352969813E-015
   4.0600000000000025E-002    -8.1950276710593579E-015
   4.1700000000000015E-002    -1.6124356353158092E-014
   4.2800000000000005E-002    -1.5987250518117828E-014
   4.3900000000000022E-002    -4.9719275463204482E-015
   4.5000000000000012E-002     1.2859120574458018E-014
   4.6100000000000002E-002     2.7321151051707022E-014
   4.7200000000000020E-002     2.7608896614218781E-014
   4.8300000000000010E-002     9.8462667327218339E-015
   4.9400000000000027E-002    -1.8300250163448724E-014
   5.0500000000000017E-002    -4.0097760452707104E-014
   5.1600000000000007E-002    -3.9345778154661892E-014
   5.2700000000000025E-002    -1.1950142413705116E-014
   5.3800000000000014E-002     2.8374065521186848E-014
   5.4900000000000004E-002     5.5778573085233166E-014
   5.6000000000000022E-002     4.7981113033461822E-014
   5.7100000000000012E-002     3.1250914247197724E-015
   5.8200000000000002E-002    -5.4000105439728358E-014
   5.9300000000000019E-002    -8.3411427179332087E-014
   6.0400000000000009E-002    -5.5220012454759368E-014
   6.1500000000000027E-002     2.5827576161747620E-014
   6.2600000000000017E-002     1.1421886928018182E-013
   6.3700000000000007E-002     1.4510906311184651E-013
   6.4800000000000024E-002     7.5522338491458563E-014
   6.5900000000000014E-002    -7.8225593320643827E-014
   6.7000000000000004E-002    -2.3394144694349750E-013
   6.8100000000000022E-002    -2.8082270124747677E-013
   6.9200000000000012E-002    -1.4723228333127919E-013
   7.0300000000000029E-002     1.3839775679647115E-013
   7.1400000000000019E-002     4.3609985956628849E-013
   7.2500000000000009E-002     5.5332274135830306E-013
   7.3600000000000027E-002     3.5466275099052536E-013
   7.4700000000000016E-002    -1.3504885957357077E-013
   7.5800000000000006E-002    -7.0169808548750656E-013
   7.6900000000000024E-002    -1.0236688883710765E-012
   7.8000000000000014E-002    -8.4034613035549599E-013
   7.9100000000000004E-002    -1.2375712434009589E-013
   8.0200000000000021E-002     8.5067716759645862E-013
   8.1300000000000011E-002     1.5987057597893761E-012
   8.2400000000000029E-002     1.6641171947384681E-012
   8.3500000000000019E-002     8.8420384295601062E-013
   8.4600000000000009E-002    -4.6845226265787576E-013
   8.5700000000000026E-002    -1.7728544327022533E-012
   8.6800000000000016E-002    -2.3603697121843403E-012
   8.7900000000000006E-002    -1.8834729782757353E-012
   8.9000000000000024E-002    -5.4308922810275551E-013
   9.0100000000000013E-002     9.7980694738208918E-013
   9.1200000000000003E-002     1.8841462678248488E-012
   9.2300000000000021E-002     1.7167090232000914E-012
   9.3400000000000011E-002     6.7355458233456234E-013
   9.4500000000000028E-002    -4.7159937630394944E-013
   9.5600000000000018E-002    -8.1163385474286587E-013
   9.6700000000000008E-002     1.1152327840510332E-013
   9.7800000000000026E-002     1.9362046688176093E-012
   9.8900000000000016E-002     3.5792224219177715E-012
  0.10000000000000001          3.7920907733357545E-012
  0.10110000000000002          1.8728755525609930E-012
  0.10220000000000001         -1.8961999938976737E-012
  0.10330000000000003         -6.3750701766174256E-012
  0.10440000000000002         -1.0198880802392285E-011
  0.10550000000000001         -1.2514649039285786E-011
  0.10660000000000003         -1.3308350081675524E-011
  0.10770000000000002         -1.3042096916326962E-011
  0.10880000000000001         -1.1784405916370755E-011
  0.10990000000000003         -8.4223843177522184E-012
  0.11100000000000002         -5.9988022578852385E-013
  0.11210000000000001          1.4368711082068941E-011
  0.11320000000000002          3.8008679537071544E-011
  0.11430000000000001          6.9521798040650395E-011
  0.11540000000000003          1.0583763726534912E-010
  0.11650000000000002          1.4315210128401645E-010
  0.11760000000000001          1.7931565954310003E-010
  0.11870000000000003          2.1578133724275972E-010
  0.11980000000000002          2.5789689828137341E-010
  0.12090000000000001          3.1319152826725372E-010
  0.12200000000000003          3.8852099315533906E-010
  0.12310000000000001          4.8776421790464042E-010
  0.12420000000000003          6.1162341857823321E-010
  0.12530000000000002          7.5993483727998523E-010
  0.12640000000000001          9.3534957557039888E-010
  0.12750000000000003          1.1462381044324843E-009
  0.12860000000000002          1.4069105880309962E-009
  0.12970000000000001          1.7347309144710721E-009
  0.13080000000000003          2.1456403320740947E-009
  0.13190000000000002          2.6508275574599338E-009
  0.13300000000000001          3.2569451580144460E-009
  0.13410000000000000          3.9704080023739152E-009
  0.13520000000000004          4.8039203726091273E-009
  0.13630000000000003          5.7818545506904684E-009
  0.13740000000000002          6.9414602954509519E-009
  0.13850000000000001          8.3290681018866053E-009
  0.13960000000000000          9.9932959685133937E-009
  0.14070000000000005          1.1979083502922094E-008
  0.14180000000000004          1.4326134056830142E-008
  0.14290000000000003          1.7072935065698402E-008
  0.14400000000000002          2.0264430133920541E-008
  0.14510000000000001          2.3959263018014099E-008
  0.14620000000000000          2.8232761906110682E-008
  0.14730000000000004          3.3174220703813262E-008
  0.14840000000000003          3.8880337172031432E-008
  0.14950000000000002          4.5448793173363811E-008
  0.15060000000000001          5.2975806852373353E-008
  0.15170000000000000          6.1558885988688417E-008
  0.15280000000000005          7.1302828530406259E-008
  0.15390000000000004          8.2324831396363152E-008
  0.15500000000000003          9.4755215229724854E-008
  0.15610000000000002          1.0873283429191360E-007
  0.15720000000000001          1.2439744523362606E-007
  0.15830000000000000          1.4188316299623693E-007
  0.15940000000000004          1.6131627944560023E-007
  0.16050000000000003          1.8281751579252159E-007
  0.16160000000000002          2.0650574583669368E-007
  0.16270000000000001          2.3249903335909039E-007
  0.16380000000000000          2.6090984306392784E-007
  0.16490000000000005          2.9183493666096183E-007
  0.16600000000000004          3.2534390470573271E-007
  0.16710000000000003          3.6147127957519842E-007
  0.16820000000000002          4.0021504332798941E-007
  0.16930000000000001          4.4153989620099310E-007
  0.17040000000000000          4.8538134933551191E-007
  0.17150000000000004          5.3164410473982571E-007
  0.17260000000000003          5.8019247717311373E-007
  0.17370000000000002          6.3083462009672076E-007
  0.17480000000000001          6.8330712110764580E-007
  0.17590000000000000          7.3726675964280730E-007
  0.17700000000000005          7.9229170069083921E-007
  0.17810000000000004          8.4789206766799907E-007
  0.17920000000000003          9.0352210690980428E-007
  0.18030000000000002          9.5858672466420103E-007
  0.18140000000000001          1.0124380196430138E-006
  0.18250000000000000          1.0643644827723620E-006
  0.18360000000000004          1.1135788327010232E-006
  0.18470000000000003          1.1592132977966685E-006
  0.18580000000000002          1.2003289384665550E-006
  0.18690000000000001          1.2359364518488292E-006
  0.18800000000000000          1.2650222060983651E-006
  0.18910000000000005          1.2865718872490106E-006
  0.19020000000000004          1.2995855058761663E-006
  0.19130000000000003          1.3030849004280753E-006
  0.19240000000000002          1.2961197626282228E-006
  0.19350000000000001          1.2777753681803006E-006
  0.19460000000000005          1.2471905392885674E-006
  0.19570000000000004          1.2035817462674459E-006
  0.19680000000000003          1.1462718703114660E-006
  0.19790000000000002          1.0747160104074283E-006
  0.19900000000000001          9.8852262908621924E-007
  0.20010000000000000          8.8746844539855374E-007
  0.20120000000000005          7.7151071309344843E-007
  0.20230000000000004          6.4080040829139762E-007
  0.20340000000000003          4.9569723614695249E-007
  0.20450000000000002          3.3678392696856463E-007
  0.20560000000000000          1.6487611276261305E-007
  0.20670000000000005         -1.8976873406018058E-008
  0.20780000000000004         -2.1349956114136148E-007
  0.20890000000000003         -4.1720386434462853E-007
