 -0.12000000000000000          0.0000000000000000
 -0.11889999999999999          0.0000000000000000
 -0.11780000000000000          0.0000000000000000
 -0.11670000000000000          0.0000000000000000
 -0.11559999999999999          0.0000000000000000
 -0.11449999999999999          0.0000000000000000
 -0.11340000000000000         -2.5830141513524943E-019
 -0.11230000000000000         -1.3205583825721455E-018
 -0.11119999999999999          1.0222828568745086E-019
 -0.11009999999999999          1.8784434604299355E-017
 -0.10900000000000000          6.1953802942082243E-017
 -0.10790000000000000          4.1629038923200943E-017
 -0.10679999999999999         -2.8905343432187821E-016
 -0.10569999999999999         -1.0274325420528635E-015
 -0.10460000000000000         -1.2490490777021762E-015
 -0.10349999999999999          1.4138707836886671E-015
 -0.10239999999999999          8.3530204915459663E-015
 -0.10130000000000000          1.4057406226477415E-014
 -0.10020000000000000          2.9856371908332452E-015
  -9.9099999999999994E-002    -3.8264574478809668E-014
  -9.7999999999999990E-002    -9.0238248459922205E-014
  -9.6899999999999986E-002    -7.9087771216995034E-014
  -9.5799999999999996E-002     8.1949333115890338E-014
  -9.4699999999999993E-002     3.6737927695644490E-013
  -9.3599999999999989E-002     5.2244200719059330E-013
  -9.2499999999999999E-002     1.4861926251295843E-013
  -9.1399999999999995E-002    -8.9614540831409184E-013
  -9.0299999999999991E-002    -2.0103710363095217E-012
  -8.9200000000000002E-002    -1.8604772670377523E-012
  -8.8099999999999984E-002     6.4082040455298861E-013
  -8.6999999999999994E-002     4.7736077243842878E-012
  -8.5899999999999990E-002     7.3188555910208564E-012
  -8.4799999999999986E-002     4.2554935270056049E-012
  -8.3699999999999997E-002    -5.3838808411477146E-012
  -8.2599999999999993E-002    -1.6405985944767387E-011
  -8.1499999999999989E-002    -1.9005047535713970E-011
  -8.0399999999999999E-002    -6.0130923677792492E-012
  -7.9299999999999995E-002     1.8718386216032279E-011
  -7.8199999999999992E-002     3.8884069575306768E-011
  -7.7100000000000002E-002     3.5793829705754732E-011
  -7.5999999999999984E-002     4.5684597597961396E-012
  -7.4899999999999994E-002    -3.7275443148798715E-011
  -7.3799999999999991E-002    -5.9780708161483176E-011
  -7.2699999999999987E-002    -4.4753138694897387E-011
  -7.1599999999999997E-002    -4.0212863421096312E-012
  -7.0499999999999993E-002     2.8302986690431631E-011
  -6.9399999999999989E-002     2.8174221636256824E-011
  -6.8300000000000000E-002     1.0341408285263753E-011
  -6.7199999999999996E-002     2.0088930519079895E-011
  -6.6099999999999992E-002     8.4058558724731114E-011
  -6.5000000000000002E-002     1.6036635908101005E-010
  -6.3899999999999985E-002     1.4503405421084636E-010
  -6.2799999999999995E-002    -4.5877530940874323E-011
  -6.1699999999999991E-002    -3.7060848834258309E-010
  -6.0599999999999994E-002    -6.2897376196247023E-010
  -5.9499999999999990E-002    -5.6401444625819863E-010
  -5.8399999999999994E-002    -5.5757332778627600E-011
  -5.7299999999999990E-002     7.2945693929682420E-010
  -5.6199999999999986E-002     1.3685148569919647E-009
  -5.5099999999999996E-002     1.4085114186102032E-009
  -5.3999999999999992E-002     6.5949895544648029E-010
  -5.2899999999999989E-002    -6.4398125720899202E-010
  -5.1799999999999985E-002    -1.9300778753006398E-009
  -5.0699999999999995E-002    -2.5743840392777884E-009
  -4.9599999999999991E-002    -2.2031703128533309E-009
  -4.8499999999999988E-002    -8.4485413109902652E-010
  -4.7399999999999998E-002     1.1133935995388811E-009
  -4.6299999999999994E-002     3.0763678271483741E-009
  -4.5199999999999990E-002     4.3853951581240835E-009
  -4.4099999999999986E-002     4.4279642175126810E-009
  -4.2999999999999997E-002     2.7796918100619905E-009
  -4.1899999999999993E-002    -5.5915672092510249E-010
  -4.0799999999999989E-002    -4.8963109122723836E-009
  -3.9699999999999985E-002    -8.7596463416161896E-009
  -3.8599999999999995E-002    -1.0220536417193671E-008
  -3.7499999999999992E-002    -7.6809687499235224E-009
  -3.6399999999999988E-002    -8.6389523312746519E-010
  -3.5299999999999984E-002     8.5157241258571048E-009
  -3.4199999999999994E-002     1.6931549495780018E-008
  -3.3099999999999991E-002     2.0277376222566090E-008
  -3.1999999999999987E-002     1.5777706252606549E-008
  -3.0899999999999997E-002     3.6886391718837785E-009
  -2.9799999999999993E-002    -1.2213294375840178E-008
  -2.8699999999999989E-002    -2.5877950449171294E-008
  -2.7599999999999986E-002    -3.1571751435421902E-008
  -2.6499999999999996E-002    -2.6563581556615645E-008
  -2.5399999999999992E-002    -1.2440440677607967E-008
  -2.4299999999999988E-002     5.7411266851659093E-009
  -2.3199999999999985E-002     2.2026227952665067E-008
  -2.2099999999999995E-002     3.2383162817950506E-008
  -2.0999999999999991E-002     3.6183283924628995E-008
  -1.9899999999999987E-002     3.5652565344435061E-008
  -1.8799999999999983E-002     3.3930142251392681E-008
  -1.7699999999999994E-002     3.3191916770647367E-008
  -1.6599999999999990E-002     3.4069373100464873E-008
  -1.5499999999999986E-002     3.6534398617504849E-008
  -1.4399999999999996E-002     4.1335987077673053E-008
  -1.3299999999999992E-002     5.0734556111819984E-008
  -1.2199999999999989E-002     6.7860000285691058E-008
  -1.1099999999999985E-002     9.5035254332742625E-008
  -9.9999999999999950E-003     1.3213833938152675E-007
  -8.8999999999999913E-003     1.7609704627830070E-007
  -7.7999999999999875E-003     2.2200602245447953E-007
  -6.6999999999999837E-003     2.6553601628620527E-007
  -5.5999999999999939E-003     3.0567215958399174E-007
  -4.4999999999999901E-003     3.4658174286050780E-007
  -3.3999999999999864E-003     3.9762809933563403E-007
  -2.2999999999999826E-003     4.7118550128288916E-007
  -1.1999999999999927E-003     5.7883465842678561E-007
  -9.9999999999988987E-005     7.2740056111797458E-007
   1.0000000000000148E-003     9.1666498747144942E-007
   2.1000000000000185E-003     1.1400948096706998E-006
   3.2000000000000084E-003     1.3886661918149912E-006
   4.3000000000000121E-003     1.6563889175813529E-006
   5.4000000000000159E-003     1.9452049855317455E-006
   6.5000000000000058E-003     2.2670521957479650E-006
   7.6000000000000234E-003     2.6420229914947413E-006
   8.7000000000000133E-003     3.0932162644603522E-006
   9.8000000000000032E-003     3.6403682770469459E-006
   1.0900000000000021E-002     4.2950396164087579E-006
   1.2000000000000011E-002     5.0596354412846267E-006
   1.3100000000000001E-002     5.9309222706360742E-006
   1.4200000000000018E-002     6.9065713432792109E-006
   1.5300000000000008E-002     7.9916189861251041E-006
   1.6400000000000026E-002     9.2016043709008954E-006
   1.7500000000000016E-002     1.0560771443124395E-005
   1.8600000000000005E-002     1.2096294994989876E-005
   1.9700000000000023E-002     1.3831506294081919E-005
   2.0800000000000013E-002     1.5781344700371847E-005
   2.1900000000000003E-002     1.7951713743968867E-005
   2.3000000000000020E-002     2.0342278730822727E-005
   2.4100000000000010E-002     2.2950858692638576E-005
   2.5200000000000000E-002     2.5777551854844205E-005
   2.6300000000000018E-002     2.8827427740907297E-005
   2.7400000000000008E-002     3.2111151085700840E-005
   2.8500000000000025E-002     3.5643006413010880E-005
   2.9600000000000015E-002     3.9436010411009192E-005
   3.0700000000000005E-002     4.3494765122886747E-005
   3.1800000000000023E-002     4.7808531235205010E-005
   3.2900000000000013E-002     5.2347884775372222E-005
   3.4000000000000002E-002     5.7067372836172581E-005
   3.5100000000000020E-002     6.1913706304039806E-005
   3.6200000000000010E-002     6.6835673351306468E-005
   3.7300000000000028E-002     7.1790505899116397E-005
   3.8400000000000017E-002     7.6743017416447401E-005
   3.9500000000000007E-002     8.1657279224600643E-005
   4.0600000000000025E-002     8.6484506027773023E-005
   4.1700000000000015E-002     9.1152651293668896E-005
   4.2800000000000005E-002     9.5562332717236131E-005
   4.3900000000000022E-002     9.9591285106725991E-005
   4.5000000000000012E-002     1.0310586367268115E-004
   4.6100000000000002E-002     1.0597501386655495E-004
   4.7200000000000020E-002     1.0808119259309024E-004
   4.8300000000000010E-002     1.0932380973827094E-004
   4.9400000000000027E-002     1.0961422958644107E-004
   5.0500000000000017E-002     1.0886575910262764E-004
   5.1600000000000007E-002     1.0698410187615082E-004
   5.2700000000000025E-002     1.0386280337115750E-004
   5.3800000000000014E-002     9.9385906651150435E-005
   5.4900000000000004E-002     9.3436457973439246E-005
   5.6000000000000022E-002     8.5907755419611931E-005
   5.7100000000000012E-002     7.6714954047929496E-005
   5.8200000000000002E-002     6.5805186750367284E-005
   5.9300000000000019E-002     5.3164669225225225E-005
   6.0400000000000009E-002     3.8820497138658538E-005
   6.1500000000000027E-002     2.2835363779449835E-005
   6.2600000000000017E-002     5.2964392125431914E-006
   6.3700000000000007E-002    -1.3696468158741482E-005
   6.4800000000000024E-002    -3.4036231227219105E-005
   6.5900000000000014E-002    -5.5603031796636060E-005
   6.7000000000000004E-002    -7.8250472142826766E-005
   6.8100000000000022E-002    -1.0179090168094262E-004
   6.9200000000000012E-002    -1.2598795001395047E-004
   7.0300000000000029E-002    -1.5055967378430068E-004
   7.1400000000000019E-002    -1.7518999811727554E-004
   7.2500000000000009E-002    -1.9954224990215153E-004
   7.3600000000000027E-002    -2.2327013721223921E-004
   7.4700000000000016E-002    -2.4602562189102173E-004
   7.5800000000000006E-002    -2.6746469666250050E-004
   7.6900000000000024E-002    -2.8725204174406826E-004
   7.8000000000000014E-002    -3.0506437178701162E-004
   7.9100000000000004E-002    -3.2059181830845773E-004
   8.0200000000000021E-002    -3.3353871549479663E-004
   8.1300000000000011E-002    -3.4362671431154013E-004
   8.2400000000000029E-002    -3.5060237860307097E-004
   8.3500000000000019E-002    -3.5424795350991189E-004
   8.4600000000000009E-002    -3.5439178464002907E-004
   8.5700000000000026E-002    -3.5091568133793771E-004
   8.6800000000000016E-002    -3.4375893301330507E-004
   8.7900000000000006E-002    -3.3292139414697886E-004
   8.9000000000000024E-002    -3.1846718047745526E-004
   9.0100000000000013E-002    -3.0052717193029821E-004
   9.1200000000000003E-002    -2.7929723728448153E-004
   9.2300000000000021E-002    -2.5503136566840112E-004
   9.3400000000000011E-002    -2.2803235333412886E-004
   9.4500000000000028E-002    -1.9864505156874657E-004
   9.5600000000000018E-002    -1.6725462046451867E-004
   9.6700000000000008E-002    -1.3428737292997539E-004
   9.7800000000000026E-002    -1.0020884656114504E-004
   9.8900000000000016E-002    -6.5515705500729382E-005
  0.10000000000000001         -3.0723644158570096E-005
  0.10110000000000002          3.6443416320253164E-006
  0.10220000000000001          3.7066431104904041E-005
  0.10330000000000003          6.9028712459839880E-005
  0.10440000000000002          9.9034594313707203E-005
  0.10550000000000001          1.2661880464293063E-004
  0.10660000000000003          1.5136247384361923E-004
  0.10770000000000002          1.7290400865022093E-004
  0.10880000000000001          1.9094283925369382E-004
  0.10990000000000003          2.0523856801446527E-004
  0.11100000000000002          2.1561165340244770E-004
  0.11210000000000001          2.2194869234226644E-004
  0.11320000000000002          2.2420959430746734E-004
  0.11430000000000001          2.2243101557251066E-004
  0.11540000000000003          2.1672330331057310E-004
  0.11650000000000002          2.0726410730276257E-004
  0.11760000000000001          1.9429468375165015E-004
  0.11870000000000003          1.7812188889365643E-004
  0.11980000000000002          1.5912180242594332E-004
  0.12090000000000001          1.3773764658253640E-004
  0.12200000000000003          1.1446768621681258E-004
  0.12310000000000001          8.9846253104042262E-005
  0.12420000000000003          6.4426036260556430E-005
  0.12530000000000002          3.8767488149460405E-005
  0.12640000000000001          1.3434470929496456E-005
  0.12750000000000003         -1.1009849004040007E-005
  0.12860000000000002         -3.4011456591542810E-005
  0.12970000000000001         -5.5037511629052460E-005
  0.13080000000000003         -7.3587449151091278E-005
  0.13190000000000002         -8.9199398644268513E-005
  0.13300000000000001         -1.0145358100999147E-004
  0.13410000000000000         -1.0997834760928527E-004
  0.13520000000000004         -1.1446196003817022E-004
  0.13630000000000003         -1.1466775322332978E-004
  0.13740000000000002         -1.1044619895983487E-004
  0.13850000000000001         -1.0173831105930731E-004
  0.13960000000000000         -8.8570719526614994E-005
  0.14070000000000005         -7.1048532845452428E-005
  0.14180000000000004         -4.9351627239957452E-005
  0.14290000000000003         -2.3735499780741520E-005
  0.14400000000000002          5.4670617828378454E-006
  0.14510000000000001          3.7848083593416959E-005
  0.14620000000000000          7.2932096372824162E-005
  0.14730000000000004          1.1018658551620319E-004
  0.14840000000000003          1.4903099508956075E-004
  0.14950000000000002          1.8884283781517297E-004
  0.15060000000000001          2.2896316659171134E-004
  0.15170000000000000          2.6870548026636243E-004
  0.15280000000000005          3.0736980261281133E-004
  0.15390000000000004          3.4425995545461774E-004
  0.15500000000000003          3.7869971129111946E-004
  0.15610000000000002          4.1004468221217394E-004
  0.15720000000000001          4.3769078911282122E-004
  0.15830000000000000          4.6108310925774276E-004
  0.15940000000000004          4.7972740139812231E-004
  0.16050000000000003          4.9320340622216463E-004
  0.16160000000000002          5.0117599312216043E-004
  0.16270000000000001          5.0340133020654321E-004
  0.16380000000000000          4.9972772831097245E-004
  0.16490000000000005          4.9009517533704638E-004
  0.16600000000000004          4.7453687875531614E-004
  0.16710000000000003          4.5318331103771925E-004
  0.16820000000000002          4.2626445065252483E-004
  0.16930000000000001          3.9410713361576200E-004
  0.17040000000000000          3.5712640965357423E-004
  0.17150000000000004          3.1581483199261129E-004
  0.17260000000000003          2.7073471574112773E-004
  0.17370000000000002          2.2251335030887276E-004
  0.17480000000000001          1.7183585441671312E-004
  0.17590000000000000          1.1943035497097299E-004
  0.17700000000000005          6.6046159190591425E-005
  0.17810000000000004          1.2430667084117886E-005
  0.17920000000000003         -4.0686845750315115E-005
  0.18030000000000002         -9.2602014774456620E-005
  0.18140000000000001         -1.4263778575696051E-004
  0.18250000000000000         -1.9015089492313564E-004
  0.18360000000000004         -2.3454670736100525E-004
  0.18470000000000003         -2.7529738144949079E-004
  0.18580000000000002         -3.1195359770208597E-004
  0.18690000000000001         -3.4414668334648013E-004
  0.18800000000000000         -3.7158635677769780E-004
  0.18910000000000005         -3.9406251744367182E-004
  0.19020000000000004         -4.1145450086332858E-004
  0.19130000000000003         -4.2374129407107830E-004
  0.19240000000000002         -4.3100118637084961E-004
  0.19350000000000001         -4.3339823605492711E-004
  0.19460000000000005         -4.3116341112181544E-004
  0.19570000000000004         -4.2458131792955101E-004
  0.19680000000000003         -4.1398813482373953E-004
  0.19790000000000002         -3.9977490087039769E-004
  0.19900000000000001         -3.8238361594267190E-004
  0.20010000000000000         -3.6229117540642619E-004
  0.20120000000000005         -3.3998783328570426E-004
  0.20230000000000004         -3.1596128246746957E-004
  0.20340000000000003         -2.9069223091937602E-004
  0.20450000000000002         -2.6465565315447748E-004
  0.20560000000000000         -2.3831642465665936E-004
  0.20670000000000005         -2.1211493003647774E-004
  0.20780000000000004         -1.8644978990778327E-004
  0.20890000000000003         -1.6166838759090751E-004
