 -0.12000000000000000          0.0000000000000000
 -0.11889999999999999          0.0000000000000000
 -0.11780000000000000          0.0000000000000000
 -0.11670000000000000          0.0000000000000000
 -0.11559999999999999          0.0000000000000000
 -0.11449999999999999          0.0000000000000000
 -0.11340000000000000          0.0000000000000000
 -0.11230000000000000          0.0000000000000000
 -0.11119999999999999          0.0000000000000000
 -0.11009999999999999          0.0000000000000000
 -0.10900000000000000          0.0000000000000000
 -0.10790000000000000         -3.9533846839397372E-029
 -0.10679999999999999          6.0898444101908826E-028
 -0.10569999999999999          9.1202843924765097E-027
 -0.10460000000000000          4.3850426545959938E-026
 -0.10349999999999999          7.4818914747032127E-026
 -0.10239999999999999         -1.8451192797754283E-025
 -0.10130000000000000         -1.3236424332524324E-024
 -0.10020000000000000         -2.9422868961908618E-024
  -9.9099999999999994E-002    -5.1522216562072479E-025
  -9.7999999999999990E-002     1.4507955107415922E-023
  -9.6899999999999986E-002     3.9826163448280227E-023
  -9.5799999999999996E-002     3.4032844690984017E-023
  -9.4699999999999993E-002    -7.6606023759635544E-023
  -9.3599999999999989E-002    -2.8067938589382651E-022
  -9.2499999999999999E-002    -3.0261340461711983E-022
  -9.1399999999999995E-002     2.9907390564225074E-022
  -9.0299999999999991E-002     1.3793437652971514E-021
  -8.9200000000000002E-002     1.2965635039371938E-021
  -8.8099999999999984E-002    -2.1788573472080719E-021
  -8.6999999999999994E-002    -7.5241851013857917E-021
  -8.5899999999999990E-002    -5.0899617913945066E-021
  -8.4799999999999986E-002     1.7026157431798739E-020
  -8.3699999999999997E-002     4.9935226293904104E-020
  -8.2599999999999993E-002     4.1521949665407385E-020
  -8.1499999999999989E-002    -7.6791202306435219E-020
  -8.0399999999999999E-002    -2.8131306278859182E-019
  -7.9299999999999995E-002    -3.3861630991593252E-019
  -7.8199999999999992E-002     1.1458382433601862E-019
  -7.7100000000000002E-002     1.1337552542611061E-018
  -7.5999999999999984E-002     1.9058520486678494E-018
  -7.4899999999999994E-002     8.3529737401249254E-019
  -7.3799999999999991E-002    -2.9964971309445294E-018
  -7.2699999999999987E-002    -7.5430351904526828E-018
  -7.1599999999999997E-002    -7.1697128635758629E-018
  -7.0499999999999993E-002     3.4305351351682009E-018
  -6.9399999999999989E-002     2.1406105800808596E-017
  -6.8300000000000000E-002     3.0930218705991079E-017
  -6.7199999999999996E-002     1.1166566865370837E-017
  -6.6099999999999992E-002    -4.1286635780440743E-017
  -6.5000000000000002E-002    -9.1803019010197173E-017
  -6.3899999999999985E-002    -7.7634837867817400E-017
  -6.2799999999999995E-002     3.8050142741316762E-017
  -6.1699999999999991E-002     1.9994297423232485E-016
  -6.0599999999999994E-002     2.5550677385521045E-016
  -5.9499999999999990E-002     6.4637487869114585E-017
  -5.8399999999999994E-002    -3.2485534648039015E-016
  -5.7299999999999990E-002    -6.0209642989677431E-016
  -5.6199999999999986E-002    -3.7995010160873368E-016
  -5.5099999999999996E-002     4.0112542236427876E-016
  -5.3999999999999992E-002     1.1899605886973082E-015
  -5.2899999999999989E-002     1.0790410948587656E-015
  -5.1799999999999985E-002    -3.5811613332735958E-016
  -5.0699999999999995E-002    -2.2644305643770976E-015
  -4.9599999999999991E-002    -2.6957217416688582E-015
  -4.8499999999999988E-002    -2.0354119666204072E-016
  -4.7399999999999998E-002     4.1864078257616497E-015
  -4.6299999999999994E-002     6.6361401881195447E-015
  -4.5199999999999990E-002     3.1444120344884061E-015
  -4.4099999999999986E-002    -6.0837802623361220E-015
  -4.2999999999999997E-002    -1.4446761861341799E-014
  -4.1899999999999993E-002    -1.2535507401794776E-014
  -4.0799999999999989E-002     3.3334282837011505E-015
  -3.9699999999999985E-002     2.4270467024480567E-014
  -3.8599999999999995E-002     3.1768756733347586E-014
  -3.7499999999999992E-002     1.2071058908024509E-014
  -3.6399999999999988E-002    -2.7713127406510212E-014
  -3.5299999999999984E-002    -5.7590617116767134E-014
  -3.4199999999999994E-002    -4.4935501039523526E-014
  -3.3099999999999991E-002     1.4274798926456125E-014
  -3.1999999999999987E-002     8.0370775410332912E-014
  -3.0899999999999997E-002     9.2549842030560658E-014
  -2.9799999999999993E-002     2.0807100075022344E-014
  -2.8699999999999989E-002    -9.3710399141043454E-014
  -2.7599999999999986E-002    -1.5422698654201511E-013
  -2.6499999999999996E-002    -8.4020443868407929E-014
  -2.5399999999999992E-002     9.1816887480642567E-014
  -2.4299999999999988E-002     2.3702307477835305E-013
  -2.3199999999999985E-002     2.0031021383693642E-013
  -2.2099999999999995E-002    -4.2850607366888213E-014
  -2.0999999999999991E-002    -3.2634046289933827E-013
  -1.9899999999999987E-002    -3.9340923639434588E-013
  -1.8799999999999983E-002    -1.1383012859123715E-013
  -1.7699999999999994E-002     3.5530974863695608E-013
  -1.6599999999999990E-002     6.3457193059252015E-013
  -1.5499999999999986E-002     4.1446509310531787E-013
  -1.4399999999999996E-002    -2.3839141923519269E-013
  -1.3299999999999992E-002    -8.4408153210036030E-013
  -1.2199999999999989E-002    -8.4429999883811613E-013
  -1.1099999999999985E-002    -9.1399794904887394E-014
  -9.9999999999999950E-003     9.2112634794000448E-013
  -8.8999999999999913E-003     1.3564201845062129E-012
  -7.7999999999999875E-003     7.0627314760485227E-013
  -6.6999999999999837E-003    -6.9001504813745451E-013
  -5.5999999999999939E-003    -1.7764694880059717E-012
  -4.4999999999999901E-003    -1.5697881362852772E-012
  -3.3999999999999864E-003    -2.7776788708759950E-014
  -2.2999999999999826E-003     1.7568443444818116E-012
  -1.1999999999999927E-003     2.3210604445378369E-012
  -9.9999999999988987E-005     1.0373227884302727E-012
   1.0000000000000148E-003    -1.2267151270478616E-012
   2.1000000000000185E-003    -2.6508784316953138E-012
   3.2000000000000084E-003    -1.9067900470376431E-012
   4.3000000000000121E-003     6.2543931622291438E-013
   5.4000000000000159E-003     2.9526689253323024E-012
   6.5000000000000058E-003     2.9683781474498794E-012
   7.6000000000000234E-003     2.5217840511106149E-013
   8.7000000000000133E-003    -3.3274422713697183E-012
   9.8000000000000032E-003    -4.8654929911406963E-012
   1.0900000000000021E-002    -2.6996692641806375E-012
   1.2000000000000011E-002     2.0576715244885468E-012
   1.3100000000000001E-002     6.0721930955631720E-012
   1.4200000000000018E-002     6.1857238081719501E-012
   1.5300000000000008E-002     1.9070281378347209E-012
   1.6400000000000026E-002    -3.9736252482880374E-012
   1.7500000000000016E-002    -7.2736387225769139E-012
   1.8600000000000005E-002    -5.5142808721986292E-012
   1.9700000000000023E-002     9.5464516283380596E-014
   2.0800000000000013E-002     5.3846445531580134E-012
   2.1900000000000003E-002     6.2619393177698601E-012
   2.3000000000000020E-002     1.8850752122462344E-012
   2.4100000000000010E-002    -4.4590021779089550E-012
   2.5200000000000000E-002    -7.5983759215136892E-012
   2.6300000000000018E-002    -4.3744244337950988E-012
   2.7400000000000008E-002     3.6386458082682260E-012
   2.8500000000000025E-002     1.0779255960047252E-011
   2.9600000000000015E-002     1.1166068937529250E-011
   3.0700000000000005E-002     3.2039314777632111E-012
   3.1800000000000023E-002    -8.6183352121516066E-012
   3.2900000000000013E-002    -1.6322759116560448E-011
   3.4000000000000002E-002    -1.3984365748731520E-011
   3.5100000000000020E-002    -2.3544308863643337E-012
   3.6200000000000010E-002     1.1070705116522639E-011
   3.7300000000000028E-002     1.7097873464266833E-011
   3.8400000000000017E-002     1.1645457168030227E-011
   3.9500000000000007E-002    -8.3575740729077697E-013
   4.0600000000000025E-002    -1.0401100120072115E-011
   4.1700000000000015E-002    -9.3576006318651928E-012
   4.2800000000000005E-002     1.0755751757990373E-012
   4.3900000000000022E-002     1.0820697636526599E-011
   4.5000000000000012E-002     8.5270766142508947E-012
   4.6100000000000002E-002    -8.6034738361329133E-012
   4.7200000000000020E-002    -3.0572204490209032E-011
   4.8300000000000010E-002    -4.0155257591267812E-011
   4.9400000000000027E-002    -2.5060070338311924E-011
   5.0500000000000017E-002     1.2218431127974938E-011
   5.1600000000000007E-002     5.4775836644260778E-011
   5.2700000000000025E-002     8.2468212814212905E-011
   5.3800000000000014E-002     8.6064530502305558E-011
   5.4900000000000004E-002     7.3845679571249434E-011
   5.6000000000000022E-002     6.5517286040872591E-011
   5.7100000000000012E-002     7.7926609609590969E-011
   5.8200000000000002E-002     1.1347550676887863E-010
   5.9300000000000019E-002     1.6017884241215086E-010
   6.0400000000000009E-002     2.0337531658753960E-010
   6.1500000000000027E-002     2.4001919896043944E-010
   6.2600000000000017E-002     2.8430630072406871E-010
   6.3700000000000007E-002     3.5985184276832172E-010
   6.4800000000000024E-002     4.8387244211411939E-010
   6.5900000000000014E-002     6.5511712721288973E-010
   6.7000000000000004E-002     8.5495005519575784E-010
   6.8100000000000022E-002     1.0616842960331496E-009
   6.9200000000000012E-002     1.2687209061112981E-009
   7.0300000000000029E-002     1.4940400028251588E-009
   7.1400000000000019E-002     1.7742952662658240E-009
   7.2500000000000009E-002     2.1472910116671073E-009
   7.3600000000000027E-002     2.6348063730807780E-009
   7.4700000000000016E-002     3.2378377756714372E-009
   7.5800000000000006E-002     3.9479868263470053E-009
   7.6900000000000024E-002     4.7673092140598783E-009
   7.8000000000000014E-002     5.7223843441533973E-009
   7.9100000000000004E-002     6.8617875825793817E-009
   8.0200000000000021E-002     8.2379694177348028E-009
   8.1300000000000011E-002     9.8867172226846378E-009
   8.2400000000000029E-002     1.1820664447270701E-008
   8.3500000000000019E-002     1.4044070795193875E-008
   8.4600000000000009E-002     1.6580198547444525E-008
   8.5700000000000026E-002     1.9491640301794178E-008
   8.6800000000000016E-002     2.2877486571815098E-008
   8.7900000000000006E-002     2.6847576606314760E-008
   8.9000000000000024E-002     3.1491847352072000E-008
   9.0100000000000013E-002     3.6867671582285766E-008
   9.1200000000000003E-002     4.3015297990223189E-008
   9.2300000000000021E-002     4.9990287465107031E-008
   9.3400000000000011E-002     5.7888442483999825E-008
   9.4500000000000028E-002     6.6844322077486140E-008
   9.5600000000000018E-002     7.7004806087188626E-008
   9.6700000000000008E-002     8.8498410377724213E-008
   9.7800000000000026E-002     1.0142431960957765E-007
   9.8900000000000016E-002     1.1586939052676826E-007
  0.10000000000000001          1.3193941583722335E-007
  0.10110000000000002          1.4978002127463697E-007
  0.10220000000000001          1.6957056914179702E-007
  0.10330000000000003          1.9149433683196548E-007
  0.10440000000000002          2.1570510000401555E-007
  0.10550000000000001          2.4231212591985241E-007
  0.10660000000000003          2.7139103053741565E-007
  0.10770000000000002          3.0301106335173245E-007
  0.10880000000000001          3.3725822845553921E-007
  0.10990000000000003          3.7423760090860014E-007
  0.11100000000000002          4.1405249362469476E-007
  0.11210000000000001          4.5677279558731243E-007
  0.11320000000000002          5.0241158078279113E-007
  0.11430000000000001          5.5092351658458938E-007
  0.11540000000000003          6.0222458841963089E-007
  0.11650000000000002          6.5621765088508255E-007
  0.11760000000000001          7.1280271640716819E-007
  0.11870000000000003          7.7186001590234810E-007
  0.11980000000000002          8.3321299371164059E-007
  0.12090000000000001          8.9659562263477710E-007
  0.12200000000000003          9.6164876595139503E-007
  0.12310000000000001          1.0279495654685888E-006
  0.12420000000000003          1.0950526529995841E-006
  0.12530000000000002          1.1625126035141875E-006
  0.12640000000000001          1.2298665978960344E-006
  0.12750000000000003          1.2965923588126316E-006
  0.12860000000000002          1.3620743857245543E-006
  0.12970000000000001          1.4256094118536566E-006
  0.13080000000000003          1.4864507420497830E-006
  0.13190000000000002          1.5438586160598788E-006
  0.13300000000000001          1.5971237417033990E-006
  0.13410000000000000          1.6455489912914345E-006
  0.13520000000000004          1.6884126807781286E-006
  0.13630000000000003          1.7249499251192901E-006
  0.13740000000000002          1.7543719650348066E-006
  0.13850000000000001          1.7759130059857853E-006
  0.13960000000000000          1.7888745560412644E-006
  0.14070000000000005          1.7926419104696834E-006
  0.14180000000000004          1.7866763073470793E-006
  0.14290000000000003          1.7705002619550214E-006
  0.14400000000000002          1.7436968846595846E-006
  0.14510000000000001          1.7059250012607663E-006
  0.14620000000000000          1.6569435956625966E-006
  0.14730000000000004          1.5966318187565776E-006
  0.14840000000000003          1.5250009255396435E-006
  0.14950000000000002          1.4421996183955343E-006
  0.15060000000000001          1.3485113186106901E-006
  0.15170000000000000          1.2443424566299655E-006
  0.15280000000000005          1.1302038274152437E-006
  0.15390000000000004          1.0067019502457697E-006
  0.15500000000000003          8.7454748154414119E-007
  0.15610000000000002          7.3458113547530957E-007
  0.15720000000000001          5.8779141909326427E-007
  0.15830000000000000          4.3530033622118935E-007
  0.15940000000000004          2.7831438842440548E-007
  0.16050000000000003          1.1807050270817854E-007
  0.16160000000000002         -4.4185124892237582E-008
  0.16270000000000001         -2.0717536131087400E-007
  0.16380000000000000         -3.6955862015020102E-007
  0.16490000000000005         -5.2993067356510437E-007
  0.16600000000000004         -6.8688086685142480E-007
  0.16710000000000003         -8.3907212911071838E-007
  0.16820000000000002         -9.8528846592671471E-007
  0.16930000000000001         -1.1244192137382925E-006
  0.17040000000000000         -1.2554074828585726E-006
  0.17150000000000004         -1.3772213378615561E-006
  0.17260000000000003         -1.4888856867401046E-006
  0.17370000000000002         -1.5895574279056746E-006
  0.17480000000000001         -1.6785826346676913E-006
  0.17590000000000000         -1.7554963278598734E-006
  0.17700000000000005         -1.8199754094894161E-006
  0.17810000000000004         -1.8718039882514859E-006
  0.17920000000000003         -1.9108879314444494E-006
  0.18030000000000002         -1.9373046598047949E-006
  0.18140000000000001         -1.9513331608322915E-006
  0.18250000000000000         -1.9534270450094482E-006
  0.18360000000000004         -1.9441549738985486E-006
  0.18470000000000003         -1.9241626887378516E-006
  0.18580000000000002         -1.8941938151328941E-006
  0.18690000000000001         -1.8551410221334663E-006
  0.18800000000000000         -1.8080658037433750E-006
  0.18910000000000005         -1.7541545958010829E-006
  0.19020000000000004         -1.6946443111010012E-006
  0.19130000000000003         -1.6307858459185809E-006
  0.19240000000000002         -1.5638771628800896E-006
  0.19350000000000001         -1.4953280924601131E-006
  0.19460000000000005         -1.4266789776229416E-006
  0.19570000000000004         -1.3595429209090071E-006
  0.19680000000000003         -1.2955174497619737E-006
  0.19790000000000002         -1.2361513199721230E-006
  0.19900000000000001         -1.1829997674794868E-006
  0.20010000000000000         -1.1377106829968398E-006
  0.20120000000000005         -1.1020520105375908E-006
  0.20230000000000004         -1.0778435353131499E-006
  0.20340000000000003         -1.0668592267393251E-006
  0.20450000000000002         -1.0707983619795414E-006
  0.20560000000000000         -1.0913619234997896E-006
  0.20670000000000005         -1.1303608289381373E-006
  0.20780000000000004         -1.1897417380168918E-006
  0.20890000000000003         -1.2714926924672909E-006
