 -0.12000000000000000          0.0000000000000000
 -0.11889999999999999          0.0000000000000000
 -0.11780000000000000          0.0000000000000000
 -0.11670000000000000          0.0000000000000000
 -0.11559999999999999          0.0000000000000000
 -0.11449999999999999          0.0000000000000000
 -0.11340000000000000          0.0000000000000000
 -0.11230000000000000          0.0000000000000000
 -0.11119999999999999          0.0000000000000000
 -0.11009999999999999          0.0000000000000000
 -0.10900000000000000          0.0000000000000000
 -0.10790000000000000          0.0000000000000000
 -0.10679999999999999         -9.8324224974530239E-032
 -0.10569999999999999         -1.6873403261985765E-031
 -0.10460000000000000          6.0471190988221101E-030
 -0.10349999999999999          4.5306147772217576E-029
 -0.10239999999999999          1.2017001184637001E-028
 -0.10130000000000000         -9.3096347949643657E-029
 -0.10020000000000000         -1.6601223379266426E-027
  -9.9099999999999994E-002    -5.0615846350927042E-027
  -9.7999999999999990E-002    -3.9932797690328598E-027
  -9.6899999999999986E-002     2.1356137952268473E-026
  -9.5799999999999996E-002     8.5740256408533671E-026
  -9.4699999999999993E-002     1.2425463982081611E-025
  -9.3599999999999989E-002    -8.2428433439141202E-026
  -9.2499999999999999E-002    -7.4817392492004083E-025
  -9.1399999999999995E-002    -1.4696554592129577E-024
  -9.0299999999999991E-002    -6.3333638611101041E-025
  -8.9200000000000002E-002     3.5775315368316018E-024
  -8.8099999999999984E-002     9.4315381524273689E-024
  -8.6999999999999994E-002     8.2723078410659973E-024
  -8.5899999999999990E-002    -9.8890806328991767E-024
  -8.4799999999999986E-002    -3.7400523449808726E-023
  -8.3699999999999997E-002    -3.4810787761276770E-023
  -8.2599999999999993E-002     3.7402340985334355E-023
  -8.1499999999999989E-002     1.2928419232436252E-022
  -8.0399999999999999E-002     5.1645129965791096E-023
  -7.9299999999999995E-002    -3.4685486988357637E-022
  -7.8199999999999992E-002    -7.4981514293360500E-022
  -7.7100000000000002E-002    -1.6297005496846327E-022
  -7.5999999999999984E-002     2.2361654540215114E-021
  -7.4899999999999994E-002     5.0653454941321680E-021
  -7.3799999999999991E-002     3.5060114886545434E-021
  -7.2699999999999987E-002    -7.5158720977883472E-021
  -7.1599999999999997E-002    -2.4670883104831394E-020
  -7.0499999999999993E-002    -2.9092103702203373E-020
  -6.9399999999999989E-002     5.0987804737648595E-021
  -6.8300000000000000E-002     7.9483209911200764E-020
  -6.7199999999999996E-002     1.3752057336983374E-019
  -6.6099999999999992E-002     7.7017856256623285E-020
  -6.5000000000000002E-002    -1.5579206252294100E-019
  -6.3899999999999985E-002    -4.3702846893320388E-019
  -6.2799999999999995E-002    -4.4820021518998021E-019
  -6.1699999999999991E-002     8.9538113707014196E-020
  -6.0599999999999994E-002     1.0060110639275512E-018
  -5.9499999999999990E-002     1.4890886775615822E-018
  -5.8399999999999994E-002     5.6688719140638570E-019
  -5.7299999999999990E-002    -1.7763534082550696E-018
  -5.6199999999999986E-002    -3.7760381372739437E-018
  -5.5099999999999996E-002    -2.6801493502991369E-018
  -5.3999999999999992E-002     2.5410953262452977E-018
  -5.2899999999999989E-002     8.5261740900576834E-018
  -5.1799999999999985E-002     8.3532536373646981E-018
  -5.0699999999999995E-002    -2.4721194233014915E-018
  -4.9599999999999991E-002    -1.8524976170282297E-017
  -4.8499999999999988E-002    -2.3759100462554488E-017
  -4.7399999999999998E-002    -3.4792999138200396E-018
  -4.6299999999999994E-002     3.6636034470765509E-017
  -4.5199999999999990E-002     6.2754163050453851E-017
  -4.4099999999999986E-002     3.3619882494490954E-017
  -4.2999999999999997E-002    -5.5639198790081036E-017
  -4.1899999999999993E-002    -1.4327550391405669E-016
  -4.0799999999999989E-002    -1.2860817552028282E-016
  -3.9699999999999985E-002     3.7788445956562136E-017
  -3.8599999999999995E-002     2.6649250001352311E-016
  -3.7499999999999992E-002     3.4554409974729683E-016
  -3.6399999999999988E-002     1.0313464563089990E-016
  -3.5299999999999984E-002    -3.8168225751608912E-016
  -3.4199999999999994E-002    -7.2705422428663612E-016
  -3.3099999999999991E-002    -4.9790618930769344E-016
  -3.1999999999999987E-002     3.5683819883796926E-016
  -3.0899999999999997E-002     1.2570039876263150E-015
  -2.9799999999999993E-002     1.2946714369115953E-015
  -2.8699999999999989E-002     3.1423218351072683E-017
  -2.7599999999999986E-002    -1.8247268676114441E-015
  -2.6499999999999996E-002    -2.6350629594588991E-015
  -2.5399999999999992E-002    -1.1158249829009413E-015
  -2.4299999999999988E-002     2.1796783534989636E-015
  -2.3199999999999985E-002     4.6437700418951872E-015
  -2.2099999999999995E-002     3.4253656633126059E-015
  -2.0999999999999991E-002    -1.7578055473059604E-015
  -1.9899999999999987E-002    -7.2894655941827327E-015
  -1.8799999999999983E-002    -7.7602854697822465E-015
  -1.7699999999999994E-002    -7.0894005413268848E-016
  -1.6599999999999990E-002     9.7916068496025667E-015
  -1.5499999999999986E-002     1.4742054487413593E-014
  -1.4399999999999996E-002     7.3026640615668492E-015
  -1.3299999999999992E-002    -9.7444169500451351E-015
  -1.2199999999999989E-002    -2.3403427159012120E-014
  -1.1099999999999985E-002    -1.9634067863292387E-014
  -9.9999999999999950E-003     3.4959059318852336E-015
  -8.8999999999999913E-003     3.0203670239783292E-014
  -7.7999999999999875E-003     3.6679315048573566E-014
  -6.6999999999999837E-003     1.1304009587913538E-014
  -5.5999999999999939E-003    -3.0947663323070002E-014
  -4.4999999999999901E-003    -5.5329577860552606E-014
  -3.3999999999999864E-003    -3.4691515068616119E-014
  -2.2999999999999826E-003     2.3105400310586589E-014
  -1.1999999999999927E-003     7.3647366688207178E-014
  -9.9999999999988987E-005     6.8294267539358716E-014
   1.0000000000000148E-003    -1.6546357696600841E-015
   2.1000000000000185E-003    -8.7439536405713170E-014
   3.2000000000000084E-003    -1.1447531019902896E-013
   4.3000000000000121E-003    -4.4871566992664771E-014
   5.4000000000000159E-003     8.0156150814025828E-014
   6.5000000000000058E-003     1.6118623634171075E-013
   7.6000000000000234E-003     1.1849989576834946E-013
   8.7000000000000133E-003    -3.2864759768854238E-014
   9.8000000000000032E-003    -1.7952395754868011E-013
   1.0900000000000021E-002    -1.9367486943627082E-013
   1.2000000000000011E-002    -4.4012770451839003E-014
   1.3100000000000001E-002     1.6146295184118337E-013
   1.4200000000000018E-002     2.4987558680175659E-013
   1.5300000000000008E-002     1.2667629803193164E-013
   1.6400000000000026E-002    -1.2950717700934561E-013
   1.7500000000000016E-002    -3.1117190530012551E-013
   1.8600000000000005E-002    -2.4532109742063379E-013
   1.9700000000000023E-002     5.1579281888343778E-014
   2.0800000000000013E-002     3.6271652998839943E-013
   2.1900000000000003E-002     4.3000138497638341E-013
   2.3000000000000020E-002     1.6514612214638819E-013
   2.4100000000000010E-002    -2.6086392160978855E-013
   2.5200000000000000E-002    -5.3497121012616167E-013
   2.6300000000000018E-002    -4.4324214979775400E-013
   2.7400000000000008E-002    -4.4690562828100105E-014
   2.8500000000000025E-002     3.6739263974822078E-013
   2.9600000000000015E-002     4.9229186265681291E-013
   3.0700000000000005E-002     2.5772629473272413E-013
   3.1800000000000023E-002    -1.2522758708905651E-013
   3.2900000000000013E-002    -3.3360258457591774E-013
   3.4000000000000002E-002    -1.9391007354506440E-013
   3.5100000000000020E-002     1.7441969635094423E-013
   3.6200000000000010E-002     4.4676401792474729E-013
   3.7300000000000028E-002     3.4459433462079303E-013
   3.8400000000000017E-002    -1.4037971902535612E-013
   3.9500000000000007E-002    -7.1533360831987913E-013
   4.0600000000000025E-002    -9.7155226572165354E-013
   4.1700000000000015E-002    -6.5891129358286449E-013
   4.2800000000000005E-002     1.3151453667412105E-013
   4.3900000000000022E-002     9.9407201220591546E-013
   4.5000000000000012E-002     1.4332385105120249E-012
   4.6100000000000002E-002     1.1596254555559793E-012
   4.7200000000000020E-002     2.8388156083671012E-013
   4.8300000000000010E-002    -7.2062587017432400E-013
   4.9400000000000027E-002    -1.2914577176767472E-012
   5.0500000000000017E-002    -1.1390502256680701E-012
   5.1600000000000007E-002    -4.5734873136901721E-013
   5.2700000000000025E-002     1.9713051991557956E-013
   5.3800000000000014E-002     3.2102255966351412E-013
   5.4900000000000004E-002    -1.0892624828376732E-013
   5.6000000000000022E-002    -5.5392599144707400E-013
   5.7100000000000012E-002    -3.1585630920656638E-013
   5.8200000000000002E-002     8.2754463004430789E-013
   5.9300000000000019E-002     2.2669895474725088E-012
   6.0400000000000009E-002     2.8608734305157757E-012
   6.1500000000000027E-002     1.7683399232762409E-012
   6.2600000000000017E-002    -7.9014046824518736E-013
   6.3700000000000007E-002    -3.4929051838383796E-012
   6.4800000000000024E-002    -4.7357556244576049E-012
   6.5900000000000014E-002    -3.7500705665771683E-012
   6.7000000000000004E-002    -1.1582433146264948E-012
   6.8100000000000022E-002     1.5017155271038196E-012
   6.9200000000000012E-002     2.9339345623130564E-012
   7.0300000000000029E-002     3.0025335516492557E-012
   7.1400000000000019E-002     2.6602656709451278E-012
   7.2500000000000009E-002     2.9488616409834023E-012
   7.3600000000000027E-002     3.9173495176847428E-012
   7.4700000000000016E-002     4.3991459780512443E-012
   7.5800000000000006E-002     2.8950678659933615E-012
   7.6900000000000024E-002    -1.1074653563994397E-012
   7.8000000000000014E-002    -6.4353969202179950E-012
   7.9100000000000004E-002    -1.0753594195667127E-011
   8.0200000000000021E-002    -1.1995306657686111E-011
   8.1300000000000011E-002    -9.7271409676968901E-012
   8.2400000000000029E-002    -5.5533698299636836E-012
   8.3500000000000019E-002    -2.3509369364432819E-012
   8.4600000000000009E-002    -2.8718433880969840E-012
   8.5700000000000026E-002    -8.5538937044660202E-012
   8.6800000000000016E-002    -1.9140794851879583E-011
   8.7900000000000006E-002    -3.3189648945830541E-011
   8.9000000000000024E-002    -4.9081062131195452E-011
   9.0100000000000013E-002    -6.5943639437904267E-011
   9.1200000000000003E-002    -8.3998606681401355E-011
   9.2300000000000021E-002    -1.0417833262721388E-010
   9.3400000000000011E-002    -1.2735258680951489E-010
   9.4500000000000028E-002    -1.5385075158302897E-010
   9.5600000000000018E-002    -1.8387569244993074E-010
   9.6700000000000008E-002    -2.1875844191665550E-010
   9.7800000000000026E-002    -2.6216698256753546E-010
   9.8900000000000016E-002    -3.2007141381740212E-010
  0.10000000000000001         -3.9896283499096796E-010
  0.10110000000000002         -5.0321163902466992E-010
  0.10220000000000001         -6.3345684253590662E-010
  0.10330000000000003         -7.8753575882828386E-010
  0.10440000000000002         -9.6372143598699722E-010
  0.10550000000000001         -1.1642015129709193E-009
  0.10660000000000003         -1.3963677991668533E-009
  0.10770000000000002         -1.6710800521124725E-009
  0.10880000000000001         -1.9994392808087014E-009
  0.10990000000000003         -2.3907940072120937E-009
  0.11100000000000002         -2.8536248919408536E-009
  0.11210000000000001         -3.3984519642871192E-009
  0.11320000000000002         -4.0401113565735614E-009
  0.11430000000000001         -4.7972230632353785E-009
  0.11540000000000003         -5.6890758770578032E-009
  0.11650000000000002         -6.7324341657126752E-009
  0.11760000000000001         -7.9410016340375478E-009
  0.11870000000000003         -9.3282563895513704E-009
  0.11980000000000002         -1.0911823444814672E-008
  0.12090000000000001         -1.2716513175803357E-008
  0.12200000000000003         -1.4774300005626628E-008
  0.12310000000000001         -1.7121760009786158E-008
  0.12420000000000003         -1.9796935646354541E-008
  0.12530000000000002         -2.2837445712298177E-008
  0.12640000000000001         -2.6280348564000633E-008
  0.12750000000000003         -3.0163057829213358E-008
  0.12860000000000002         -3.4524333614172065E-008
  0.12970000000000001         -3.9404618235039379E-008
  0.13080000000000003         -4.4845556601558201E-008
  0.13190000000000002         -5.0888843361462932E-008
  0.13300000000000001         -5.7574975897978220E-008
  0.13410000000000000         -6.4942788924327033E-008
  0.13520000000000004         -7.3030456348988082E-008
  0.13630000000000003         -8.1877452373646520E-008
  0.13740000000000002         -9.1525805601122556E-008
  0.13850000000000001         -1.0201835465295517E-007
  0.13960000000000000         -1.1339363936713198E-007
  0.14070000000000005         -1.2567957696774101E-007
  0.14180000000000004         -1.3888976013731735E-007
  0.14290000000000003         -1.5302458677979303E-007
  0.14400000000000002         -1.6807599934054451E-007
  0.14510000000000001         -1.8403127910460171E-007
  0.14620000000000000         -2.0087213670194615E-007
  0.14730000000000004         -2.1856905618733435E-007
  0.14840000000000003         -2.3707512752935145E-007
  0.14950000000000002         -2.5632414235587930E-007
  0.15060000000000001         -2.7623397613751877E-007
  0.15170000000000000         -2.9671113566109852E-007
  0.15280000000000005         -3.1765233643454849E-007
  0.15390000000000004         -3.3893996942424565E-007
  0.15500000000000003         -3.6043530826646020E-007
  0.15610000000000002         -3.8197461549316358E-007
  0.15720000000000001         -4.0337170048587723E-007
  0.15830000000000000         -4.2442474068593583E-007
  0.15940000000000004         -4.4492270490081864E-007
  0.16050000000000003         -4.6464762704090390E-007
  0.16160000000000002         -4.8337346925109159E-007
  0.16270000000000001         -5.0086492819900741E-007
  0.16380000000000000         -5.1687828772628563E-007
  0.16490000000000005         -5.3116519893592340E-007
  0.16600000000000004         -5.4347606237570290E-007
  0.16710000000000003         -5.5356309758280986E-007
  0.16820000000000002         -5.6118318525477662E-007
  0.16930000000000001         -5.6610190313222120E-007
  0.17040000000000000         -5.6810000614859746E-007
  0.17150000000000004         -5.6697825812079827E-007
  0.17260000000000003         -5.6256016023326083E-007
  0.17370000000000002         -5.5469280368924956E-007
  0.17480000000000001         -5.4324954135154258E-007
  0.17590000000000000         -5.2813595630141208E-007
  0.17700000000000005         -5.0929685357914423E-007
  0.17810000000000004         -4.8671955710233306E-007
  0.17920000000000003         -4.6043140855545062E-007
  0.18030000000000002         -4.3049431042163633E-007
  0.18140000000000001         -3.9700313436696888E-007
  0.18250000000000000         -3.6009132031722402E-007
  0.18360000000000004         -3.1993980087463569E-007
  0.18470000000000003         -2.7678126457431063E-007
  0.18580000000000002         -2.3089472733772709E-007
  0.18690000000000001         -1.8259322587255156E-007
  0.18800000000000000         -1.3221423955656064E-007
  0.18910000000000005         -8.0119349377127946E-008
  0.19020000000000004         -2.6700202937490758E-008
  0.19130000000000003          2.7618661135875300E-008
  0.19240000000000002          8.2387508371084550E-008
  0.19350000000000001          1.3714745250581473E-007
  0.19460000000000005          1.9144502516610373E-007
  0.19570000000000004          2.4483662741658918E-007
  0.19680000000000003          2.9688442282349570E-007
  0.19790000000000002          3.4715361607595696E-007
  0.19900000000000001          3.9521830785815837E-007
  0.20010000000000000          4.4067539306524850E-007
  0.20120000000000005          4.8315718004232622E-007
  0.20230000000000004          5.2233491487641004E-007
  0.20340000000000003          5.5791429076634813E-007
  0.20450000000000002          5.8963411220247508E-007
  0.20560000000000000          6.1727234879072057E-007
  0.20670000000000005          6.4065847027450218E-007
  0.20780000000000004          6.5967969931080006E-007
  0.20890000000000003          6.7427623662297265E-007
