 -0.12000000000000000          0.0000000000000000
 -0.11889999999999999          0.0000000000000000
 -0.11780000000000000          0.0000000000000000
 -0.11670000000000000          0.0000000000000000
 -0.11559999999999999          0.0000000000000000
 -0.11449999999999999          0.0000000000000000
 -0.11340000000000000          0.0000000000000000
 -0.11230000000000000          0.0000000000000000
 -0.11119999999999999          0.0000000000000000
 -0.11009999999999999         -1.1392246816368275E-041
 -0.10900000000000000         -1.3141372326978431E-029
 -0.10790000000000000          3.9785523753391426E-028
 -0.10679999999999999          4.0374005129403880E-027
 -0.10569999999999999          1.0403790359394280E-026
 -0.10460000000000000         -2.7281084240636131E-026
 -0.10349999999999999         -2.3775949673800884E-025
 -0.10239999999999999         -5.3780804219772518E-025
 -0.10130000000000000          1.6210408744621390E-025
 -0.10020000000000000          3.4645804602688877E-024
  -9.9099999999999994E-002     6.2670044873282436E-024
  -9.7999999999999990E-002    -4.0740551845079518E-024
  -9.6899999999999986E-002    -2.9426458673446212E-023
  -9.5799999999999996E-002    -7.3171187693939285E-024
  -9.4699999999999993E-002     1.6464641594647586E-022
  -9.3599999999999989E-002     3.1855743209293740E-022
  -9.2499999999999999E-002    -3.9120616983180936E-022
  -9.1399999999999995E-002    -2.7469208056009110E-021
  -9.0299999999999991E-002    -4.2663366822243378E-021
  -8.9200000000000002E-002     3.6073338435524911E-021
  -8.8099999999999984E-002     2.7715749479919556E-020
  -8.6999999999999994E-002     4.7387978527492358E-020
  -8.5899999999999990E-002    -5.6242614981961224E-021
  -8.4799999999999986E-002    -1.9308878331293655E-019
  -8.3699999999999997E-002    -3.9896324565523771E-019
  -8.2599999999999993E-002    -1.8446541250221174E-019
  -8.1499999999999989E-002     9.3891958181674228E-019
  -8.0399999999999999E-002     2.5543719886665962E-018
  -7.9299999999999995E-002     2.3786310568793974E-018
  -7.8199999999999992E-002    -2.7605250428555510E-018
  -7.7100000000000002E-002    -1.2447834065447672E-017
  -7.5999999999999984E-002    -1.7181916096899709E-017
  -7.4899999999999994E-002    -2.4159091919023180E-019
  -7.3799999999999991E-002     4.4832706126894779E-017
  -7.2699999999999987E-002     8.7699918621787327E-017
  -7.1599999999999997E-002     5.6834011554050606E-017
  -7.0499999999999993E-002    -1.0494611823284396E-016
  -6.9399999999999989E-002    -3.3307680708508048E-016
  -6.8300000000000000E-002    -3.8089687268543172E-016
  -6.7199999999999996E-002     4.5514081267328511E-017
  -6.6099999999999992E-002     9.2454641456516514E-016
  -6.5000000000000002E-002     1.5885307773572655E-015
  -6.3899999999999985E-002     9.2252433516148955E-016
  -6.2799999999999995E-002    -1.6245646177250658E-015
  -6.1699999999999991E-002    -4.7515295734444446E-015
  -6.0599999999999994E-002    -5.1614100871695903E-015
  -5.9499999999999990E-002     1.8355530868880964E-016
  -5.8399999999999994E-002     1.0105374111286730E-014
  -5.7299999999999990E-002     1.6995983749066732E-014
  -5.6199999999999986E-002     1.0497049769390618E-014
  -5.5099999999999996E-002    -1.2636217925159101E-014
  -5.3999999999999992E-002    -3.9406110617426309E-014
  -5.2899999999999989E-002    -4.3372708311173436E-014
  -5.1799999999999985E-002    -4.6495569709838810E-015
  -5.0699999999999995E-002     6.3862367542626230E-014
  -4.9599999999999991E-002     1.0937511475942941E-013
  -4.8499999999999988E-002     7.1292574437242485E-014
  -4.7399999999999998E-002    -5.8907197696143412E-014
  -4.6299999999999994E-002    -1.9901368422148712E-013
  -4.5199999999999990E-002    -2.1270349847762933E-013
  -4.4099999999999986E-002    -2.3503280485006269E-014
  -4.2999999999999997E-002     2.7478220436874464E-013
  -4.1899999999999993E-002     4.3103164809075161E-013
  -4.0799999999999989E-002     2.2199180427918262E-013
  -3.9699999999999985E-002    -3.0150795055085581E-013
  -3.8599999999999995E-002    -7.3841524257998774E-013
  -3.7499999999999992E-002    -5.9316885171042990E-013
  -3.6399999999999988E-002     2.4969563634622844E-013
  -3.5299999999999984E-002     1.2281636211502515E-012
  -3.4199999999999994E-002     1.3739314590545329E-012
  -3.3099999999999991E-002     1.2719369286103459E-013
  -3.1999999999999987E-002    -1.9022632861270634E-012
  -3.0899999999999997E-002    -3.0261897588504920E-012
  -2.9799999999999993E-002    -1.6895582155559625E-012
  -2.8699999999999989E-002     1.9438743149859253E-012
  -2.7599999999999986E-002     5.4423401549261939E-012
  -2.6499999999999996E-002     5.5198475998325274E-012
  -2.5399999999999992E-002     7.7352680467481649E-013
  -2.4299999999999988E-002    -6.3822371866585336E-012
  -2.3199999999999985E-002    -1.0647207941693707E-011
  -2.2099999999999995E-002    -7.6480557997796691E-012
  -2.0999999999999991E-002     2.0209123003523384E-012
  -1.9899999999999987E-002     1.2116186526300894E-011
  -1.8799999999999983E-002     1.4850959004219529E-011
  -1.7699999999999994E-002     7.1922433286790529E-012
  -1.6599999999999990E-002    -5.8247690525041002E-012
  -1.5499999999999986E-002    -1.4314614597832312E-011
  -1.4399999999999996E-002    -1.1578551485646957E-011
  -1.3299999999999992E-002    -4.7088700126686599E-013
  -1.2199999999999989E-002     8.1089180509190500E-012
  -1.1099999999999985E-002     4.6558984966025026E-012
  -9.9999999999999950E-003    -8.9762693805661292E-012
  -8.8999999999999913E-003    -1.8560895875815994E-011
  -7.7999999999999875E-003    -8.5368821386956079E-012
  -6.6999999999999837E-003     2.2416358699818663E-011
  -5.5999999999999939E-003     5.4734310833690603E-011
  -4.4999999999999901E-003     5.8668910007935693E-011
  -3.3999999999999864E-003     1.7159473494891069E-011
  -2.2999999999999826E-003    -5.5953082445109054E-011
  -1.1999999999999927E-003    -1.1846962300054925E-010
  -9.9999999999988987E-005    -1.2490970757727315E-010
   1.0000000000000148E-003    -5.8178260819984164E-011
   2.1000000000000185E-003     5.5048441499628623E-011
   3.2000000000000084E-003     1.5764319016842796E-010
   4.3000000000000121E-003     1.9580093102433435E-010
   5.4000000000000159E-003     1.4993968566744386E-010
   6.5000000000000058E-003     4.1943986478482076E-011
   7.6000000000000234E-003    -8.3663159733422191E-011
   8.7000000000000133E-003    -1.8737100759837174E-010
   9.8000000000000032E-003    -2.4879656668198059E-010
   1.0900000000000021E-002    -2.5867999409178744E-010
   1.2000000000000011E-002    -2.0172163939234089E-010
   1.3100000000000001E-002    -5.4234537000229586E-011
   1.4200000000000018E-002     1.9015113095215357E-010
   1.5300000000000008E-002     4.8039305866613457E-010
   1.6400000000000026E-002     6.9011180103829806E-010
   1.7500000000000016E-002     6.5598082521486502E-010
   1.8600000000000005E-002     2.7273022729082456E-010
   1.9700000000000023E-002    -4.0281236679551584E-010
   2.0800000000000013E-002    -1.1142606837212146E-009
   2.1900000000000003E-002    -1.4895410460625063E-009
   2.3000000000000020E-002    -1.2308203345411838E-009
   2.4100000000000010E-002    -3.1393088129033957E-010
   2.5200000000000000E-002     9.3344643126179675E-010
   2.6300000000000018E-002     1.9536439133107198E-009
   2.7400000000000008E-002     2.2387256493062263E-009
   2.8500000000000025E-002     1.6108196998486896E-009
   2.9600000000000015E-002     3.2430177987463869E-010
   3.0700000000000005E-002    -1.0841466613345579E-009
   3.1800000000000023E-002    -2.1008834671934298E-009
   3.2900000000000013E-002    -2.4854964753019820E-009
   3.4000000000000002E-002    -2.2943318356283304E-009
   3.5100000000000020E-002    -1.6835118854528683E-009
   3.6200000000000010E-002    -6.8368427585925473E-010
   3.7300000000000028E-002     8.2189316463787788E-010
   3.8400000000000017E-002     2.8455922063134339E-009
   3.9500000000000007E-002     4.9542379088055268E-009
   4.0600000000000025E-002     6.1681646457147509E-009
   4.1700000000000015E-002     5.3222839468958029E-009
   4.2800000000000005E-002     1.7894077330990329E-009
   4.3900000000000022E-002    -3.8535019619706735E-009
   4.5000000000000012E-002    -9.7080299354964687E-009
   4.6100000000000002E-002    -1.3210740057446282E-008
   4.7200000000000020E-002    -1.2322597164882689E-008
   4.8300000000000010E-002    -6.6384493457860903E-009
   4.9400000000000027E-002     2.2239099450877226E-009
   5.0500000000000017E-002     1.1235023578138866E-008
   5.1600000000000007E-002     1.7293487530879661E-008
   5.2700000000000025E-002     1.8599076057058748E-008
   5.3800000000000014E-002     1.5323855961924697E-008
   5.4900000000000004E-002     9.2274614615918357E-009
   5.6000000000000022E-002     2.4629984718412663E-009
   5.7100000000000012E-002    -3.7029312949249948E-009
   5.8200000000000002E-002    -9.4717886867108579E-009
   5.9300000000000019E-002    -1.6034690020206498E-008
   6.0400000000000009E-002    -2.4353703054203947E-008
   6.1500000000000027E-002    -3.4047371144653689E-008
   6.2600000000000017E-002    -4.3231953128500028E-008
   6.3700000000000007E-002    -4.9597726814457910E-008
   6.4800000000000024E-002    -5.2171127862270741E-008
   6.5900000000000014E-002    -5.2660094951312364E-008
   6.7000000000000004E-002    -5.5401542908846072E-008
   6.8100000000000022E-002    -6.5707020269209028E-008
   6.9200000000000012E-002    -8.7382048263871750E-008
   7.0300000000000029E-002    -1.2077155986390905E-007
   7.1400000000000019E-002    -1.6249347822851301E-007
   7.2500000000000009E-002    -2.0716771587105500E-007
   7.3600000000000027E-002    -2.5041023832274977E-007
   7.4700000000000016E-002    -2.9169723347879513E-007
   7.5800000000000006E-002    -3.3573124369470869E-007
   7.6900000000000024E-002    -3.9161233189591822E-007
   7.8000000000000014E-002    -4.7011295123415514E-007
   7.9100000000000004E-002    -5.8023653082278348E-007
   8.0200000000000021E-002    -7.2662027150733950E-007
   8.1300000000000011E-002    -9.0901733074141966E-007
   8.2400000000000029E-002    -1.1241432957832459E-006
   8.3500000000000019E-002    -1.3690156492886102E-006
   8.4600000000000009E-002    -1.6441622392450547E-006
   8.5700000000000026E-002    -1.9551907826100363E-006
   8.6800000000000016E-002    -2.3121872345657051E-006
   8.7900000000000006E-002    -2.7276739729134232E-006
   8.9000000000000024E-002    -3.2145710520129026E-006
   9.0100000000000013E-002    -3.7853092180743006E-006
   9.1200000000000003E-002    -4.4522098505698883E-006
   9.2300000000000021E-002    -5.2282698561616752E-006
   9.3400000000000011E-002    -6.1273194660321744E-006
   9.4500000000000028E-002    -7.1632321123622301E-006
   9.5600000000000018E-002    -8.3488748714451766E-006
   9.6700000000000008E-002    -9.6958392532551106E-006
   9.7800000000000026E-002    -1.1215441190871490E-005
   9.8900000000000016E-002    -1.2920475455758862E-005
  0.10000000000000001         -1.4826487131359927E-005
  0.10110000000000002         -1.6951526049526074E-005
  0.10220000000000001         -1.9314380551806530E-005
  0.10330000000000003         -2.1932222807665472E-005
  0.10440000000000002         -2.4819064492478412E-005
  0.10550000000000001         -2.7985755878037507E-005
  0.10660000000000003         -3.1441191822526090E-005
  0.10770000000000002         -3.5193439543948900E-005
  0.10880000000000001         -3.9249378460230131E-005
  0.10990000000000003         -4.3612188164847190E-005
  0.11100000000000002         -4.8277390305888553E-005
  0.11210000000000001         -5.3229712648322043E-005
  0.11320000000000002         -5.8442772569838622E-005
  0.11430000000000001         -6.3882107497198706E-005
  0.11540000000000003         -6.9509813329211219E-005
  0.11650000000000002         -7.5287403888075924E-005
  0.11760000000000001         -8.1174046499662023E-005
  0.11870000000000003         -8.7119973613888489E-005
  0.11980000000000002         -9.3058391939857132E-005
  0.12090000000000001         -9.8900316515946446E-005
  0.12200000000000003         -1.0453644063091858E-004
  0.12310000000000001         -1.0984532855219278E-004
  0.12420000000000003         -1.1470272147563401E-004
  0.12530000000000002         -1.1898676893907755E-004
  0.12640000000000001         -1.2257607886568831E-004
  0.12750000000000003         -1.2534245615826204E-004
  0.12860000000000002         -1.2714449258056703E-004
  0.12970000000000001         -1.2782747216989529E-004
  0.13080000000000003         -1.2723052350339717E-004
  0.13190000000000002         -1.2519700976555456E-004
  0.13300000000000001         -1.2158219760750611E-004
  0.13410000000000000         -1.1625559272944139E-004
  0.13520000000000004         -1.0909877892118960E-004
  0.13630000000000003         -1.0000212932937778E-004
  0.13740000000000002         -8.8865301222548759E-005
  0.13850000000000001         -7.5604068115360726E-005
  0.13960000000000000         -6.0161626606719727E-005
  0.14070000000000005         -4.2520641727609988E-005
  0.14180000000000004         -2.2710752091372888E-005
  0.14290000000000003         -8.0698055171562460E-007
  0.14400000000000002          2.3079250240700239E-005
  0.14510000000000001          4.8809910367712773E-005
  0.14620000000000000          7.6222924690234569E-005
  0.14730000000000004          1.0512365406612859E-004
  0.14840000000000003          1.3526980183088490E-004
  0.14950000000000002          1.6635927022436256E-004
  0.15060000000000001          1.9802991300823080E-004
  0.15170000000000000          2.2987385455055368E-004
  0.15280000000000005          2.6146040181631718E-004
  0.15390000000000004          2.9235403053465151E-004
  0.15500000000000003          3.2212000223810907E-004
  0.15610000000000002          3.5031867446381056E-004
  0.15720000000000001          3.7649637670259618E-004
  0.15830000000000000          4.0018328581940300E-004
  0.15940000000000004          4.2090265196751916E-004
  0.16050000000000003          4.3818991980519421E-004
  0.16160000000000002          4.5161449816082078E-004
  0.16270000000000001          4.6079739695419124E-004
  0.16380000000000000          4.6542173367929260E-004
  0.16490000000000005          4.6523567289118276E-004
  0.16600000000000004          4.6005105832595887E-004
  0.16710000000000003          4.4974187039774333E-004
  0.16820000000000002          4.3424571049403685E-004
  0.16930000000000001          4.1357066947970647E-004
  0.17040000000000000          3.8780563045296692E-004
  0.17150000000000004          3.5712783574129984E-004
  0.17260000000000003          3.2180410926233260E-004
  0.17370000000000002          2.8218468651178144E-004
  0.17480000000000001          2.3869163123893010E-004
  0.17590000000000000          1.9180990057067910E-004
  0.17700000000000005          1.4208511856851608E-004
  0.17810000000000004          9.0123408881490695E-005
  0.17920000000000003          3.6586119676944202E-005
  0.18030000000000002         -1.7825024769991643E-005
  0.18140000000000001         -7.2390314016962799E-005
  0.18250000000000000         -1.2639327906073232E-004
  0.18360000000000004         -1.7913467308973611E-004
  0.18470000000000003         -2.2993859602140449E-004
  0.18580000000000002         -2.7815473731609698E-004
  0.18690000000000001         -3.2316343276764389E-004
  0.18800000000000000         -3.6438726237978362E-004
  0.18910000000000005         -4.0130622801374562E-004
  0.19020000000000004         -4.3347151950005663E-004
  0.19130000000000003         -4.6051459503364294E-004
  0.19240000000000002         -4.8215204151351687E-004
  0.19350000000000001         -4.9818929983307515E-004
  0.19460000000000005         -5.0852441927422775E-004
  0.19570000000000004         -5.1314930897210784E-004
  0.19680000000000003         -5.1214644918222960E-004
  0.19790000000000002         -5.0568318692971947E-004
  0.19900000000000001         -4.9400440184404039E-004
  0.20010000000000000         -4.7742403694432911E-004
  0.20120000000000005         -4.5631622197110698E-004
  0.20230000000000004         -4.3110465048816320E-004
  0.20340000000000003         -4.0225274278786038E-004
  0.20450000000000002         -3.7025799974802593E-004
  0.20560000000000000         -3.3565177000130855E-004
  0.20670000000000005         -2.9899933724666938E-004
  0.20780000000000004         -2.6089118910024519E-004
  0.20890000000000003         -2.2192079632079445E-004
