 -0.12000000000000000          0.0000000000000000
 -0.11889999999999999          0.0000000000000000
 -0.11780000000000000          0.0000000000000000
 -0.11670000000000000         -1.9408282760872281E-014
 -0.11559999999999999         -1.1600353381872874E-013
 -0.11449999999999999         -3.1585695972786987E-013
 -0.11340000000000000         -4.6540007091200319E-013
 -0.11230000000000000         -2.3533467384019569E-013
 -0.11119999999999999          4.9853616243891730E-013
 -0.11009999999999999          1.1318901545209759E-012
 -0.10900000000000000          4.4448713915241911E-013
 -0.10790000000000000         -2.0997032237901614E-012
 -0.10679999999999999         -4.6897381811294991E-012
 -0.10569999999999999         -3.3972247757974028E-012
 -0.10460000000000000          4.1141820852907962E-012
 -0.10349999999999999          1.3470556267658473E-011
 -0.10239999999999999          1.3085500565057639E-011
 -0.10130000000000000         -6.7947930268430490E-012
 -0.10020000000000000         -3.9323981571026678E-011
  -9.9099999999999994E-002    -5.5080162653098341E-011
  -9.7999999999999990E-002    -1.9519165797565741E-011
  -9.6899999999999986E-002     6.9676854563827106E-011
  -9.5799999999999996E-002     1.5532791719508054E-010
  -9.4699999999999993E-002     1.4174438012215518E-010
  -9.3599999999999989E-002    -2.8555111400430100E-011
  -9.2499999999999999E-002    -2.9174238025397869E-010
  -9.1399999999999995E-002    -4.5628539835362858E-010
  -9.0299999999999991E-002    -3.1902672170680546E-010
  -8.9200000000000002E-002     1.5228504568476353E-010
  -8.8099999999999984E-002     7.1498568177119637E-010
  -8.6999999999999994E-002     9.5286645240832968E-010
  -8.5899999999999990E-002     5.6445043083996893E-010
  -8.4799999999999986E-002    -3.5447916824082881E-010
  -8.3699999999999997E-002    -1.2754562961347915E-009
  -8.2599999999999993E-002    -1.5382105589267780E-009
  -8.1499999999999989E-002    -8.1677609120589523E-010
  -8.0399999999999999E-002     5.8190235963095915E-010
  -7.9299999999999995E-002     1.8327021011899092E-009
  -7.8199999999999992E-002     2.0782109366734858E-009
  -7.7100000000000002E-002     9.7323149539363385E-010
  -7.5999999999999984E-002    -1.0687145612919835E-009
  -7.4899999999999994E-002    -3.0780542559227797E-009
  -7.3799999999999991E-002    -4.0465026884817235E-009
  -7.2699999999999987E-002    -3.4595699638373389E-009
  -7.1599999999999997E-002    -1.5677480424969303E-009
  -7.0499999999999993E-002     7.4612438449861429E-010
  -6.9399999999999989E-002     2.4942825582741079E-009
  -6.8300000000000000E-002     3.3396045928668627E-009
  -6.7199999999999996E-002     4.2339234340715848E-009
  -6.6099999999999992E-002     7.4819448414586986E-009
  -6.5000000000000002E-002     1.5920289087034689E-008
  -6.3899999999999985E-002     3.1393657451417312E-008
  -6.2799999999999995E-002     5.3313197412308000E-008
  -6.1699999999999991E-002     7.8305113504484325E-008
  -6.0599999999999994E-002     1.0145960516183550E-007
  -5.9499999999999990E-002     1.1868402083337060E-007
  -5.8399999999999994E-002     1.2887242917258845E-007
  -5.7299999999999990E-002     1.3468866200128105E-007
  -5.6199999999999986E-002     1.4170277040648216E-007
  -5.5099999999999996E-002     1.5666266506286775E-007
  -5.3999999999999992E-002     1.8597896200844843E-007
  -5.2899999999999989E-002     2.3490085254707083E-007
  -5.1799999999999985E-002     3.0706146958436875E-007
  -5.0699999999999995E-002     4.0392390587840055E-007
  -4.9599999999999991E-002     5.2428993058128981E-007
  -4.8499999999999988E-002     6.6468169279687572E-007
  -4.7399999999999998E-002     8.2119368016719818E-007
  -4.6299999999999994E-002     9.9231544936628779E-007
  -4.5199999999999990E-002     1.1812174989245250E-006
  -4.4099999999999986E-002     1.3961205240775598E-006
  -4.2999999999999997E-002     1.6486650338265463E-006
  -4.1899999999999993E-002     1.9515516669343924E-006
  -4.0799999999999989E-002     2.3169259293354116E-006
  -3.9699999999999985E-002     2.7559538011701079E-006
  -3.8599999999999995E-002     3.2789116630738135E-006
  -3.7499999999999992E-002     3.8950593079789542E-006
  -3.6399999999999988E-002     4.6125433073029853E-006
  -3.5299999999999984E-002     5.4393080972658936E-006
  -3.4199999999999994E-002     6.3853772189759184E-006
  -3.3099999999999991E-002     7.4652880357461981E-006
  -3.1999999999999987E-002     8.6985901361913420E-006
  -3.0899999999999997E-002     1.0107416528626345E-005
  -2.9799999999999993E-002     1.1712520972650964E-005
  -2.8699999999999989E-002     1.3530740034184419E-005
  -2.7599999999999986E-002     1.5575895304209553E-005
  -2.6499999999999996E-002     1.7862326785689220E-005
  -2.5399999999999992E-002     2.0408064301591367E-005
  -2.4299999999999988E-002     2.3235108528751880E-005
  -2.3199999999999985E-002     2.6366893507656641E-005
  -2.2099999999999995E-002     2.9825248930137604E-005
  -2.0999999999999991E-002     3.3628988603595644E-005
  -1.9899999999999987E-002     3.7794008676428348E-005
  -1.8799999999999983E-002     4.2333056626375765E-005
  -1.7699999999999994E-002     4.7253961383830756E-005
  -1.6599999999999990E-002     5.2557363233063370E-005
  -1.5499999999999986E-002     5.8236295444658026E-005
  -1.4399999999999996E-002     6.4278407080564648E-005
  -1.3299999999999992E-002     7.0668684202246368E-005
  -1.2199999999999989E-002     7.7389311627484858E-005
  -1.1099999999999985E-002     8.4415347373578697E-005
  -9.9999999999999950E-003     9.1708847321569920E-005
  -8.8999999999999913E-003     9.9215882073622197E-005
  -7.7999999999999875E-003     1.0686855239327997E-004
  -6.6999999999999837E-003     1.1458956578280777E-004
  -5.5999999999999939E-003     1.2229479034431279E-004
  -4.4999999999999901E-003     1.2989115202799439E-004
  -3.3999999999999864E-003     1.3727202895097435E-004
  -2.2999999999999826E-003     1.4431486488319933E-004
  -1.1999999999999927E-003     1.5088370128069073E-004
  -9.9999999999988987E-005     1.5683461970183998E-004
   1.0000000000000148E-003     1.6201930702663958E-004
   2.1000000000000185E-003     1.6628415323793888E-004
   3.2000000000000084E-003     1.6946700634434819E-004
   4.3000000000000121E-003     1.7139657575171441E-004
   5.4000000000000159E-003     1.7189713253173977E-004
   6.5000000000000058E-003     1.7079626559279859E-004
   7.6000000000000234E-003     1.6793081886135042E-004
   8.7000000000000133E-003     1.6314808453898877E-004
   9.8000000000000032E-003     1.5630437701474875E-004
   1.0900000000000021E-002     1.4726610970683396E-004
   1.2000000000000011E-002     1.3591590686701238E-004
   1.3100000000000001E-002     1.2216171307954937E-004
   1.4200000000000018E-002     1.0594372724881396E-004
   1.5300000000000008E-002     8.7236323452088982E-005
   1.6400000000000026E-002     6.6047199652530253E-005
   1.7500000000000016E-002     4.2417468648636714E-005
   1.8600000000000005E-002     1.6425050489488058E-005
   1.9700000000000023E-002    -1.1810725482064299E-005
   2.0800000000000013E-002    -4.2127187043661252E-005
   2.1900000000000003E-002    -7.4320298153907061E-005
   2.3000000000000020E-002    -1.0814841516548768E-004
   2.4100000000000010E-002    -1.4333380386233330E-004
   2.5200000000000000E-002    -1.7956084047909826E-004
   2.6300000000000018E-002    -2.1647469839081168E-004
   2.7400000000000008E-002    -2.5368426577188075E-004
   2.8500000000000025E-002    -2.9077028739266098E-004
   2.9600000000000015E-002    -3.2729553640820086E-004
   3.0700000000000005E-002    -3.6281289067119360E-004
   3.1800000000000023E-002    -3.9687042590230703E-004
   3.2900000000000013E-002    -4.2901615961454809E-004
   3.4000000000000002E-002    -4.5880576362833381E-004
   3.5100000000000020E-002    -4.8581309965811670E-004
   3.6200000000000010E-002    -5.0963996909558773E-004
   3.7300000000000028E-002    -5.2992237033322453E-004
   3.8400000000000017E-002    -5.4633378749713302E-004
   3.9500000000000007E-002    -5.5858929408714175E-004
   4.0600000000000025E-002    -5.6645309086889029E-004
   4.1700000000000015E-002    -5.6974840117618442E-004
   4.2800000000000005E-002    -5.6836474686861038E-004
   4.3900000000000022E-002    -5.6225969456136227E-004
   4.5000000000000012E-002    -5.5145664373412728E-004
   4.6100000000000002E-002    -5.3604261483997107E-004
   4.7200000000000020E-002    -5.1616871496662498E-004
   4.8300000000000010E-002    -4.9205147661268711E-004
   4.9400000000000027E-002    -4.6397061669267714E-004
   5.0500000000000017E-002    -4.3226123671047390E-004
   5.1600000000000007E-002    -3.9730183198116720E-004
   5.2700000000000025E-002    -3.5950398887507617E-004
   5.3800000000000014E-002    -3.1930574914440513E-004
   5.4900000000000004E-002    -2.7716718614101410E-004
   5.6000000000000022E-002    -2.3356374003924429E-004
   5.7100000000000012E-002    -1.8897553673014045E-004
   5.8200000000000002E-002    -1.4387542614713311E-004
   5.9300000000000019E-002    -9.8719181551132351E-005
   6.0400000000000009E-002    -5.3939707868266851E-005
   6.1500000000000027E-002    -9.9422486528055742E-006
   6.2600000000000017E-002     3.2901905797189102E-005
   6.3700000000000007E-002     7.4263960414100438E-005
   6.4800000000000024E-002     1.1386568803573027E-004
   6.5900000000000014E-002     1.5148267266340554E-004
   6.7000000000000004E-002     1.8694219761528075E-004
   6.8100000000000022E-002     2.2011934197507799E-004
   6.9200000000000012E-002     2.5093473959714174E-004
   7.0300000000000029E-002     2.7935381513088942E-004
   7.1400000000000019E-002     3.0538468854501843E-004
   7.2500000000000009E-002     3.2907232525758445E-004
   7.3600000000000027E-002     3.5049000871367753E-004
   7.4700000000000016E-002     3.6973168607801199E-004
   7.5800000000000006E-002     3.8690742803737521E-004
   7.6900000000000024E-002     4.0214054752141237E-004
   7.8000000000000014E-002     4.1556262294761837E-004
   7.9100000000000004E-002     4.2730406858026981E-004
   8.0200000000000021E-002     4.3748319149017334E-004
   8.1300000000000011E-002     4.4619906111620367E-004
   8.2400000000000029E-002     4.5352993765845895E-004
   8.3500000000000019E-002     4.5953475637361407E-004
   8.4600000000000009E-002     4.6425304026342928E-004
   8.5700000000000026E-002     4.6770102926529944E-004
   8.6800000000000016E-002     4.6986711095087230E-004
   8.7900000000000006E-002     4.7071161679923534E-004
   8.9000000000000024E-002     4.7017249744385481E-004
   9.0100000000000013E-002     4.6817355905659497E-004
   9.1200000000000003E-002     4.6462993486784399E-004
   9.2300000000000021E-002     4.5944890007376671E-004
   9.3400000000000011E-002     4.5252978452481329E-004
   9.4500000000000028E-002     4.4376833830028772E-004
   9.5600000000000018E-002     4.3306688894517720E-004
   9.6700000000000008E-002     4.2034607031382620E-004
   9.7800000000000026E-002     4.0555215673521161E-004
   9.8900000000000016E-002     3.8865799433551729E-004
  0.10000000000000001          3.6966110928915441E-004
  0.10110000000000002          3.4858426079154015E-004
  0.10220000000000001          3.2548033050261438E-004
  0.10330000000000003          3.0043834703974426E-004
  0.10440000000000002          2.7358601801097393E-004
  0.10550000000000001          2.4508696515113115E-004
  0.10660000000000003          2.1513522369787097E-004
  0.10770000000000002          1.8395132792647928E-004
  0.10880000000000001          1.5178120520431548E-004
  0.10990000000000003          1.1889549932675436E-004
  0.11100000000000002          8.5586092609446496E-005
  0.11210000000000001          5.2158986363792792E-005
  0.11320000000000002          1.8925908079836518E-005
  0.11430000000000001         -1.3802477042190731E-005
  0.11540000000000003         -4.5721430069534108E-005
  0.11650000000000002         -7.6536489359568805E-005
  0.11760000000000001         -1.0596836364129558E-004
  0.11870000000000003         -1.3375806156545877E-004
  0.11980000000000002         -1.5967097715474665E-004
  0.12090000000000001         -1.8349957827012986E-004
  0.12200000000000003         -2.0506556029431522E-004
  0.12310000000000001         -2.2422286565415561E-004
  0.12420000000000003         -2.4086110352072865E-004
  0.12530000000000002         -2.5490697589702904E-004
  0.12640000000000001         -2.6632283697836101E-004
  0.12750000000000003         -2.7510360814630985E-004
  0.12860000000000002         -2.8127504629082978E-004
  0.12970000000000001         -2.8489480610005558E-004
  0.13080000000000003         -2.8605395345948637E-004
  0.13190000000000002         -2.8487513191066682E-004
  0.13300000000000001         -2.8150595608167350E-004
  0.13410000000000000         -2.7611045516096056E-004
  0.13520000000000004         -2.6886354316957295E-004
  0.13630000000000003         -2.5995037867687643E-004
  0.13740000000000002         -2.4956805282272398E-004
  0.13850000000000001         -2.3792433785274625E-004
  0.13960000000000000         -2.2523113875649869E-004
  0.14070000000000005         -2.1169628598727286E-004
  0.14180000000000004         -1.9751835498027503E-004
  0.14290000000000003         -1.8288721912540495E-004
  0.14400000000000002         -1.6798725118860602E-004
  0.14510000000000001         -1.5299762890208513E-004
  0.14620000000000000         -1.3808756193611771E-004
  0.14730000000000004         -1.2340936518739909E-004
  0.14840000000000003         -1.0909476259257644E-004
  0.14950000000000002         -9.5256778877228498E-005
  0.15060000000000001         -8.1994308857247233E-005
  0.15170000000000000         -6.9394460297189653E-005
  0.15280000000000005         -5.7530502090230584E-005
  0.15390000000000004         -4.6457946154987440E-005
  0.15500000000000003         -3.6213041312294081E-005
  0.15610000000000002         -2.6815387172973715E-005
  0.15720000000000001         -1.8272316083312035E-005
  0.15830000000000000         -1.0581510650808923E-005
  0.15940000000000004         -3.7309514482330997E-006
  0.16050000000000003          2.3016903014649870E-006
  0.16160000000000002          7.5477200880413875E-006
  0.16270000000000001          1.2044298273394816E-005
  0.16380000000000000          1.5832118151593022E-005
  0.16490000000000005          1.8955804989673197E-005
  0.16600000000000004          2.1465746613102965E-005
  0.16710000000000003          2.3418193450197577E-005
  0.16820000000000002          2.4872033463907428E-005
  0.16930000000000001          2.5884170099743642E-005
  0.17040000000000000          2.6507101210881956E-005
  0.17150000000000004          2.6790014089783654E-005
  0.17260000000000003          2.6780977350426838E-005
  0.17370000000000002          2.6526629881118424E-005
  0.17480000000000001          2.6068684746860527E-005
  0.17590000000000000          2.5440574972890317E-005
  0.17700000000000005          2.4668228434165940E-005
  0.17810000000000004          2.3775215595378540E-005
  0.17920000000000003          2.2787959096604027E-005
  0.18030000000000002          2.1736161215812899E-005
  0.18140000000000001          2.0647888959501870E-005
  0.18250000000000000          1.9543846065062098E-005
  0.18360000000000004          1.8436174286762252E-005
  0.18470000000000003          1.7332775314571336E-005
  0.18580000000000002          1.6242900528595783E-005
  0.18690000000000001          1.5178788089542650E-005
  0.18800000000000000          1.4152275980450213E-005
  0.18910000000000005          1.3170332749723457E-005
  0.19020000000000004          1.2234359928697813E-005
  0.19130000000000003          1.1344206541252788E-005
  0.19240000000000002          1.0503134035388939E-005
  0.19350000000000001          9.7191241366090253E-006
  0.19460000000000005          9.0015691966982558E-006
  0.19570000000000004          8.3566355897346511E-006
  0.19680000000000003          7.7853865150245838E-006
  0.19790000000000002          7.2856496444728691E-006
  0.19900000000000001          6.8550334617611952E-006
  0.20010000000000000          6.4919622673187405E-006
  0.20120000000000005          6.1941896092321258E-006
  0.20230000000000004          5.9568706092250068E-006
  0.20340000000000003          5.7723486861505080E-006
  0.20450000000000002          5.6316848713322543E-006
  0.20560000000000000          5.5262421483348589E-006
  0.20670000000000005          5.4480960898217745E-006
  0.20780000000000004          5.3897474572295323E-006
  0.20890000000000003          5.3443081924342550E-006
