 -0.12000000000000000          0.0000000000000000
 -0.11889999999999999          0.0000000000000000
 -0.11780000000000000          0.0000000000000000
 -0.11670000000000000          0.0000000000000000
 -0.11559999999999999          0.0000000000000000
 -0.11449999999999999          0.0000000000000000
 -0.11340000000000000          0.0000000000000000
 -0.11230000000000000          0.0000000000000000
 -0.11119999999999999         -6.5845519250314019E-023
 -0.11009999999999999          3.4731124800535208E-022
 -0.10900000000000000          1.0446767080468183E-021
 -0.10790000000000000         -9.0843269004303627E-021
 -0.10679999999999999         -2.9684497498936320E-020
 -0.10569999999999999          7.2571818625287581E-020
 -0.10460000000000000          4.6031763568205780E-019
 -0.10349999999999999          2.6606308346738177E-019
 -0.10239999999999999         -3.0150100534389256E-018
 -0.10130000000000000         -7.8563712064877697E-018
 -0.10020000000000000          2.8255664612150404E-018
  -9.9099999999999994E-002     4.9922533724392360E-017
  -9.7999999999999990E-002     8.5357051959477644E-017
  -9.6899999999999986E-002    -7.0448398585075102E-017
  -9.5799999999999996E-002    -5.2549405239976600E-016
  -9.4699999999999993E-002    -7.4143075568170575E-016
  -9.3599999999999989E-002     6.4650806138721179E-016
  -9.2499999999999999E-002     4.0807231014162570E-015
  -9.1399999999999995E-002     5.5839719546662506E-015
  -9.0299999999999991E-002    -3.3265296238622379E-015
  -8.9200000000000002E-002    -2.4826301902930101E-014
  -8.8099999999999984E-002    -3.6597179957744211E-014
  -8.6999999999999994E-002     6.8227406993667198E-015
  -8.5899999999999990E-002     1.2056908206201089E-013
  -8.4799999999999986E-002     2.0469026864103346E-013
  -8.3699999999999997E-002     4.5762411872082853E-014
  -8.2599999999999993E-002    -4.6243076642221714E-013
  -8.1499999999999989E-002    -9.6025878221217553E-013
  -8.0399999999999999E-002    -5.7211077238508712E-013
  -7.9299999999999995E-002     1.3238026126682900E-012
  -7.8199999999999992E-002     3.7255233620303585E-012
  -7.7100000000000002E-002     3.5256101423714048E-012
  -7.5999999999999984E-002    -2.2387155063779973E-012
  -7.4899999999999994E-002    -1.1718443923558475E-011
  -7.3799999999999991E-002    -1.5524680499479082E-011
  -7.2699999999999987E-002    -2.0395633966441284E-012
  -7.1599999999999997E-002     2.8592340300948038E-011
  -7.0499999999999993E-002     5.2861309079998975E-011
  -6.9399999999999989E-002     3.2894565543672982E-011
  -6.8300000000000000E-002    -4.7190824165044276E-011
  -6.7199999999999996E-002    -1.4139218962316846E-010
  -6.6099999999999992E-002    -1.4685637428346610E-010
  -6.5000000000000002E-002     1.6018708928755565E-011
  -6.3899999999999985E-002     2.8923902162247828E-010
  -6.2799999999999995E-002     4.4231796003657564E-010
  -6.1699999999999991E-002     2.1587709397863364E-010
  -6.0599999999999994E-002    -4.0183728566844934E-010
  -5.9499999999999990E-002    -9.9762287320004361E-010
  -5.8399999999999994E-002    -9.2071356094791668E-010
  -5.7299999999999990E-002     1.5265746999837404E-010
  -5.6199999999999986E-002     1.6819171611004435E-009
  -5.5099999999999996E-002     2.3548416550056572E-009
  -5.3999999999999992E-002     1.0496723490405202E-009
  -5.2899999999999989E-002    -1.9107602167167670E-009
  -5.1799999999999985E-002    -4.3913570557663206E-009
  -5.0699999999999995E-002    -3.7671745722889227E-009
  -4.9599999999999991E-002     6.6442989998805047E-010
  -4.8499999999999988E-002     6.1804352746719360E-009
  -4.7399999999999998E-002     7.9452071588548279E-009
  -4.6299999999999994E-002     2.9413769198072259E-009
  -4.5199999999999990E-002    -6.4185501358338115E-009
  -4.4099999999999986E-002    -1.2721007358607039E-008
  -4.2999999999999997E-002    -9.0366203409075752E-009
  -4.1899999999999993E-002     4.2141650169469358E-009
  -4.0799999999999989E-002     1.7307305810732032E-008
  -3.9699999999999985E-002     1.7676301311553289E-008
  -3.8599999999999995E-002     1.1364366114818836E-009
  -3.7499999999999992E-002    -2.1556516571763495E-008
  -3.6399999999999988E-002    -3.0525502126010906E-008
  -3.5299999999999984E-002    -1.2976183683122144E-008
  -3.4199999999999994E-002     2.2699721213825796E-008
  -3.3099999999999991E-002     4.8779234873563837E-008
  -3.1999999999999987E-002     3.8467192098323721E-008
  -3.0899999999999997E-002    -9.5129299992890992E-009
  -2.9799999999999993E-002    -6.3376397463343892E-008
  -2.8699999999999989E-002    -7.8421486193747114E-008
  -2.7599999999999986E-002    -3.2829827745217699E-008
  -2.6499999999999996E-002     4.9172811600328714E-008
  -2.5399999999999992E-002     1.0911500680776953E-007
  -2.4299999999999988E-002     9.6724704690132057E-008
  -2.3199999999999985E-002     1.1767472329893280E-008
  -2.2099999999999995E-002    -8.9706951200696494E-008
  -2.0999999999999991E-002    -1.3402049603428168E-007
  -1.9899999999999987E-002    -8.6319282388558349E-008
  -1.8799999999999983E-002     1.9602548917418972E-008
  -1.7699999999999994E-002     1.0444562548173053E-007
  -1.6599999999999990E-002     1.0457091548232711E-007
  -1.5499999999999986E-002     2.4161870726402412E-008
  -1.4399999999999996E-002    -6.4733029603303294E-008
  -1.3299999999999992E-002    -7.8448131546338118E-008
  -1.2199999999999989E-002     6.6278840193945143E-009
  -1.1099999999999985E-002     1.2397703130773152E-007
  -9.9999999999999950E-003     1.5846651990614191E-007
  -8.8999999999999913E-003     3.6659255187032613E-008
  -7.7999999999999875E-003    -1.9821517582840897E-007
  -6.6999999999999837E-003    -3.8918909694984904E-007
  -5.5999999999999939E-003    -3.6044266948920267E-007
  -4.4999999999999901E-003    -5.0985310195983402E-008
  -3.3999999999999864E-003     4.0650417076903977E-007
  -2.2999999999999826E-003     7.3425462687737308E-007
  -1.1999999999999927E-003     6.7761379796138499E-007
  -9.9999999999988987E-005     1.9251380933837936E-007
   1.0000000000000148E-003    -4.8452824330524891E-007
   2.1000000000000185E-003    -9.5850475645420374E-007
   3.2000000000000084E-003    -9.3060157269064803E-007
   4.3000000000000121E-003    -4.1230640590583789E-007
   5.4000000000000159E-003     2.6961293997374014E-007
   6.5000000000000058E-003     7.0294794340952649E-007
   7.6000000000000234E-003     6.9361311716420460E-007
   8.7000000000000133E-003     4.0229764408650226E-007
   9.8000000000000032E-003     1.8734455409230577E-007
   1.0900000000000021E-002     2.6557094656709523E-007
   1.2000000000000011E-002     4.7618044618502609E-007
   1.3100000000000001E-002     3.7899391713835939E-007
   1.4200000000000018E-002    -3.4809272619895637E-007
   1.5300000000000008E-002    -1.5213468032015953E-006
   1.6400000000000026E-002    -2.4245946406153962E-006
   1.7500000000000016E-002    -2.2403155526262708E-006
   1.8600000000000005E-002    -6.6569606360644684E-007
   1.9700000000000023E-002     1.7446393485442968E-006
   2.0800000000000013E-002     3.8020216379663907E-006
   2.1900000000000003E-002     4.3614381866063923E-006
   2.3000000000000020E-002     3.0075311769905966E-006
   2.4100000000000010E-002     2.9606616180899437E-007
   2.5200000000000000E-002    -2.5833257950580446E-006
   2.6300000000000018E-002    -4.4651465032075066E-006
   2.7400000000000008E-002    -4.7528719733236358E-006
   2.8500000000000025E-002    -3.5584625948104076E-006
   2.9600000000000015E-002    -1.4581353298126487E-006
   3.0700000000000005E-002     8.7742751020414289E-007
   3.1800000000000023E-002     2.9131947485439014E-006
   3.2900000000000013E-002     4.2578799366310704E-006
   3.4000000000000002E-002     4.5736892388958950E-006
   3.5100000000000020E-002     3.5856487556884531E-006
   3.6200000000000010E-002     1.2863378060501418E-006
   3.7300000000000028E-002    -1.7715142348606605E-006
   3.8400000000000017E-002    -4.3648201426549349E-006
   3.9500000000000007E-002    -4.9266141104453709E-006
   4.0600000000000025E-002    -2.3185502868727781E-006
   4.1700000000000015E-002     3.3102205634349957E-006
   4.2800000000000005E-002     1.0175247552979272E-005
   4.3900000000000022E-002     1.5463989257114008E-005
   4.5000000000000012E-002     1.6768406567280181E-005
   4.6100000000000002E-002     1.3550890798796900E-005
   4.7200000000000020E-002     7.6331261880113743E-006
   4.8300000000000010E-002     2.2306139726424590E-006
   4.9400000000000027E-002     7.6730152898107917E-008
   5.0500000000000017E-002     1.9324759250594070E-006
   5.1600000000000007E-002     6.5841331888805144E-006
   5.2700000000000025E-002     1.2316641914367210E-005
   5.3800000000000014E-002     1.8644544979906641E-005
   5.4900000000000004E-002     2.6803705623024143E-005
   5.6000000000000022E-002     3.8487611163873225E-005
   5.7100000000000012E-002     5.3817064326722175E-005
   5.8200000000000002E-002     7.0312038587871939E-005
   5.9300000000000019E-002     8.3971193816978484E-005
   6.0400000000000009E-002     9.1918664111290127E-005
   6.1500000000000027E-002     9.4773065939079970E-005
   6.2600000000000017E-002     9.6982177637983114E-005
   6.3700000000000007E-002     1.0480226046638563E-004
   6.4800000000000024E-002     1.2323861301410943E-004
   6.5900000000000014E-002     1.5387823805212975E-004
   6.7000000000000004E-002     1.9477232126519084E-004
   6.8100000000000022E-002     2.4208698596339673E-004
   6.9200000000000012E-002     2.9226945480331779E-004
   7.0300000000000029E-002     3.4344103187322617E-004
   7.1400000000000019E-002     3.9554756949655712E-004
   7.2500000000000009E-002     4.4964041444472969E-004
   7.3600000000000027E-002     5.0704949535429478E-004
   7.4700000000000016E-002     5.6909752311185002E-004
   7.5800000000000006E-002     6.3743069767951965E-004
   7.6900000000000024E-002     7.1461749030277133E-004
   7.8000000000000014E-002     8.0416252603754401E-004
   7.9100000000000004E-002     9.0937298955395818E-004
   8.0200000000000021E-002     1.0312863159924746E-003
   8.1300000000000011E-002     1.1668783845379949E-003
   8.2400000000000029E-002     1.3092558365315199E-003
   8.3500000000000019E-002     1.4504884602501988E-003
   8.4600000000000009E-002     1.5859924023970962E-003
   8.5700000000000026E-002     1.7176405526697636E-003
   8.6800000000000016E-002     1.8529965309426188E-003
   8.7900000000000006E-002     2.0004012621939182E-003
   8.9000000000000024E-002     2.1629361435770988E-003
   9.0100000000000013E-002     2.3350806441158056E-003
   9.1200000000000003E-002     2.5046477094292641E-003
   9.2300000000000021E-002     2.6583732105791569E-003
   9.3400000000000011E-002     2.7874489314854145E-003
   9.4500000000000028E-002     2.8898352757096291E-003
   9.5600000000000018E-002     2.9680989682674408E-003
   9.6700000000000008E-002     3.0253883451223373E-003
   9.7800000000000026E-002     3.0621967744082212E-003
   9.8900000000000016E-002     3.0750813893973827E-003
  0.10000000000000001          3.0569590162485838E-003
  0.10110000000000002          2.9976721853017807E-003
  0.10220000000000001          2.8848187066614628E-003
  0.10330000000000003          2.7055325917899609E-003
  0.10440000000000002          2.4496351834386587E-003
  0.10550000000000001          2.1127166692167521E-003
  0.10660000000000003          1.6967997653409839E-003
  0.10770000000000002          1.2086704373359680E-003
  0.10880000000000001          6.5527699189260602E-004
  0.10990000000000003          3.9450405893148854E-005
  0.11100000000000002         -6.4135278807953000E-004
  0.11210000000000001         -1.3937932671979070E-003
  0.11320000000000002         -2.2249815519899130E-003
  0.11430000000000001         -3.1390658114105463E-003
  0.11540000000000003         -4.1335145942866802E-003
  0.11650000000000002         -5.1967785693705082E-003
  0.11760000000000001         -6.3079311512410641E-003
  0.11870000000000003         -7.4406652711331844E-003
  0.11980000000000002         -8.5696820169687271E-003
  0.12090000000000001         -9.6770767122507095E-003
  0.12200000000000003         -1.0753843933343887E-002
  0.12310000000000001         -1.1795418336987495E-002
  0.12420000000000003         -1.2793379835784435E-002
  0.12530000000000002         -1.3729324564337730E-002
  0.12640000000000001         -1.4575057663023472E-002
  0.12750000000000003         -1.5297717414796352E-002
  0.12860000000000002         -1.5865255147218704E-002
  0.12970000000000001         -1.6251005232334137E-002
  0.13080000000000003         -1.6431612893939018E-002
  0.13190000000000002         -1.6388578340411186E-002
  0.13300000000000001         -1.6108872368931770E-002
  0.13410000000000000         -1.5586665831506252E-002
  0.13520000000000004         -1.4823104254901409E-002
  0.13630000000000003         -1.3821641914546490E-002
  0.13740000000000002         -1.2582738883793354E-002
  0.13850000000000001         -1.1102479882538319E-002
  0.13960000000000000         -9.3767317011952400E-003
  0.14070000000000005         -7.4080899357795715E-003
  0.14180000000000004         -5.2109947428107262E-003
  0.14290000000000003         -2.8113964945077896E-003
  0.14400000000000002         -2.4229235714301467E-004
  0.14510000000000001          2.4594468995928764E-003
  0.14620000000000000          5.2543324418365955E-003
  0.14730000000000004          8.0992355942726135E-003
  0.14840000000000003          1.0949239134788513E-002
  0.14950000000000002          1.3760877773165703E-002
  0.15060000000000001          1.6494736075401306E-002
  0.15170000000000000          1.9114829599857330E-002
  0.15280000000000005          2.1581381559371948E-002
  0.15390000000000004          2.3849414661526680E-002
  0.15500000000000003          2.5867987424135208E-002
  0.15610000000000002          2.7588520199060440E-002
  0.15720000000000001          2.8972566127777100E-002
  0.15830000000000000          2.9994685202836990E-002
  0.15940000000000004          3.0637528747320175E-002
  0.16050000000000003          3.0884034931659698E-002
  0.16160000000000002          3.0719179660081863E-002
  0.16270000000000001          3.0133819207549095E-002
  0.16380000000000000          2.9129963368177414E-002
  0.16490000000000005          2.7722612023353577E-002
  0.16600000000000004          2.5932082906365395E-002
  0.16710000000000003          2.3778401315212250E-002
  0.16820000000000002          2.1283887326717377E-002
  0.16930000000000001          1.8478378653526306E-002
  0.17040000000000000          1.5403550118207932E-002
  0.17150000000000004          1.2109736911952496E-002
  0.17260000000000003          8.6474493145942688E-003
  0.17370000000000002          5.0633708015084267E-003
  0.17480000000000001          1.4025822747498751E-003
  0.17590000000000000         -2.2834704723209143E-003
  0.17700000000000005         -5.9336870908737183E-003
  0.17810000000000004         -9.4846738502383232E-003
  0.17920000000000003         -1.2882054783403873E-002
  0.18030000000000002         -1.6085844486951828E-002
  0.18140000000000001         -1.9065115600824356E-002
  0.18250000000000000         -2.1786766126751900E-002
  0.18360000000000004         -2.4211678653955460E-002
  0.18470000000000003         -2.6300994679331779E-002
  0.18580000000000002         -2.8026569634675980E-002
  0.18690000000000001         -2.9376747086644173E-002
  0.18800000000000000         -3.0348049476742744E-002
  0.18910000000000005         -3.0934775248169899E-002
  0.19020000000000004         -3.1127089634537697E-002
  0.19130000000000003         -3.0919643118977547E-002
  0.19240000000000002         -3.0323954299092293E-002
  0.19350000000000001         -2.9369238764047623E-002
  0.19460000000000005         -2.8093652799725533E-002
  0.19570000000000004         -2.6529496535658836E-002
  0.19680000000000003         -2.4701060727238655E-002
  0.19790000000000002         -2.2631365805864334E-002
  0.19900000000000001         -2.0352557301521301E-002
  0.20010000000000000         -1.7906825989484787E-002
  0.20120000000000005         -1.5337219461798668E-002
  0.20230000000000004         -1.2678582221269608E-002
  0.20340000000000003         -9.9602015689015388E-003
  0.20450000000000002         -7.2167487815022469E-003
  0.20560000000000000         -4.4961581006646156E-003
  0.20670000000000005         -1.8523507751524448E-003
  0.20780000000000004          6.7057280102744699E-004
  0.20890000000000003          3.0476069077849388E-003
