 -0.12000000000000000          0.0000000000000000
 -0.11889999999999999          0.0000000000000000
 -0.11780000000000000          0.0000000000000000
 -0.11670000000000000          0.0000000000000000
 -0.11559999999999999         -2.0838242589804601E-011
 -0.11449999999999999         -1.7893235504384819E-011
 -0.11340000000000000          2.7196619956093571E-010
 -0.11230000000000000          9.8206021093005802E-010
 -0.11119999999999999          1.0889664725510784E-009
 -0.11009999999999999         -1.6652001999517552E-009
 -0.10900000000000000         -7.7453696789575588E-009
 -0.10790000000000000         -1.1376725339573568E-008
 -0.10679999999999999         -1.6862007345963548E-009
 -0.10569999999999999          2.5552914451054676E-008
 -0.10460000000000000          5.3358558460558925E-008
 -0.10349999999999999          4.5615973220947126E-008
 -0.10239999999999999         -2.3011542893414116E-008
 -0.10130000000000000         -1.2774876267940272E-007
 -0.10020000000000000         -1.8676577440146502E-007
  -9.9099999999999994E-002    -1.1264790344966968E-007
  -9.7999999999999990E-002     1.0468668421026450E-007
  -9.6899999999999986E-002     3.5383706631364475E-007
  -9.5799999999999996E-002     4.5069606358083547E-007
  -9.4699999999999993E-002     2.6219390747428406E-007
  -9.3599999999999989E-002    -1.7999280998992617E-007
  -9.2499999999999999E-002    -6.6195775616506580E-007
  -9.1399999999999995E-002    -8.8786885044100927E-007
  -9.0299999999999991E-002    -6.4531576526860590E-007
  -8.9200000000000002E-002     5.0731273404380772E-008
  -8.8099999999999984E-002     9.1252542233632994E-007
  -8.6999999999999994E-002     1.4785160828978405E-006
  -8.5899999999999990E-002     1.3470815929395030E-006
  -8.4799999999999986E-002     4.4554951728059677E-007
  -8.3699999999999997E-002    -8.4524589283319074E-007
  -8.2599999999999993E-002    -1.8565873460829607E-006
  -8.1499999999999989E-002    -2.0355537344585173E-006
  -8.0399999999999999E-002    -1.3024199461142416E-006
  -7.9299999999999995E-002    -5.7792050256466609E-008
  -7.8199999999999992E-002     1.1705118367899559E-006
  -7.7100000000000002E-002     2.0840300294366898E-006
  -7.5999999999999984E-002     2.5907061171892565E-006
  -7.4899999999999994E-002     2.4590549401182216E-006
  -7.3799999999999991E-002     1.1875573591169086E-006
  -7.2699999999999987E-002    -1.4713680229760939E-006
  -7.1599999999999997E-002    -4.6649438445456326E-006
  -7.0499999999999993E-002    -6.3009488258103374E-006
  -6.9399999999999989E-002    -4.3249337977613322E-006
  -6.8300000000000000E-002     1.2514624359027948E-006
  -6.7199999999999996E-002     7.4278627835155930E-006
  -6.6099999999999992E-002     9.8059799711336382E-006
  -6.5000000000000002E-002     5.9633384807966650E-006
  -6.3899999999999985E-002    -2.1254888906696578E-006
  -6.2799999999999995E-002    -9.0670682766358368E-006
  -6.1699999999999991E-002    -1.0079919775307644E-005
  -6.0599999999999994E-002    -4.8060173867270350E-006
  -5.9499999999999990E-002     2.5036031274794368E-006
  -5.8399999999999994E-002     6.6938059717358556E-006
  -5.7299999999999990E-002     5.9464227888383903E-006
  -5.6199999999999986E-002     2.6742027330328710E-006
  -5.5099999999999996E-002     4.5085874944561510E-007
  -5.3999999999999992E-002     2.7555753945307515E-007
  -5.2899999999999989E-002     3.9113889016562098E-008
  -5.1799999999999985E-002    -2.4025177935982356E-006
  -5.0699999999999995E-002    -6.0729162214556709E-006
  -4.9599999999999991E-002    -7.3312703534611501E-006
  -4.8499999999999988E-002    -3.6983954032621114E-006
  -4.7399999999999998E-002     3.0630108085460961E-006
  -4.6299999999999994E-002     8.1890129877137952E-006
  -4.5199999999999990E-002     8.4142311607138254E-006
  -4.4099999999999986E-002     4.9194336497748736E-006
  -4.2999999999999997E-002     1.4213595704859472E-006
  -4.1899999999999993E-002    -4.3979039787700458E-007
  -4.0799999999999989E-002    -2.8757337986462517E-006
  -3.9699999999999985E-002    -8.2900141933350824E-006
  -3.8599999999999995E-002    -1.4156283214106224E-005
  -3.7499999999999992E-002    -1.3205431059759576E-005
  -3.6399999999999988E-002    -6.3995776145020500E-007
  -3.5299999999999984E-002     1.8277087292517535E-005
  -3.4199999999999994E-002     2.9342520065256394E-005
  -3.3099999999999991E-002     2.0762814529007301E-005
  -3.1999999999999987E-002    -4.7350558816106059E-006
  -3.0899999999999997E-002    -2.9351902412599884E-005
  -2.9799999999999993E-002    -3.3819378586485982E-005
  -2.8699999999999989E-002    -1.3924533050158061E-005
  -2.7599999999999986E-002     1.5316119970520958E-005
  -2.6499999999999996E-002     3.2278185244649649E-005
  -2.5399999999999992E-002     2.6729805540526286E-005
  -2.4299999999999988E-002     6.6708307713270187E-006
  -2.3199999999999985E-002    -1.1462570000730921E-005
  -2.2099999999999995E-002    -1.8358299712417647E-005
  -2.0999999999999991E-002    -1.7382810256094672E-005
  -1.9899999999999987E-002    -1.5870607967372052E-005
  -1.8799999999999983E-002    -1.3566983398050070E-005
  -1.7699999999999994E-002    -2.5379317776241805E-006
  -1.6599999999999990E-002     2.0593146473402157E-005
  -1.5499999999999986E-002     4.4401938794180751E-005
  -1.4399999999999996E-002     4.8392736061941832E-005
  -1.3299999999999992E-002     2.1913427190156654E-005
  -1.2199999999999989E-002    -2.2333213564706966E-005
  -1.1099999999999985E-002    -5.5723055993439630E-005
  -9.9999999999999950E-003    -5.7099285186268389E-005
  -8.8999999999999913E-003    -3.0048733606236055E-005
  -7.7999999999999875E-003     2.9034645194769837E-006
  -6.6999999999999837E-003     2.2885920770931989E-005
  -5.5999999999999939E-003     3.0496776162181050E-005
  -4.4999999999999901E-003     3.8362624763976783E-005
  -3.3999999999999864E-003     4.9849440983962268E-005
  -2.2999999999999826E-003     4.9075875722337514E-005
  -1.1999999999999927E-003     1.6442416381323710E-005
  -9.9999999999988987E-005    -4.4704855099553242E-005
   1.0000000000000148E-003    -9.9960197985637933E-005
   2.1000000000000185E-003    -1.0749419743660837E-004
   3.2000000000000084E-003    -5.4559091950068250E-005
   4.3000000000000121E-003     2.8458654924179427E-005
   5.4000000000000159E-003     9.1153051471337676E-005
   6.5000000000000058E-003     1.0265297896694392E-004
   7.6000000000000234E-003     7.0954491093289107E-005
   8.7000000000000133E-003     2.5949431801564060E-005
   9.8000000000000032E-003    -1.2431277355062775E-005
   1.0900000000000021E-002    -4.6413839299930260E-005
   1.2000000000000011E-002    -8.2649727119132876E-005
   1.3100000000000001E-002    -1.0846171790035442E-004
   1.4200000000000018E-002    -9.4285285740625113E-005
   1.5300000000000008E-002    -2.5075951270991936E-005
   1.6400000000000026E-002     7.1972644946072251E-005
   1.7500000000000016E-002     1.3823782501276582E-004
   1.8600000000000005E-002     1.2934749247506261E-004
   1.9700000000000023E-002     5.3674761147703975E-005
   2.0800000000000013E-002    -3.4617329220054671E-005
   2.1900000000000003E-002    -8.3062055637128651E-005
   2.3000000000000020E-002    -8.2732920418493450E-005
   2.4100000000000010E-002    -6.3878032960928977E-005
   2.5200000000000000E-002    -5.4159427236299962E-005
   2.6300000000000018E-002    -4.6289056626847014E-005
   2.7400000000000008E-002    -1.0452834430907387E-005
   2.8500000000000025E-002     6.0601119912462309E-005
   2.9600000000000015E-002     1.2767287262249738E-004
   3.0700000000000005E-002     1.3328991190064698E-004
   3.1800000000000023E-002     5.8568424719851464E-005
   3.2900000000000013E-002    -5.0372535042697564E-005
   3.4000000000000002E-002    -1.1789187556132674E-004
   3.5100000000000020E-002    -1.0572960309218615E-004
   3.6200000000000010E-002    -4.3512860429473221E-005
   3.7300000000000028E-002     5.7861320783558767E-006
   3.8400000000000017E-002     1.0569478945399169E-005
   3.9500000000000007E-002    -2.1954567728244001E-006
   4.0600000000000025E-002     1.4532694876834285E-005
   4.1700000000000015E-002     6.7751723690889776E-005
   4.2800000000000005E-002     1.0880712943617254E-004
   4.3900000000000022E-002     8.2888444012496620E-005
   4.5000000000000012E-002    -7.6822907431051135E-006
   4.6100000000000002E-002    -9.6491596195846796E-005
   4.7200000000000020E-002    -1.1361399083398283E-004
   4.8300000000000010E-002    -5.4868338338565081E-005
   4.9400000000000027E-002     1.5219905435515102E-005
   5.0500000000000017E-002     3.0692994187120348E-005
   5.1600000000000007E-002    -7.3350684033357538E-006
   5.2700000000000025E-002    -3.4982633223989978E-005
   5.3800000000000014E-002     1.6782405509729870E-006
   5.4900000000000004E-002     8.0164922110270709E-005
   5.6000000000000022E-002     1.1986398749286309E-004
   5.7100000000000012E-002     6.3729734392836690E-005
   5.8200000000000002E-002    -5.4832169553264976E-005
   5.9300000000000019E-002    -1.3813655823469162E-004
   6.0400000000000009E-002    -1.1947336315643042E-004
   6.1500000000000027E-002    -2.7401616534916684E-005
   6.2600000000000017E-002     4.3909138184972107E-005
   6.3700000000000007E-002     3.2609950721962377E-005
   6.4800000000000024E-002    -2.6707171855377965E-005
   6.5900000000000014E-002    -4.3749994802055880E-005
   6.7000000000000004E-002     2.2989001081441529E-005
   6.8100000000000022E-002     1.1656538117676973E-004
   6.9200000000000012E-002     1.3331884110812098E-004
   7.0300000000000029E-002     3.4317126846872270E-005
   7.1400000000000019E-002    -1.0279946582159027E-004
   7.2500000000000009E-002    -1.5983794583007693E-004
   7.3600000000000027E-002    -8.8823770056478679E-005
   7.4700000000000016E-002     3.4620945370988920E-005
   7.5800000000000006E-002     9.4524002633988857E-005
   7.6900000000000024E-002     5.2059815061511472E-005
   7.8000000000000014E-002    -1.7174837921629660E-005
   7.9100000000000004E-002    -9.7475394795765169E-006
   8.0200000000000021E-002     8.5886851593386382E-005
   8.1300000000000011E-002     1.7092011694330722E-004
   8.2400000000000029E-002     1.3871525879949331E-004
   8.3500000000000019E-002    -6.2934018387750257E-006
   8.4600000000000009E-002    -1.4272278349380940E-004
   8.5700000000000026E-002    -1.4749709225725383E-004
   8.6800000000000016E-002    -1.9458910173852928E-005
   8.7900000000000006E-002     1.1846062989206985E-004
   8.9000000000000024E-002     1.4325807569548488E-004
   9.0100000000000013E-002     5.6105316616594791E-005
   9.1200000000000003E-002    -2.6707171855377965E-005
   9.2300000000000021E-002    -3.5590273910202086E-006
   9.3400000000000011E-002     9.7424752311781049E-005
   9.4500000000000028E-002     1.5011572395451367E-004
   9.5600000000000018E-002     6.5422442276030779E-005
   9.6700000000000008E-002    -1.0219906107522547E-004
   9.7800000000000026E-002    -2.0049187878612429E-004
   9.8900000000000016E-002    -1.3556132034864277E-004
  0.10000000000000001          2.7893514925381169E-005
  0.10110000000000002          1.3017938181292266E-004
  0.10220000000000001          7.7777767728548497E-005
  0.10330000000000003         -6.2181701650843024E-005
  0.10440000000000002         -1.3614003546535969E-004
  0.10550000000000001         -6.6724525822792202E-005
  0.10660000000000003          6.3469320593867451E-005
  0.10770000000000002          9.9074059107806534E-005
  0.10880000000000001         -2.0095483705517836E-005
  0.10990000000000003         -1.9082751532550901E-004
  0.11100000000000002         -2.4452398065477610E-004
  0.11210000000000001         -1.2981046165805310E-004
  0.11320000000000002          3.7557863834081218E-005
  0.11430000000000001          9.3413618742488325E-005
  0.11540000000000003         -4.9045133891922887E-006
  0.11650000000000002         -1.3451966515276581E-004
  0.11760000000000001         -1.3952545123174787E-004
  0.11870000000000003         -1.7216433434441569E-006
  0.11980000000000002          1.3532984303310513E-004
  0.12090000000000001          1.1924188584089279E-004
  0.12200000000000003         -5.0607632147148252E-005
  0.12310000000000001         -2.1168978128116578E-004
  0.12420000000000003         -2.0298029994592071E-004
  0.12530000000000002         -3.0613420676672831E-005
  0.12640000000000001          1.3868632959201932E-004
  0.12750000000000003          1.4797451149206609E-004
  0.12860000000000002          1.5075229384819977E-005
  0.12970000000000001         -9.3084476247895509E-005
  0.13080000000000003         -4.2216430301778018E-005
  0.13190000000000002          1.2317707296460867E-004
  0.13300000000000001          2.2413191618397832E-004
  0.13410000000000000          1.3883100473321974E-004
  0.13520000000000004         -6.3252307882066816E-005
  0.13630000000000003         -1.8692127196118236E-004
  0.13740000000000002         -1.1236978025408462E-004
  0.13850000000000001          8.3015038399025798E-005
  0.13960000000000000          2.0653932006098330E-004
  0.14070000000000005          1.4764176739845425E-004
  0.14180000000000004         -8.7745938799344003E-006
  0.14290000000000003         -7.9484940215479583E-005
  0.14400000000000002          1.8967011783388443E-005
  0.14510000000000001          1.7922812548931688E-004
  0.14620000000000000          2.1622808708343655E-004
  0.14730000000000004          6.8246336013544351E-005
  0.14840000000000003         -1.3303311425261199E-004
  0.14950000000000002         -1.9688582688104361E-004
  0.15060000000000001         -7.1245653089135885E-005
  0.15170000000000000          1.0667677997844294E-004
  0.15280000000000005          1.5350113972090185E-004
  0.15390000000000004          3.3723954402375966E-005
  0.15500000000000003         -1.0943285451503471E-004
  0.15610000000000002         -1.1024303967133164E-004
  0.15720000000000001          3.9250571717275307E-005
  0.15830000000000000          1.7745947116054595E-004
  0.15940000000000004          1.4395252219401300E-004
  0.16050000000000003         -4.6252887841546908E-005
  0.16160000000000002         -2.1686918626073748E-004
  0.16270000000000001         -2.1105320774950087E-004
  0.16380000000000000         -5.1605897169793025E-005
  0.16490000000000005          8.8295702880714089E-005
  0.16600000000000004          6.9842295488342643E-005
  0.16710000000000003         -6.4887142798397690E-005
  0.16820000000000002         -1.4544992882292718E-004
  0.16930000000000001         -6.0438360378611833E-005
  0.17040000000000000          1.1730322876246646E-004
  0.17150000000000004          2.0383388618938625E-004
  0.17260000000000003          9.8763004643842578E-005
  0.17370000000000002         -1.0580872185528278E-004
  0.17480000000000001         -2.1836657833773643E-004
  0.17590000000000000         -1.4433953037951142E-004
  0.17700000000000005          2.2095628082752228E-005
  0.17810000000000004          1.0417027078801766E-004
  0.17920000000000003          3.2092731999000534E-005
  0.18030000000000002         -8.7519882072228938E-005
  0.18140000000000001         -9.4482405984308571E-005
  0.18250000000000000          4.5498763938667253E-005
  0.18360000000000004          1.9713629444595426E-004
  0.18470000000000003          1.9695093214977533E-004
  0.18580000000000002          2.8236667276360095E-005
  0.18690000000000001         -1.5718748909421265E-004
  0.18800000000000000         -1.9354086543899029E-004
  0.18910000000000005         -6.8865731009282172E-005
  0.19020000000000004          7.0817499363329262E-005
  0.19130000000000003          8.1503174442332238E-005
  0.19240000000000002         -2.7395286451792344E-005
  0.19350000000000001         -1.1085700680268928E-004
  0.19460000000000005         -5.2116782171651721E-005
  0.19570000000000004          1.0571468737907708E-004
  0.19680000000000003          2.0295407739467919E-004
  0.19790000000000002          1.3377277355175465E-004
  0.19900000000000001         -3.9786777051631361E-005
  0.20010000000000000         -1.5234554302878678E-004
  0.20120000000000005         -1.0778626165119931E-004
  0.20230000000000004          2.4410443074884824E-005
  0.20340000000000003          9.0844710939563811E-005
  0.20450000000000002          2.2349715436575934E-005
  0.20560000000000000         -9.3241811555344611E-005
  0.20670000000000005         -1.1068068852182478E-004
  0.20780000000000004          1.0416213626740500E-005
  0.20890000000000003          1.5786717995069921E-004
