 -0.12000000000000000          0.0000000000000000
 -0.11889999999999999          0.0000000000000000
 -0.11780000000000000          0.0000000000000000
 -0.11670000000000000          0.0000000000000000
 -0.11559999999999999          0.0000000000000000
 -0.11449999999999999          0.0000000000000000
 -0.11340000000000000          0.0000000000000000
 -0.11230000000000000          0.0000000000000000
 -0.11119999999999999          0.0000000000000000
 -0.11009999999999999         -1.0269285877279080E-025
 -0.10900000000000000          3.7922338372545395E-025
 -0.10790000000000000          7.5103005499198403E-024
 -0.10679999999999999          2.5633517622401617E-023
 -0.10569999999999999         -1.8715079688157415E-023
 -0.10460000000000000         -3.8362772826556022E-022
 -0.10349999999999999         -1.1399015341765661E-021
 -0.10239999999999999         -5.8472147440812587E-022
 -0.10130000000000000          6.0791288440310161E-021
 -0.10020000000000000          2.1179229339036383E-020
  -9.9099999999999994E-002     2.6227548160362964E-020
  -9.7999999999999990E-002    -3.2377077021552498E-020
  -9.6899999999999986E-002    -1.9862160055987137E-019
  -9.5799999999999996E-002    -3.6199962015825682E-019
  -9.4699999999999993E-002    -1.2552321038882352E-019
  -9.3599999999999989E-002     9.7333308703356817E-019
  -9.2499999999999999E-002     2.6223550680807619E-018
  -9.1399999999999995E-002     2.7946478974838490E-018
  -9.0299999999999991E-002    -1.6307017916358515E-018
  -8.9200000000000002E-002    -1.1185578784570419E-017
  -8.8099999999999984E-002    -1.8745315578770987E-017
  -8.6999999999999994E-002    -9.6363108562878757E-018
  -8.5899999999999990E-002     2.6066805331404518E-017
  -8.4799999999999986E-002     7.2512353179741562E-017
  -8.3699999999999997E-002     7.9577084415873002E-017
  -8.2599999999999993E-002    -6.1898272653253782E-018
  -8.1499999999999989E-002    -1.7279575356129534E-016
  -8.0399999999999999E-002    -2.9353127399755340E-016
  -7.9299999999999995E-002    -1.8310841939877456E-016
  -7.8199999999999992E-002     2.1992072274937508E-016
  -7.7100000000000002E-002     6.7546091807383465E-016
  -7.5999999999999984E-002     7.0366870340417717E-016
  -7.4899999999999994E-002    -4.8827189429024066E-018
  -7.3799999999999991E-002    -1.0918952433498950E-015
  -7.2699999999999987E-002    -1.5179157581274253E-015
  -7.1599999999999997E-002    -3.9774210807527474E-016
  -7.0499999999999993E-002     1.7813191819217015E-015
  -6.9399999999999989E-002     2.8472766882399569E-015
  -6.8300000000000000E-002     5.7225074754445551E-016
  -6.7199999999999996E-002    -4.4730785034630512E-015
  -6.6099999999999992E-002    -7.5958407993360977E-015
  -6.5000000000000002E-002    -2.9095577503018161E-015
  -6.3899999999999985E-002     1.0181834928402590E-014
  -6.2799999999999995E-002     2.2411434687230001E-014
  -6.1699999999999991E-002     1.8665790619966689E-014
  -6.0599999999999994E-002    -8.6497149571473991E-015
  -5.9499999999999990E-002    -4.6400268338948122E-014
  -5.8399999999999994E-002    -6.2408350785368400E-014
  -5.7299999999999990E-002    -2.8368544560432189E-014
  -5.6199999999999986E-002     4.9387238547887719E-014
  -5.5099999999999996E-002     1.1955520395294393E-013
  -5.3999999999999992E-002     1.1590449195027166E-013
  -5.2899999999999989E-002     1.4577155807298223E-014
  -5.1799999999999985E-002    -1.2780828641518626E-013
  -5.0699999999999995E-002    -2.0033234511379801E-013
  -4.9599999999999991E-002    -1.2508237176058353E-013
  -4.8499999999999988E-002     6.0190818529471094E-014
  -4.7399999999999998E-002     2.0738933573935595E-013
  -4.6299999999999994E-002     1.7334472344948382E-013
  -4.5199999999999990E-002    -3.6844666044252790E-014
  -4.4099999999999986E-002    -2.3434758907731269E-013
  -4.2999999999999997E-002    -1.8792815068872786E-013
  -4.1899999999999993E-002     1.4679709813172626E-013
  -4.0799999999999989E-002     5.1539453043906006E-013
  -3.9699999999999985E-002     5.2013216867217663E-013
  -3.8599999999999995E-002    -2.8326394506936047E-014
  -3.7499999999999992E-002    -8.4919083483817400E-013
  -3.6399999999999988E-002    -1.3000537061809977E-012
  -3.5299999999999984E-002    -8.5662667280772920E-013
  -3.4199999999999994E-002     3.8652317024143508E-013
  -3.3099999999999991E-002     1.6478138298304438E-012
  -3.1999999999999987E-002     1.9780199613655324E-012
  -3.0899999999999997E-002     1.0182720552168743E-012
  -2.9799999999999993E-002    -6.3026504588285387E-013
  -2.8699999999999989E-002    -1.8048102075343649E-012
  -2.7599999999999986E-002    -1.6954208219636410E-012
  -2.6499999999999996E-002    -5.2986044371520781E-013
  -2.5399999999999992E-002     5.9804732780624055E-013
  -2.4299999999999988E-002     6.7990274868528127E-013
  -2.3199999999999985E-002    -2.6757160940004095E-013
  -2.2099999999999995E-002    -1.1366908933204273E-012
  -2.0999999999999991E-002    -6.8785613056172691E-013
  -1.9899999999999987E-002     1.2390901022238880E-012
  -1.8799999999999983E-002     3.3466224583216619E-012
  -1.7699999999999994E-002     3.7791571087791847E-012
  -1.6599999999999990E-002     1.6472102544806544E-012
  -1.5499999999999986E-002    -2.0837177469589257E-012
  -1.4399999999999996E-002    -5.1432057397710226E-012
  -1.3299999999999992E-002    -5.5746336366504925E-012
  -1.2199999999999989E-002    -3.1535423144343247E-012
  -1.1099999999999985E-002     5.0983284434539383E-013
  -9.9999999999999950E-003     3.2233770774076403E-012
  -8.8999999999999913E-003     3.7850144025957953E-012
  -7.7999999999999875E-003     2.6569668774141278E-012
  -6.6999999999999837E-003     1.3317237937394388E-012
  -5.5999999999999939E-003     1.0276872668822836E-012
  -4.4999999999999901E-003     1.7713152992980885E-012
  -3.3999999999999864E-003     2.4719412714678584E-012
  -2.2999999999999826E-003     1.7852217100440447E-012
  -1.1999999999999927E-003    -9.1373816065520008E-013
  -9.9999999999988987E-005    -5.0214181770976634E-012
   1.0000000000000148E-003    -8.8460523628430207E-012
   2.1000000000000185E-003    -1.0297178908158532E-011
   3.2000000000000084E-003    -7.9014728787683662E-012
   4.3000000000000121E-003    -1.7671754901425108E-012
   5.4000000000000159E-003     6.0817388451713086E-012
   6.5000000000000058E-003     1.2493364849597860E-011
   7.6000000000000234E-003     1.4928102157196703E-011
   8.7000000000000133E-003     1.3065822729306827E-011
   9.8000000000000032E-003     8.9080635229366665E-012
   1.0900000000000021E-002     4.9649073914608665E-012
   1.2000000000000011E-002     1.8133168577767189E-012
   1.3100000000000001E-002    -2.7537293192256992E-012
   1.4200000000000018E-002    -1.1777441868975682E-011
   1.5300000000000008E-002    -2.5631319983118009E-011
   1.6400000000000026E-002    -4.0035936371690220E-011
   1.7500000000000016E-002    -4.7917204926132632E-011
   1.8600000000000005E-002    -4.4333470922135024E-011
   1.9700000000000023E-002    -3.0762968561410267E-011
   2.0800000000000013E-002    -1.5046528259453059E-011
   2.1900000000000003E-002    -6.6049626705493237E-012
   2.3000000000000020E-002    -1.0525177084056331E-011
   2.4100000000000010E-002    -2.5203839015832764E-011
   2.5200000000000000E-002    -4.5288522931839762E-011
   2.6300000000000018E-002    -6.7124014679890881E-011
   2.7400000000000008E-002    -9.1808172175676020E-011
   2.8500000000000025E-002    -1.2321384190714778E-010
   2.9600000000000015E-002    -1.6294511573364881E-010
   3.0700000000000005E-002    -2.0701643177465269E-010
   3.1800000000000023E-002    -2.4755608674096130E-010
   3.2900000000000013E-002    -2.7845017958047750E-010
   3.4000000000000002E-002    -3.0051591770605134E-010
   3.5100000000000020E-002    -3.2233868352268430E-010
   3.6200000000000010E-002    -3.5652145125016472E-010
   3.7300000000000028E-002    -4.1438724673876630E-010
   3.8400000000000017E-002    -5.0247855876145348E-010
   3.9500000000000007E-002    -6.2195509853417400E-010
   4.0600000000000025E-002    -7.6979345120511721E-010
   4.1700000000000015E-002    -9.4045560228284842E-010
   4.2800000000000005E-002    -1.1277873079861145E-009
   4.3900000000000022E-002    -1.3273492305286502E-009
   4.5000000000000012E-002    -1.5384093998703193E-009
   4.6100000000000002E-002    -1.7639558702595978E-009
   4.7200000000000020E-002    -2.0081412088754900E-009
   4.8300000000000010E-002    -2.2731883042578989E-009
   4.9400000000000027E-002    -2.5591520014242417E-009
   5.0500000000000017E-002    -2.8677329400036382E-009
   5.1600000000000007E-002    -3.2068558919458637E-009
   5.2700000000000025E-002    -3.5903777728658693E-009
   5.3800000000000014E-002    -4.0303764770039476E-009
   5.4900000000000004E-002    -4.5263011116952770E-009
   5.6000000000000022E-002    -5.0595554412773863E-009
   5.7100000000000012E-002    -5.5991336012077538E-009
   5.8200000000000002E-002    -6.1151230745785089E-009
   5.9300000000000019E-002    -6.5898269063771308E-009
   6.0400000000000009E-002    -7.0177113009596802E-009
   6.1500000000000027E-002    -7.3947137302344514E-009
   6.2600000000000017E-002    -7.7064150616468242E-009
   6.3700000000000007E-002    -7.9249735662744598E-009
   6.4800000000000024E-002    -8.0160775794967093E-009
   6.5900000000000014E-002    -7.9473174707787201E-009
   6.7000000000000004E-002    -7.6880146693256304E-009
   6.8100000000000022E-002    -7.1988726091362334E-009
   6.9200000000000012E-002    -6.4200493810048202E-009
   7.0300000000000029E-002    -5.2686770501949561E-009
   7.1400000000000019E-002    -3.6488627674899091E-009
   7.2500000000000009E-002    -1.4662548952757332E-009
   7.3600000000000027E-002     1.3642971197226349E-009
   7.4700000000000016E-002     4.9228194853877974E-009
   7.5800000000000006E-002     9.2947844976273522E-009
   7.6900000000000024E-002     1.4578525053821552E-008
   7.8000000000000014E-002     2.0884566964696288E-008
   7.9100000000000004E-002     2.8330408241572100E-008
   8.0200000000000021E-002     3.7037171551900325E-008
   8.1300000000000011E-002     4.7130313873820427E-008
   8.2400000000000029E-002     5.8740496911011326E-008
   8.3500000000000019E-002     7.1999849637901271E-008
   8.4600000000000009E-002     8.7034351281540517E-008
   8.5700000000000026E-002     1.0395835658982228E-007
   8.6800000000000016E-002     1.2287557638045807E-007
   8.7900000000000006E-002     1.4388287183918675E-007
   8.9000000000000024E-002     1.6706896133199527E-007
   9.0100000000000013E-002     1.9250389016177489E-007
   9.1200000000000003E-002     2.2022494761129822E-007
   9.2300000000000021E-002     2.5023066996252968E-007
   9.3400000000000011E-002     2.8248805961082054E-007
   9.4500000000000028E-002     3.1694628432885446E-007
   9.5600000000000018E-002     3.5354128158357538E-007
   9.6700000000000008E-002     3.9218400615933784E-007
   9.7800000000000026E-002     4.3273888650215886E-007
   9.8900000000000016E-002     4.7500992650380626E-007
  0.10000000000000001          5.1874491191479481E-007
  0.10110000000000002          5.6365246337004395E-007
  0.10220000000000001          6.0941329138581258E-007
  0.10330000000000003          6.5567462570465051E-007
  0.10440000000000002          7.0203338964341576E-007
  0.10550000000000001          7.4802716198967576E-007
  0.10660000000000003          7.9314600043283032E-007
  0.10770000000000002          8.3685955587490797E-007
  0.10880000000000001          8.7863827502580155E-007
  0.10990000000000003          9.1795391199403767E-007
  0.11100000000000002          9.5426344159923913E-007
  0.11210000000000001          9.8699638328971867E-007
  0.11320000000000002          1.0155641803065918E-006
  0.11430000000000001          1.0393875982116668E-006
  0.11540000000000003          1.0579242371021740E-006
  0.11650000000000002          1.0706785360524850E-006
  0.11760000000000001          1.0771932466012832E-006
  0.11870000000000003          1.0770427252281389E-006
  0.11980000000000002          1.0698423693610403E-006
  0.12090000000000001          1.0552741969148799E-006
  0.12200000000000003          1.0331106068405390E-006
  0.12310000000000001          1.0032189265983966E-006
  0.12420000000000003          9.6554981610088139E-007
  0.12530000000000002          9.2012476216032282E-007
  0.12640000000000001          8.6703948909408250E-007
  0.12750000000000003          8.0648044331602389E-007
  0.12860000000000002          7.3873877681755193E-007
  0.12970000000000001          6.6420545863359137E-007
  0.13080000000000003          5.8334939012632491E-007
  0.13190000000000002          4.9669586132944517E-007
  0.13300000000000001          4.0482032659378959E-007
  0.13410000000000000          3.0835778375145216E-007
  0.13520000000000004          2.0800895583758471E-007
  0.13630000000000003          1.0452803422820503E-007
  0.13740000000000002         -1.3068712778712010E-009
  0.13850000000000001         -1.0872394540228870E-007
  0.13960000000000000         -2.1697358931759337E-007
  0.14070000000000005         -3.2532969385099692E-007
  0.14180000000000004         -4.3309233888063891E-007
  0.14290000000000003         -5.3960530976833552E-007
  0.14400000000000002         -6.4428655832666161E-007
  0.14510000000000001         -7.4665524607547366E-007
  0.14620000000000000         -8.4634308450397249E-007
  0.14730000000000004         -9.4308990128403219E-007
  0.14840000000000003         -1.0367415370637024E-006
  0.14950000000000002         -1.1272619531154251E-006
  0.15060000000000001         -1.2147586403442665E-006
  0.15170000000000000         -1.2995020597371660E-006
  0.15280000000000005         -1.3819250170853300E-006
  0.15390000000000004         -1.4626025404139540E-006
  0.15500000000000003         -1.5422305068567323E-006
  0.15610000000000002         -1.6216185940719181E-006
  0.15720000000000001         -1.7017001709972059E-006
  0.15830000000000000         -1.7835403696152091E-006
  0.15940000000000004         -1.8683268763196057E-006
  0.16050000000000003         -1.9573399185899784E-006
  0.16160000000000002         -2.0519137251538283E-006
  0.16270000000000001         -2.1534071947824417E-006
  0.16380000000000000         -2.2631872980125828E-006
  0.16490000000000005         -2.3826130473023758E-006
  0.16600000000000004         -2.5130063932008477E-006
  0.16710000000000003         -2.6556026568866816E-006
  0.16820000000000002         -2.8114934593756801E-006
  0.16930000000000001         -2.9815844300171338E-006
  0.17040000000000000         -3.1665733786209773E-006
  0.17150000000000004         -3.3669366530372646E-006
  0.17260000000000003         -3.5829048101728950E-006
  0.17370000000000002         -3.8144125937830164E-006
  0.17480000000000001         -4.0610325413577951E-006
  0.17590000000000000         -4.3219201870666358E-006
  0.17700000000000005         -4.5957817746962656E-006
  0.17810000000000004         -4.8808710744192813E-006
  0.17920000000000003         -5.1749912017835497E-006
  0.18030000000000002         -5.4754759730708250E-006
  0.18140000000000001         -5.7791571634874804E-006
  0.18250000000000000         -6.0823363128287571E-006
  0.18360000000000004         -6.3807833612367102E-006
  0.18470000000000003         -6.6697780312091372E-006
  0.18580000000000002         -6.9441693995025480E-006
  0.18690000000000001         -7.1984277383301633E-006
  0.18800000000000000         -7.4266745286870753E-006
  0.18910000000000005         -7.6227088356965972E-006
  0.19020000000000004         -7.7800686995026314E-006
  0.19130000000000003         -7.8921430031179905E-006
  0.19240000000000002         -7.9523078966296647E-006
  0.19350000000000001         -7.9540577644358725E-006
  0.19460000000000005         -7.8910879892639237E-006
  0.19570000000000004         -7.7573740782092763E-006
  0.19680000000000003         -7.5472712524053756E-006
  0.19790000000000002         -7.2556867962696451E-006
  0.19900000000000001         -6.8782746893696637E-006
  0.20010000000000000         -6.4116061366797473E-006
  0.20120000000000005         -5.8532755247137075E-006
  0.20230000000000004         -5.2019504437334461E-006
  0.20340000000000003         -4.4574398998515924E-006
  0.20450000000000002         -3.6208109577269999E-006
  0.20560000000000000         -2.6945303943645529E-006
  0.20670000000000005         -1.6825683815111651E-006
  0.20780000000000004         -5.9040979749613458E-007
  0.20890000000000003          5.7500784578225311E-007
