 -0.12000000000000000          0.0000000000000000
 -0.11889999999999999          0.0000000000000000
 -0.11780000000000000          0.0000000000000000
 -0.11670000000000000          0.0000000000000000
 -0.11559999999999999          0.0000000000000000
 -0.11449999999999999          0.0000000000000000
 -0.11340000000000000          0.0000000000000000
 -0.11230000000000000          0.0000000000000000
 -0.11119999999999999          0.0000000000000000
 -0.11009999999999999          0.0000000000000000
 -0.10900000000000000          0.0000000000000000
 -0.10790000000000000          4.7932378946304930E-029
 -0.10679999999999999          1.9941275089039768E-027
 -0.10569999999999999          2.8512708736336780E-026
 -0.10460000000000000          2.3293262942236443E-025
 -0.10349999999999999          1.2175432052981483E-024
 -0.10239999999999999          4.2653523762987381E-024
 -0.10130000000000000          1.0082629233716962E-023
 -0.10020000000000000          1.4755668475707993E-023
  -9.9099999999999994E-002     4.5473299180090836E-024
  -9.7999999999999990E-002    -4.7267718714614356E-023
  -9.6899999999999986E-002    -1.6413039994028372E-022
  -9.5799999999999996E-002    -2.3753864033653019E-022
  -9.4699999999999993E-002     2.8883777275384773E-022
  -9.3599999999999989E-002     2.2024416881886366E-021
  -9.2499999999999999E-002     3.6612576992149046E-021
  -9.1399999999999995E-002    -4.5431041258238903E-021
  -9.0299999999999991E-002    -3.1219114636852521E-020
  -8.9200000000000002E-002    -4.2645567898809836E-020
  -8.8099999999999984E-002     7.7242416405885825E-020
  -8.6999999999999994E-002     3.8997551470964958E-019
  -8.5899999999999990E-002     4.5192387211496424E-019
  -8.4799999999999986E-002    -9.0867599746540050E-019
  -8.3699999999999997E-002    -4.0345974259651565E-018
  -8.2599999999999993E-002    -4.5772113641876916E-018
  -8.1499999999999989E-002     7.4454311868938757E-018
  -8.0399999999999999E-002     3.4374784065119098E-017
  -7.9299999999999995E-002     4.2631237718480391E-017
  -7.8199999999999992E-002    -4.1705688787482557E-017
  -7.7100000000000002E-002    -2.4183881199029865E-016
  -7.5999999999999984E-002    -3.4708657321402651E-016
  -7.4899999999999994E-002     1.2366629413842562E-016
  -7.3799999999999991E-002     1.4017576831473386E-015
  -7.2699999999999987E-002     2.4046913853876476E-015
  -7.1599999999999997E-002     3.8002215234880950E-016
  -7.0499999999999993E-002    -6.5899510579892941E-015
  -6.9399999999999989E-002    -1.4037545844963143E-014
  -6.8300000000000000E-002    -8.1944034077772315E-015
  -6.7199999999999996E-002     2.3922377140740518E-014
  -6.6099999999999992E-002     6.8645521938189707E-014
  -6.5000000000000002E-002     6.6320741758628399E-014
  -6.3899999999999985E-002    -5.6003341748116567E-014
  -6.2799999999999995E-002    -2.7784697285981874E-013
  -6.1699999999999991E-002    -3.7906095905378134E-013
  -6.0599999999999994E-002    -1.4468821987420090E-014
  -5.9499999999999990E-002     9.0110552483299577E-013
  -5.8399999999999994E-002     1.6994434288639115E-012
  -5.7299999999999990E-002     9.9619282007551435E-013
  -5.6199999999999986E-002    -2.1210249268738268E-012
  -5.5099999999999996E-002    -6.1330181384822158E-012
  -5.3999999999999992E-002    -6.3512402802279322E-012
  -5.2899999999999989E-002     2.0875781572143870E-012
  -5.1799999999999985E-002     1.7548374212084106E-011
  -5.0699999999999995E-002     2.6890377077815053E-011
  -4.9599999999999991E-002     1.0857285556720164E-011
  -4.8499999999999988E-002    -3.6599934888359442E-011
  -4.7399999999999998E-002    -8.6768946194748509E-011
  -4.6299999999999994E-002    -7.8572141848365362E-011
  -4.5199999999999990E-002     3.5135481329939822E-011
  -4.4099999999999986E-002     2.1529915350537721E-010
  -4.2999999999999997E-002     3.0550489915626144E-010
  -4.1899999999999993E-002     1.1688895684702771E-010
  -4.0799999999999989E-002    -3.7422959175970050E-010
  -3.9699999999999985E-002    -8.5863138821196117E-010
  -3.8599999999999995E-002    -7.7916606500139096E-010
  -3.7499999999999992E-002     2.3021537454148699E-010
  -3.6399999999999988E-002     1.7830237286631245E-009
  -3.5299999999999984E-002     2.6012385578866315E-009
  -3.4199999999999994E-002     1.2621378386867832E-009
  -3.3099999999999991E-002    -2.3660138293024602E-009
  -3.1999999999999987E-002    -6.0894453923765468E-009
  -3.0899999999999997E-002    -6.1359841652119940E-009
  -2.9799999999999993E-002    -4.6066511716347236E-011
  -2.8699999999999989E-002     9.9742809567260338E-009
  -2.7599999999999986E-002     1.6428838733872908E-008
  -2.6499999999999996E-002     1.0888312473866790E-008
  -2.5399999999999992E-002    -8.2200273254784406E-009
  -2.4299999999999988E-002    -3.0268274997524713E-008
  -2.3199999999999985E-002    -3.6121363677921181E-008
  -2.2099999999999995E-002    -1.1953497747185793E-008
  -2.0999999999999991E-002     3.5080486071592532E-008
  -1.9899999999999987E-002     7.3396314803630958E-008
  -1.8799999999999983E-002     6.4722819104190421E-008
  -1.7699999999999994E-002    -4.0391894273739126E-009
  -1.6599999999999990E-002    -9.8260343861511501E-008
  -1.5499999999999986E-002    -1.4691059391225281E-007
  -1.4399999999999996E-002    -9.1002036128884356E-008
  -1.3299999999999992E-002     6.0339473861859005E-008
  -1.2199999999999989E-002     2.1356288470997242E-007
  -1.1099999999999985E-002     2.4258966391244030E-007
  -9.9999999999999950E-003     8.5982655662064644E-008
  -8.8999999999999913E-003    -1.8141366808777093E-007
  -7.7999999999999875E-003    -3.7275117392709944E-007
  -6.6999999999999837E-003    -3.1618586149306793E-007
  -5.5999999999999939E-003    -2.8507136651256815E-009
  -4.4999999999999901E-003     3.6709596429318481E-007
  -3.3999999999999864E-003     5.0638038828765275E-007
  -2.2999999999999826E-003     2.6560897481431311E-007
  -1.1999999999999927E-003    -2.1091869939482422E-007
  -9.9999999999988987E-005    -5.5206078286573756E-007
   1.0000000000000148E-003    -4.4198594650879386E-007
   2.1000000000000185E-003     8.4348187101568328E-008
   3.2000000000000084E-003     5.9607231150948792E-007
   4.3000000000000121E-003     5.7475131143291947E-007
   5.4000000000000159E-003    -1.1531727750480059E-007
   6.5000000000000058E-003    -9.8394434644433204E-007
   7.6000000000000234E-003    -1.1862758810821106E-006
   8.7000000000000133E-003    -2.0866919214768131E-007
   9.8000000000000032E-003     1.5313261201299611E-006
   1.0900000000000021E-002     2.7351554763299646E-006
   1.2000000000000011E-002     2.0730867618112825E-006
   1.3100000000000001E-002    -6.6967498923986568E-007
   1.4200000000000018E-002    -4.0421941776003223E-006
   1.5300000000000008E-002    -5.5948216868273448E-006
   1.6400000000000026E-002    -3.5348227811482502E-006
   1.7500000000000016E-002     1.7143959212262416E-006
   1.8600000000000005E-002     7.2942702900036238E-006
   1.9700000000000023E-002     9.4715896921115927E-006
   2.0800000000000013E-002     6.1199771153042093E-006
   2.1900000000000003E-002    -1.5755143749629497E-006
   2.3000000000000020E-002    -9.5314280770253390E-006
   2.4100000000000010E-002    -1.3197952284826897E-005
   2.5200000000000000E-002    -1.0394767741672695E-005
   2.6300000000000018E-002    -2.5439785531489179E-006
   2.7400000000000008E-002     6.5412314143031836E-006
   2.8500000000000025E-002     1.3244951333035715E-005
   2.9600000000000015E-002     1.5945604900480248E-005
   3.0700000000000005E-002     1.4615658983530011E-005
   3.1800000000000023E-002     8.9809254859574139E-006
   3.2900000000000013E-002    -2.2944043394090841E-006
   3.4000000000000002E-002    -1.9508104742271826E-005
   3.5100000000000020E-002    -3.7956117012072355E-005
   3.6200000000000010E-002    -4.6207798732211813E-005
   3.7300000000000028E-002    -3.0744628020329401E-005
   3.8400000000000017E-002     1.3269891496747732E-005
   3.9500000000000007E-002     7.1704278525430709E-005
   4.0600000000000025E-002     1.1148289922857657E-004
   4.1700000000000015E-002     9.6440249762963504E-005
   4.2800000000000005E-002     1.3405376193986740E-005
   4.3900000000000022E-002    -1.0809630475705490E-004
   4.5000000000000012E-002    -2.0068288722541183E-004
   4.6100000000000002E-002    -1.9401464669499546E-004
   4.7200000000000020E-002    -6.3783576479181647E-005
   4.8300000000000010E-002     1.3728208432439715E-004
   4.9400000000000027E-002     2.9485678533092141E-004
   5.0500000000000017E-002     2.9689888469874859E-004
   5.1600000000000007E-002     1.1242581240367144E-004
   5.2700000000000025E-002    -1.6843248158693314E-004
   5.3800000000000014E-002    -3.7196863559074700E-004
   5.4900000000000004E-002    -3.4734010114334524E-004
   5.6000000000000022E-002    -8.0162324593402445E-005
   5.7100000000000012E-002     2.6885428815148771E-004
   5.8200000000000002E-002     4.4667199836112559E-004
   5.9300000000000019E-002     2.7955078985542059E-004
   6.0400000000000009E-002    -1.7344839579891413E-004
   6.1500000000000027E-002    -6.0567696345970035E-004
   6.2600000000000017E-002    -6.3492415938526392E-004
   6.3700000000000007E-002    -8.3353501395322382E-005
   6.4800000000000024E-002     8.1572617636993527E-004
   6.5900000000000014E-002     1.4615189284086227E-003
   6.7000000000000004E-002     1.2223155936226249E-003
   6.8100000000000022E-002    -9.5267663709819317E-005
   6.9200000000000012E-002    -1.9475907320156693E-003
   7.0300000000000029E-002    -3.1942308414727449E-003
   7.1400000000000019E-002    -2.7104986365884542E-003
   7.2500000000000009E-002    -1.8254871247336268E-004
   7.3600000000000027E-002     3.4134511370211840E-003
   7.4700000000000016E-002     6.0674245469272137E-003
   7.5800000000000006E-002     5.7596736587584019E-003
   7.6900000000000024E-002     1.7782209906727076E-003
   7.8000000000000014E-002    -4.4628768227994442E-003
   7.9100000000000004E-002    -9.7643602639436722E-003
   8.0200000000000021E-002    -1.0703477077186108E-002
   8.1300000000000011E-002    -5.7017956860363483E-003
   8.2400000000000029E-002     3.6006015725433826E-003
   8.3500000000000019E-002     1.2678689323365688E-002
   8.4600000000000009E-002     1.6301712021231651E-002
   8.5700000000000026E-002     1.1554734781384468E-002
   8.6800000000000016E-002    -2.3771901396685280E-005
   8.7900000000000006E-002    -1.2674414552748203E-002
   8.9000000000000024E-002    -1.9276184961199760E-002
   9.0100000000000013E-002    -1.5478628687560558E-002
   9.1200000000000003E-002    -2.7259744238108397E-003
   9.2300000000000021E-002     1.1891480535268784E-002
   9.3400000000000011E-002     1.9339026883244514E-002
   9.4500000000000028E-002     1.4075960963964462E-002
   9.5600000000000018E-002    -1.9637914374470711E-003
   9.6700000000000008E-002    -1.9583523273468018E-002
   9.7800000000000026E-002    -2.7175020426511765E-002
   9.8900000000000016E-002    -1.7743231728672981E-002
  0.10000000000000001          6.0998005792498589E-003
  0.10110000000000002          3.2630149275064468E-002
  0.10220000000000001          4.7348227351903915E-002
  0.10330000000000003          4.1739262640476227E-002
  0.10440000000000002          1.9003160297870636E-002
  0.10550000000000001         -7.4066631495952606E-003
  0.10660000000000003         -2.2345643490552902E-002
  0.10770000000000002         -1.9753616303205490E-002
  0.10880000000000001         -8.5469093173742294E-003
  0.10990000000000003         -8.7865358218550682E-003
  0.11100000000000002         -3.9167176932096481E-002
  0.11210000000000001        -0.10298251360654831
  0.11320000000000002        -0.18198074400424957
  0.11430000000000001        -0.24380545318126678
  0.11540000000000003        -0.26056864857673645
  0.11650000000000002        -0.22826884686946869
  0.11760000000000001        -0.17450463771820068
  0.11870000000000003        -0.14759682118892670
  0.11980000000000002        -0.19127790629863739
  0.12090000000000001        -0.31907525658607483
  0.12200000000000003        -0.50471097230911255
  0.12310000000000001        -0.69674772024154663
  0.12420000000000003        -0.85118180513381958
  0.12530000000000002        -0.96329176425933838
  0.12640000000000001         -1.0781733989715576
  0.12750000000000003         -1.2705620527267456
  0.12860000000000002         -1.6032079458236694
  0.12970000000000001         -2.0881485939025879
  0.13080000000000003         -2.6764080524444580
  0.13190000000000002         -3.2866513729095459
  0.13300000000000001         -3.8597128391265869
  0.13410000000000000         -4.4078378677368164
  0.13520000000000004         -5.0271639823913574
  0.13630000000000003         -5.8613338470458984
  0.13740000000000002         -7.0333170890808105
  0.13850000000000001         -8.5838556289672852
  0.13960000000000000         -10.454560279846191
  0.14070000000000005         -12.529518127441406
  0.14180000000000004         -14.714930534362793
  0.14290000000000003         -17.011285781860352
  0.14400000000000002         -19.534618377685547
  0.14510000000000001         -22.471227645874023
  0.14620000000000000         -25.990308761596680
  0.14730000000000004         -30.165496826171875
  0.14840000000000003         -34.953426361083984
  0.14950000000000002         -40.243553161621094
  0.15060000000000001         -45.951251983642578
  0.15170000000000000         -52.096500396728516
  0.15280000000000005         -58.818222045898438
  0.15390000000000004         -66.311592102050781
  0.15500000000000003         -74.724166870117188
  0.15610000000000002         -84.074073791503906
  0.15720000000000001         -94.241714477539062
  0.15830000000000000         -105.04301452636719
  0.15940000000000004         -116.34162902832031
  0.16050000000000003         -128.12783813476562
  0.16160000000000002         -140.51257324218750
  0.16270000000000001         -153.63511657714844
  0.16380000000000000         -167.53497314453125
  0.16490000000000005         -182.06877136230469
  0.16600000000000004         -196.92164611816406
  0.16710000000000003         -211.71319580078125
  0.16820000000000002         -226.13494873046875
  0.16930000000000001         -240.02966308593750
  0.17040000000000000         -253.36784362792969
  0.17150000000000004         -266.12182617187500
  0.17260000000000003         -278.11816406250000
  0.17370000000000002         -288.95556640625000
  0.17480000000000001         -298.04299926757812
  0.17590000000000000         -304.74295043945312
  0.17700000000000005         -308.53292846679688
  0.17810000000000004         -309.10525512695312
  0.17920000000000003         -306.32476806640625
  0.18030000000000002         -300.09112548828125
  0.18140000000000001         -290.17410278320312
  0.18250000000000000         -276.12802124023438
  0.18360000000000004         -257.34561157226562
  0.18470000000000003         -233.21411132812500
  0.18580000000000002         -203.30165100097656
  0.18690000000000001         -167.46162414550781
  0.18800000000000000         -125.80579376220703
  0.18910000000000005         -78.572723388671875
  0.19020000000000004         -25.969093322753906
  0.19130000000000003          31.908950805664062
  0.19240000000000002          95.024848937988281
  0.19350000000000001          163.26814270019531
  0.19460000000000005          236.30754089355469
  0.19570000000000004          313.52999877929688
  0.19680000000000003          394.07818603515625
  0.19790000000000002          476.97662353515625
  0.19900000000000001          561.23870849609375
  0.20010000000000000          645.92395019531250
  0.20120000000000005          730.08569335937500
  0.20230000000000004          812.67620849609375
  0.20340000000000003          892.47125244140625
  0.20450000000000002          968.06958007812500
  0.20560000000000000          1037.9891357421875
  0.20670000000000005          1100.8045654296875
  0.20780000000000004          1155.2567138671875
  0.20890000000000003          1200.2791748046875
