 -0.12000000000000000          0.0000000000000000
 -0.11889999999999999          0.0000000000000000
 -0.11780000000000000          0.0000000000000000
 -0.11670000000000000          0.0000000000000000
 -0.11559999999999999          0.0000000000000000
 -0.11449999999999999          0.0000000000000000
 -0.11340000000000000          0.0000000000000000
 -0.11230000000000000          1.2699219737718645E-028
 -0.11119999999999999          2.9121051489545873E-022
 -0.11009999999999999          3.6182281514908082E-021
 -0.10900000000000000          1.9482780453504662E-020
 -0.10790000000000000          5.1949417547819261E-020
 -0.10679999999999999          1.8555084471829370E-020
 -0.10569999999999999         -3.9150391183710030E-019
 -0.10460000000000000         -1.5724382912145692E-018
 -0.10349999999999999         -2.8238192489661752E-018
 -0.10239999999999999         -1.6681629921204440E-019
 -0.10130000000000000          1.3541916083170975E-017
 -0.10020000000000000          3.9350229127511256E-017
  -9.9099999999999994E-002     5.1770130958035703E-017
  -9.7999999999999990E-002    -1.3537662720461228E-017
  -9.6899999999999986E-002    -2.1863090332891887E-016
  -9.5799999999999996E-002    -4.9741496313784514E-016
  -9.4699999999999993E-002    -5.1445890716293697E-016
  -9.3599999999999989E-002     2.7029840433399389E-016
  -9.2499999999999999E-002     2.0881807957453700E-015
  -9.1399999999999995E-002     3.9979993226885602E-015
  -9.0299999999999991E-002     3.4530992160716062E-015
  -8.9200000000000002E-002    -2.4651072808999815E-015
  -8.8099999999999984E-002    -1.3638074095609701E-014
  -8.6999999999999994E-002    -2.3142517294335273E-014
  -8.5899999999999990E-002    -1.7565735378841790E-014
  -8.4799999999999986E-002     1.4354774083269982E-014
  -8.3699999999999997E-002     6.6274236261692349E-014
  -8.2599999999999993E-002     1.0319621947339069E-013
  -8.1499999999999989E-002     7.1772991196150659E-014
  -8.0399999999999999E-002    -5.9892086949620005E-014
  -7.9299999999999995E-002    -2.5048404106095545E-013
  -7.8199999999999992E-002    -3.6677215084490733E-013
  -7.7100000000000002E-002    -2.4301895673768670E-013
  -7.5999999999999984E-002     1.8434472698336535E-013
  -7.4899999999999994E-002     7.4798142939841439E-013
  -7.3799999999999991E-002     1.0547208722719303E-012
  -7.2699999999999987E-002     6.9943459661200857E-013
  -7.1599999999999997E-002    -3.9395665007123382E-013
  -7.0499999999999993E-002    -1.7462821553376751E-012
  -6.9399999999999989E-002    -2.4622081717246003E-012
  -6.8300000000000000E-002    -1.7647334331696851E-012
  -6.7199999999999996E-002     3.7840477279393880E-013
  -6.6099999999999992E-002     3.0146581845441611E-012
  -6.5000000000000002E-002     4.6333635712880739E-012
  -6.3899999999999985E-002     4.0504813045294519E-012
  -6.2799999999999995E-002     1.1493687945840492E-012
  -6.1699999999999991E-002    -3.0368734870583891E-012
  -6.0599999999999994E-002    -6.8679562904849778E-012
  -5.9499999999999990E-002    -8.7290071004719749E-012
  -5.8399999999999994E-002    -7.3158935506856260E-012
  -5.7299999999999990E-002    -1.7936772943663581E-012
  -5.6199999999999986E-002     7.5097436949556062E-012
  -5.5099999999999996E-002     1.7792531337157413E-011
  -5.3999999999999992E-002     2.3151990741210327E-011
  -5.2899999999999989E-002     1.6642237934960669E-011
  -5.1799999999999985E-002    -4.5029297131293777E-012
  -5.0699999999999995E-002    -3.3405413851772536E-011
  -4.9599999999999991E-002    -5.3215910844617298E-011
  -4.8499999999999988E-002    -4.5459826875093867E-011
  -4.7399999999999998E-002    -4.0815037981312141E-012
  -4.6299999999999994E-002     5.4560456846930450E-011
  -4.5199999999999990E-002     9.5951073475486481E-011
  -4.4099999999999986E-002     8.7393564607296526E-011
  -4.2999999999999997E-002     2.2229967866493894E-011
  -4.1899999999999993E-002    -6.9757963294669878E-011
  -4.0799999999999989E-002    -1.3655430952663750E-010
  -3.9699999999999985E-002    -1.3572631907265986E-010
  -3.8599999999999995E-002    -6.2154108249057316E-011
  -3.7499999999999992E-002     4.8503749627837323E-011
  -3.6399999999999988E-002     1.4261671010817878E-010
  -3.5299999999999984E-002     1.7944071228903624E-010
  -3.4199999999999994E-002     1.4729913122568661E-010
  -3.3099999999999991E-002     5.7930577002096584E-011
  -3.1999999999999987E-002    -6.7223629440782418E-011
  -3.0899999999999997E-002    -1.9989157551414394E-010
  -2.9799999999999993E-002    -2.9534141798848168E-010
  -2.8699999999999989E-002    -2.9108807031441586E-010
  -2.7599999999999986E-002    -1.3608431048695024E-010
  -2.6499999999999996E-002     1.5607716508103664E-010
  -2.5399999999999992E-002     4.7221848653578036E-010
  -2.4299999999999988E-002     6.3038019249006538E-010
  -2.3199999999999985E-002     4.8172915656508053E-010
  -2.2099999999999995E-002     2.6048888740470844E-011
  -2.0999999999999991E-002    -5.4656407177944288E-010
  -1.9899999999999987E-002    -9.3711283177810856E-010
  -1.8799999999999983E-002    -9.0558160970033441E-010
  -1.7699999999999994E-002    -4.1978764908634503E-010
  -1.6599999999999990E-002     3.1443089798521839E-010
  -1.5499999999999986E-002     9.6136465455032294E-010
  -1.4399999999999996E-002     1.2289256279274241E-009
  -1.3299999999999992E-002     1.0002790817864593E-009
  -1.2199999999999989E-002     3.6121194924021438E-010
  -1.1099999999999985E-002    -4.6069786874269880E-010
  -9.9999999999999950E-003    -1.1844718539322230E-009
  -8.8999999999999913E-003    -1.5484563631318338E-009
  -7.7999999999999875E-003    -1.3703700396661134E-009
  -6.6999999999999837E-003    -6.1571026055418088E-010
  -5.5999999999999939E-003     5.3621385109892117E-010
  -4.4999999999999901E-003     1.6848888950704577E-009
  -3.3999999999999864E-003     2.3176385255396781E-009
  -2.2999999999999826E-003     2.0296224700899756E-009
  -1.1999999999999927E-003     7.6153161554515236E-010
  -9.9999999999988987E-005    -1.0821092910617836E-009
   1.0000000000000148E-003    -2.7316657824627555E-009
   2.1000000000000185E-003    -3.3615992212077117E-009
   3.2000000000000084E-003    -2.4914408314202774E-009
   4.3000000000000121E-003    -2.9402300039116369E-010
   5.4000000000000159E-003     2.3635962076440364E-009
   6.5000000000000058E-003     4.2286956158932298E-009
   7.6000000000000234E-003     4.2433727642787744E-009
   8.7000000000000133E-003     2.1456536547503902E-009
   9.8000000000000032E-003    -1.2485755762625672E-009
   1.0900000000000021E-002    -4.3253765014128476E-009
   1.2000000000000011E-002    -5.4642783631209113E-009
   1.3100000000000001E-002    -3.9474348234591616E-009
   1.4200000000000018E-002    -4.3801404170373814E-010
   1.5300000000000008E-002     3.3209872629669235E-009
   1.6400000000000026E-002     5.4595870047080552E-009
   1.7500000000000016E-002     5.0152761943422774E-009
   1.8600000000000005E-002     2.4038822044047947E-009
   1.9700000000000023E-002    -9.4371288561490019E-010
   2.0800000000000013E-002    -3.4855638375574927E-009
   2.1900000000000003E-002    -4.3834860186109381E-009
   2.3000000000000020E-002    -3.7325085244788170E-009
   2.4100000000000010E-002    -2.1843067354865298E-009
   2.5200000000000000E-002    -3.7283526266307376E-010
   2.6300000000000018E-002     1.3904225548699856E-009
   2.7400000000000008E-002     2.9951197078048608E-009
   2.8500000000000025E-002     4.2138310618611285E-009
   2.9600000000000015E-002     4.5574362061984175E-009
   3.0700000000000005E-002     3.4907696733199600E-009
   3.1800000000000023E-002     8.7442986185237714E-010
   3.2900000000000013E-002    -2.6961337606934421E-009
   3.4000000000000002E-002    -5.9327698309630250E-009
   3.5100000000000020E-002    -7.3340813422362316E-009
   3.6200000000000010E-002    -5.9144675823574744E-009
   3.7300000000000028E-002    -1.8366757004173451E-009
   3.8400000000000017E-002     3.4204272747473397E-009
   3.9500000000000007E-002     7.5769515106571816E-009
   4.0600000000000025E-002     8.6371789720374181E-009
   4.1700000000000015E-002     6.0311733385276511E-009
   4.2800000000000005E-002     1.0959767537954690E-009
   4.3900000000000022E-002    -3.5643010765085137E-009
   4.5000000000000012E-002    -5.6044542340316639E-009
   4.6100000000000002E-002    -4.4138230848034254E-009
   4.7200000000000020E-002    -1.4822569838202071E-009
   4.8300000000000010E-002     7.1042638438711947E-010
   4.9400000000000027E-002     5.5700211110121245E-010
   5.0500000000000017E-002    -1.4287636629362055E-009
   5.1600000000000007E-002    -2.9700466530613312E-009
   5.2700000000000025E-002    -1.7983216027417370E-009
   5.3800000000000014E-002     2.4548816313085808E-009
   5.4900000000000004E-002     7.6760002798437199E-009
   5.6000000000000022E-002     1.0483950596551495E-008
   5.7100000000000012E-002     8.4230116215167072E-009
   5.8200000000000002E-002     1.6601590102638397E-009
   5.9300000000000019E-002    -6.8923742269078048E-009
   6.0400000000000009E-002    -1.3053590208755850E-008
   6.1500000000000027E-002    -1.3543390409154199E-008
   6.2600000000000017E-002    -7.6819359762225758E-009
   6.3700000000000007E-002     2.1781847436841417E-009
   6.4800000000000024E-002     1.1630562291031765E-008
   6.5900000000000014E-002     1.6205067510099980E-008
   6.7000000000000004E-002     1.3537424514709073E-008
   6.8100000000000022E-002     4.6701478240152028E-009
   6.9200000000000012E-002    -6.3064020672243259E-009
   7.0300000000000029E-002    -1.4290557182050634E-008
   7.1400000000000019E-002    -1.5827783528266082E-008
   7.2500000000000009E-002    -1.0795368154958851E-008
   7.3600000000000027E-002    -2.0775370312975383E-009
   7.4700000000000016E-002     6.4309211289526047E-009
   7.5800000000000006E-002     1.1970606728084476E-008
   7.6900000000000024E-002     1.3736850767998021E-008
   7.8000000000000014E-002     1.2063108734139405E-008
   7.9100000000000004E-002     7.1861068207113021E-009
   8.0200000000000021E-002    -9.2051349875887922E-010
   8.1300000000000011E-002    -1.1384694964533537E-008
   8.2400000000000029E-002    -2.1220756707407418E-008
   8.3500000000000019E-002    -2.5717554308357649E-008
   8.4600000000000009E-002    -2.0860195348859634E-008
   8.5700000000000026E-002    -6.3328799981832162E-009
   8.6800000000000016E-002     1.3177118063367743E-008
   8.7900000000000006E-002     2.9601224582620489E-008
   8.9000000000000024E-002     3.5227941452831146E-008
   9.0100000000000013E-002     2.6404428865589580E-008
   9.1200000000000003E-002     5.3746109784924556E-009
   9.2300000000000021E-002    -2.0385748200624221E-008
   9.3400000000000011E-002    -4.0860555827748613E-008
   9.4500000000000028E-002    -4.7148215998049636E-008
   9.5600000000000018E-002    -3.5096576311843819E-008
   9.6700000000000008E-002    -7.8412636383973222E-009
   9.7800000000000026E-002     2.4396234366008684E-008
   9.8900000000000016E-002     4.8012630315952265E-008
  0.10000000000000001          5.2073772849325906E-008
  0.10110000000000002          3.3894611561890997E-008
  0.10220000000000001          8.0470041741165232E-010
  0.10330000000000003         -3.3167712132353699E-008
  0.10440000000000002         -5.3981072056785706E-008
  0.10550000000000001         -5.3660048848769293E-008
  0.10660000000000003         -3.2747845324365699E-008
  0.10770000000000002          1.0284029183793564E-009
  0.10880000000000001          3.6018494853351513E-008
  0.10990000000000003          6.0057494977172610E-008
  0.11100000000000002          6.3650780646185012E-008
  0.11210000000000001          4.3227199597595245E-008
  0.11320000000000002          3.9346699232112314E-009
  0.11430000000000001         -4.0102822396193005E-008
  0.11540000000000003         -7.0140160346454650E-008
  0.11650000000000002         -7.1253168698603986E-008
  0.11760000000000001         -4.0537479151225853E-008
  0.11870000000000003          1.0094522551185037E-008
  0.11980000000000002          5.8918754319847721E-008
  0.12090000000000001          8.4717406423351349E-008
  0.12200000000000003          7.6530966452992288E-008
  0.12310000000000001          3.7911814132485233E-008
  0.12420000000000003         -1.5443031742279345E-008
  0.12530000000000002         -6.2419211133146746E-008
  0.12640000000000001         -8.4327304250564339E-008
  0.12750000000000003         -7.1573943216662883E-008
  0.12860000000000002         -2.7775662658768852E-008
  0.12970000000000001          3.0217218949246671E-008
  0.13080000000000003          7.7904566353481641E-008
  0.13190000000000002          9.3594124450646632E-008
  0.13300000000000001          6.9299872507144755E-008
  0.13410000000000000          1.5662546815065070E-008
  0.13520000000000004         -4.2986805226519209E-008
  0.13630000000000003         -8.1222026437899331E-008
  0.13740000000000002         -8.5007648920054635E-008
  0.13850000000000001         -5.6616446642010487E-008
  0.13960000000000000         -1.0374317405137390E-008
  0.14070000000000005          3.6075689990866522E-008
  0.14180000000000004          6.8454426127573242E-008
  0.14290000000000003          7.8076638487800665E-008
  0.14400000000000002          6.1963859820934886E-008
  0.14510000000000001          2.3599834975129852E-008
  0.14620000000000000         -2.5635682021629691E-008
  0.14730000000000004         -6.7719689411660511E-008
  0.14840000000000003         -8.4689361301570898E-008
  0.14950000000000002         -6.8241881479025324E-008
  0.15060000000000001         -2.5250260549114500E-008
  0.15170000000000000          2.5430974659457206E-008
  0.15280000000000005          6.3223573931736610E-008
  0.15390000000000004          7.6032634410694300E-008
  0.15500000000000003          6.3305130026947154E-008
  0.15610000000000002          3.2052330567466925E-008
  0.15720000000000001         -8.3860323130124925E-009
  0.15830000000000000         -4.7886441478794950E-008
  0.15940000000000004         -7.4824463069944613E-008
  0.16050000000000003         -7.7772597251168918E-008
  0.16160000000000002         -5.1583544546929261E-008
  0.16270000000000001         -3.8365151056041213E-009
  0.16380000000000000          4.5714802610063998E-008
  0.16490000000000005          7.4935535110398632E-008
  0.16600000000000004          7.2152509744682902E-008
  0.16710000000000003          4.2315093651268398E-008
  0.16820000000000002          1.8568371284999330E-009
  0.16930000000000001         -3.2941876781933388E-008
  0.17040000000000000         -5.4285006712007089E-008
  0.17150000000000004         -6.2041266346568591E-008
  0.17260000000000003         -5.7412179899074545E-008
  0.17370000000000002         -3.9500577031503781E-008
  0.17480000000000001         -8.9549736514982214E-009
  0.17590000000000000          2.6108317285888916E-008
  0.17700000000000005          5.0576627330656265E-008
  0.17810000000000004          5.1131639366985837E-008
  0.17920000000000003          2.6418645049375300E-008
  0.18030000000000002         -1.0452912313496654E-008
  0.18140000000000001         -4.1187497856753907E-008
  0.18250000000000000         -5.5404978382966874E-008
  0.18360000000000004         -5.5744152405168279E-008
  0.18470000000000003         -5.0631669523681921E-008
  0.18580000000000002         -4.3288689965947924E-008
  0.18690000000000001         -2.9213691021823252E-008
  0.18800000000000000         -3.8017069492468636E-009
  0.18910000000000005          2.7873319652371720E-008
  0.19020000000000004          5.0533365936189512E-008
  0.19130000000000003          4.9552646430583991E-008
  0.19240000000000002          2.3661989700940467E-008
  0.19350000000000001         -1.3000692966613769E-008
  0.19460000000000005         -4.1765879643662629E-008
  0.19570000000000004         -5.2862159094502204E-008
  0.19680000000000003         -4.8935294927332507E-008
  0.19790000000000002         -3.6370916944861165E-008
  0.19900000000000001         -1.6215393472407413E-008
  0.20010000000000000          1.5135874775751290E-008
  0.20120000000000005          5.6616627830408106E-008
  0.20230000000000004          9.4476867218418192E-008
  0.20340000000000003          1.0783696779981256E-007
  0.20450000000000002          8.5007833661165932E-008
  0.20560000000000000          3.5792705688209026E-008
  0.20670000000000005         -1.3517906793936163E-008
  0.20780000000000004         -3.8368163757240836E-008
  0.20890000000000003         -3.1636393060807677E-008
