 -0.12000000000000000          0.0000000000000000
 -0.11889999999999999          0.0000000000000000
 -0.11780000000000000          0.0000000000000000
 -0.11670000000000000          0.0000000000000000
 -0.11559999999999999          0.0000000000000000
 -0.11449999999999999          0.0000000000000000
 -0.11340000000000000          0.0000000000000000
 -0.11230000000000000          0.0000000000000000
 -0.11119999999999999          0.0000000000000000
 -0.11009999999999999          0.0000000000000000
 -0.10900000000000000          1.7353457136308426E-044
 -0.10790000000000000          2.3080563565663813E-031
 -0.10679999999999999          1.3550014600268303E-030
 -0.10569999999999999          7.4207590091362261E-031
 -0.10460000000000000         -1.3147056829538357E-029
 -0.10349999999999999         -3.2022705009914441E-029
 -0.10239999999999999          2.0309970964868573E-029
 -0.10130000000000000          2.4631396648010169E-029
 -0.10020000000000000         -1.0388741528009929E-027
  -9.9099999999999994E-002    -3.7604356091273926E-027
  -9.7999999999999990E-002    -7.1855160666415807E-028
  -9.6899999999999986E-002     2.7165084709699894E-026
  -9.5799999999999996E-002     6.9304425729892324E-026
  -9.4699999999999993E-002    -7.6309766332273293E-027
  -9.3599999999999989E-002    -3.9665610039504061E-025
  -9.2499999999999999E-002    -7.5192870561335917E-025
  -9.1399999999999995E-002     5.8830233848843850E-025
  -9.0299999999999991E-002     5.1959210990893520E-024
  -8.9200000000000002E-002     8.3717082594249311E-024
  -8.8099999999999984E-002    -6.5243514250032782E-024
  -8.6999999999999994E-002    -5.3285604083515728E-023
  -8.5899999999999990E-002    -9.1824980778619011E-023
  -8.4799999999999986E-002     1.4070233546090181E-023
  -8.3699999999999997E-002     3.9197763793154892E-022
  -8.2599999999999993E-002     8.1130075417831275E-022
  -8.1499999999999989E-002     3.6711579666809656E-022
  -8.0399999999999999E-002    -1.9861305248834231E-021
  -7.9299999999999995E-002    -5.4310869562632704E-021
  -7.8199999999999992E-002    -5.1332054044117899E-021
  -7.7100000000000002E-002     5.9041571223603663E-021
  -7.5999999999999984E-002     2.7253859580689133E-020
  -7.4899999999999994E-002     3.8498352494923570E-020
  -7.3799999999999991E-002     1.9621422871078527E-021
  -7.2699999999999987E-002    -9.9434179438169433E-020
  -7.1599999999999997E-002    -2.0069693209323830E-019
  -7.0499999999999993E-002    -1.3844939380009644E-019
  -6.9399999999999989E-002     2.2906766321552508E-019
  -6.8300000000000000E-002     7.7092488627383159E-019
  -6.7199999999999996E-002     9.1988770688530895E-019
  -6.6099999999999992E-002    -4.4812661550470952E-020
  -6.5000000000000002E-002    -2.1447610415223510E-018
  -6.3899999999999985E-002    -3.8479610779445593E-018
  -6.2799999999999995E-002    -2.4210978891425545E-018
  -6.1699999999999991E-002     3.6918299101455935E-018
  -6.0599999999999994E-002     1.1580249815875000E-017
  -5.9499999999999990E-002     1.3133225167660029E-017
  -5.8399999999999994E-002     2.9764959554050343E-019
  -5.7299999999999990E-002    -2.4826361976094710E-017
  -5.6199999999999986E-002    -4.3440908571821676E-017
  -5.5099999999999996E-002    -2.8267861803864312E-017
  -5.3999999999999992E-002     3.1158001085636122E-017
  -5.2899999999999989E-002     1.0280338295662340E-016
  -5.1799999999999985E-002     1.1627435672172678E-016
  -5.0699999999999995E-002     1.4360300457069721E-017
  -4.9599999999999991E-002    -1.7329755440808327E-016
  -4.8499999999999988E-002    -3.0326977061076948E-016
  -4.7399999999999998E-002    -2.0036770831576428E-016
  -4.6299999999999994E-002     1.7192030530565763E-016
  -4.5199999999999990E-002     5.8600820373395660E-016
  -4.4099999999999986E-002     6.3593004924401719E-016
  -4.2999999999999997E-002     6.6513242330714459E-017
  -4.1899999999999993E-002    -8.7071217681128253E-016
  -4.0799999999999989E-002    -1.4045622092355818E-015
  -3.9699999999999985E-002    -7.7695314696743257E-016
  -3.8599999999999995E-002     9.5507687011614587E-016
  -3.7499999999999992E-002     2.5596882503397071E-015
  -3.6399999999999988E-002     2.3203116572477473E-015
  -3.5299999999999984E-002    -4.2345524902723836E-016
  -3.4199999999999994E-002    -4.0775784915995580E-015
  -3.3099999999999991E-002    -5.3480576087459344E-015
  -3.1999999999999987E-002    -1.8001288190642774E-015
  -3.0899999999999997E-002     5.2790269646443262E-015
  -2.9799999999999993E-002     1.0488354129156825E-014
  -2.8699999999999989E-002     7.8654344457873128E-015
  -2.7599999999999986E-002    -3.4937627267715241E-015
  -2.6499999999999996E-002    -1.6463864099076536E-014
  -2.5399999999999992E-002    -1.9537428180272729E-014
  -2.4299999999999988E-002    -6.0824436443431033E-015
  -2.3199999999999985E-002     1.7646234002018419E-014
  -2.2099999999999995E-002     3.3850407963859951E-014
  -2.0999999999999991E-002     2.5801148733790310E-014
  -1.9899999999999987E-002    -6.4995561253780681E-015
  -1.8799999999999983E-002    -4.1360669636405495E-014
  -1.7699999999999994E-002    -4.9017142748168985E-014
  -1.6599999999999990E-002    -1.6518597674058081E-014
  -1.5499999999999986E-002     3.6119436434837109E-014
  -1.4399999999999996E-002     6.5928985632391370E-014
  -1.3299999999999992E-002     4.0850166267222529E-014
  -1.2199999999999989E-002    -2.7809004759879566E-014
  -1.1099999999999985E-002    -8.4903817917231720E-014
  -9.9999999999999950E-003    -7.1703161799975216E-014
  -8.8999999999999913E-003     1.9977377093083093E-014
  -7.7999999999999875E-003     1.2619160545072268E-013
  -6.6999999999999837E-003     1.4990081658588366E-013
  -5.5999999999999939E-003     4.0323111874246194E-014
  -4.4999999999999901E-003    -1.4886589140215333E-013
  -3.3999999999999864E-003    -2.7907423550896007E-013
  -2.2999999999999826E-003    -2.2446157617055289E-013
  -1.1999999999999927E-003     1.9841346989907444E-014
  -9.9999999999988987E-005     3.0871342266392478E-013
   1.0000000000000148E-003     4.3581216651981598E-013
   2.1000000000000185E-003     2.8603744264655954E-013
   3.2000000000000084E-003    -6.3733747283695129E-014
   4.3000000000000121E-003    -3.8424092466824723E-013
   5.4000000000000159E-003    -4.5790606549579227E-013
   6.5000000000000058E-003    -2.4724138209840696E-013
   7.6000000000000234E-003     6.9274250778060765E-014
   8.7000000000000133E-003     2.3570503730236444E-013
   9.8000000000000032E-003     1.3296374906053170E-013
   1.0900000000000021E-002    -1.0415281105016605E-013
   1.2000000000000011E-002    -1.7969355387351861E-013
   1.3100000000000001E-002     1.0991857109838103E-013
   1.4200000000000018E-002     6.5292010079789604E-013
   1.5300000000000008E-002     1.0265931984706477E-012
   1.6400000000000026E-002     7.7225855918397061E-013
   1.7500000000000016E-002    -2.2754202493566047E-013
   1.8600000000000005E-002    -1.5497867746073154E-012
   1.9700000000000023E-002    -2.4010487608555070E-012
   2.0800000000000013E-002    -2.0990713507638510E-012
   2.1900000000000003E-002    -5.6464593200703484E-013
   2.3000000000000020E-002     1.5306952753926475E-012
   2.4100000000000010E-002     3.1121750142249803E-012
   2.5200000000000000E-002     3.3522410108203920E-012
   2.6300000000000018E-002     2.1886646141274455E-012
   2.7400000000000008E-002     3.3089329887170081E-013
   2.8500000000000025E-002    -1.2716443566557966E-012
   2.9600000000000015E-002    -2.1113351952180109E-012
   3.0700000000000005E-002    -2.4137957257973226E-012
   3.1800000000000023E-002    -2.7714217639553582E-012
   3.2900000000000013E-002    -3.3897483344558966E-012
   3.4000000000000002E-002    -3.6078796200595571E-012
   3.5100000000000020E-002    -2.2326767171172938E-012
   3.6200000000000010E-002     1.4015939017039096E-012
   3.7300000000000028E-002     6.4248532709309555E-012
   3.8400000000000017E-002     1.0410402574711627E-011
   3.9500000000000007E-002     1.0658387367134306E-011
   4.0600000000000025E-002     6.0723735068036533E-012
   4.1700000000000015E-002    -1.7265640956882813E-012
   4.2800000000000005E-002    -9.0535409030816783E-012
   4.3900000000000022E-002    -1.2361497242485418E-011
   4.5000000000000012E-002    -1.0537759900784994E-011
   4.6100000000000002E-002    -5.6008414052438838E-012
   4.7200000000000020E-002    -1.1708689573436398E-012
   4.8300000000000010E-002     2.4638478106813163E-013
   4.9400000000000027E-002    -8.6960858436034557E-013
   5.0500000000000017E-002    -1.5237042313647740E-012
   5.1600000000000007E-002     1.2507962330791865E-012
   5.2700000000000025E-002     7.7135511519757918E-012
   5.3800000000000014E-002     1.4787091690003170E-011
   5.4900000000000004E-002     1.8169339296990274E-011
   5.6000000000000022E-002     1.5717007556536489E-011
   5.7100000000000012E-002     9.4491654084598831E-012
   5.8200000000000002E-002     4.3336701414949800E-012
   5.9300000000000019E-002     4.3533735644173733E-012
   6.0400000000000009E-002     8.5333034041719960E-012
   6.1500000000000027E-002     9.9743321241334617E-012
   6.2600000000000017E-002    -9.3736357651359512E-013
   6.3700000000000007E-002    -3.0890082158842121E-011
   6.4800000000000024E-002    -7.9236908701046608E-011
   6.5900000000000014E-002    -1.3794804187839780E-010
   6.7000000000000004E-002    -1.9628586256371832E-010
   6.8100000000000022E-002    -2.4736226955647743E-010
   6.9200000000000012E-002    -2.9234256682110987E-010
   7.0300000000000029E-002    -3.3957983647250321E-010
   7.1400000000000019E-002    -3.9949202279568186E-010
   7.2500000000000009E-002    -4.7909731737408721E-010
   7.3600000000000027E-002    -5.8047522344399383E-010
   7.4700000000000016E-002    -7.0454297951277187E-010
   7.5800000000000006E-002    -8.5735529786751781E-010
   7.6900000000000024E-002    -1.0537807293432225E-009
   7.8000000000000014E-002    -1.3149236144372890E-009
   7.9100000000000004E-002    -1.6602691443880058E-009
   8.0200000000000021E-002    -2.0999271210799122E-009
   8.1300000000000011E-002    -2.6330366775797137E-009
   8.2400000000000029E-002    -3.2544589245733279E-009
   8.3500000000000019E-002    -3.9659902029146006E-009
   8.4600000000000009E-002    -4.7849084694465655E-009
   8.5700000000000026E-002    -5.7445088685885252E-009
   8.6800000000000016E-002    -6.8871717218148927E-009
   8.7900000000000006E-002    -8.2559559189127324E-009
   8.9000000000000024E-002    -9.8914094692766183E-009
   9.0100000000000013E-002    -1.1835657787174509E-008
   9.1200000000000003E-002    -1.4139581061557349E-008
   9.2300000000000021E-002    -1.6866144036954522E-008
   9.3400000000000011E-002    -2.0086112328955646E-008
   9.4500000000000028E-002    -2.3869050735926894E-008
   9.5600000000000018E-002    -2.8277217012375574E-008
   9.6700000000000008E-002    -3.3368607432751267E-008
   9.7800000000000026E-002    -3.9208959634609665E-008
   9.8900000000000016E-002    -4.5885364841072893E-008
  0.10000000000000001         -5.3512323461295027E-008
  0.10110000000000002         -6.2225744557058578E-008
  0.10220000000000001         -7.2168582221371143E-008
  0.10330000000000003         -8.3477644352575976E-008
  0.10440000000000002         -9.6279968886399640E-008
  0.10550000000000001         -1.1070032712724162E-007
  0.10660000000000003         -1.2687330297468223E-007
  0.10770000000000002         -1.4494996491977146E-007
  0.10880000000000001         -1.6509261513421167E-007
  0.10990000000000003         -1.8745934937670944E-007
  0.11100000000000002         -2.1218765766663438E-007
  0.11210000000000001         -2.3938716253725961E-007
  0.11320000000000002         -2.6914540285363069E-007
  0.11430000000000001         -3.0154112096172467E-007
  0.11540000000000003         -3.3665298815324486E-007
  0.11650000000000002         -3.7455421875168401E-007
  0.11760000000000001         -4.1529261807230408E-007
  0.11870000000000003         -4.5886591237835064E-007
  0.11980000000000002         -5.0520645800137926E-007
  0.12090000000000001         -5.5418223610108572E-007
  0.12200000000000003         -6.0560864767471966E-007
  0.12310000000000001         -6.5925814851658114E-007
  0.12420000000000003         -7.1485470698468210E-007
  0.12530000000000002         -7.7205481829884655E-007
  0.12640000000000001         -8.3042630194547589E-007
  0.12750000000000003         -8.8943977516471930E-007
  0.12860000000000002         -9.4847820264484271E-007
  0.12970000000000001         -1.0068552001031019E-006
  0.13080000000000003         -1.0638264029695141E-006
  0.13190000000000002         -1.1185815083082190E-006
  0.13300000000000001         -1.1702262554536978E-006
  0.13410000000000000         -1.2177687267468299E-006
  0.13520000000000004         -1.2601254866241275E-006
  0.13630000000000003         -1.2961506854481949E-006
  0.13740000000000002         -1.3246743719720386E-006
  0.13850000000000001         -1.3445323929773892E-006
  0.13960000000000000         -1.3545751471612055E-006
  0.14070000000000005         -1.3536622418543022E-006
  0.14180000000000004         -1.3406580592346776E-006
  0.14290000000000003         -1.3144473314242827E-006
  0.14400000000000002         -1.2739711792165782E-006
  0.14510000000000001         -1.2182749742352159E-006
  0.14620000000000000         -1.1465491525087796E-006
  0.14730000000000004         -1.0581513834041423E-006
  0.14840000000000003         -9.5261071919604219E-007
  0.14950000000000002         -8.2962702663289419E-007
  0.15060000000000001         -6.8908099137850935E-007
  0.15170000000000000         -5.3106248287810661E-007
  0.15280000000000005         -3.5591327218758659E-007
  0.15390000000000004         -1.6426605498057948E-007
  0.15500000000000003          4.2936694200061371E-008
  0.15610000000000002          2.6445235334904288E-007
  0.15720000000000001          4.9876734919964453E-007
  0.15830000000000000          7.4412577077968746E-007
  0.15940000000000004          9.9854048585263549E-007
  0.16050000000000003          1.2597863587871819E-006
  0.16160000000000002          1.5253914398273265E-006
  0.16270000000000001          1.7926502096089704E-006
  0.16380000000000000          2.0586674054358566E-006
  0.16490000000000005          2.3204236185849366E-006
  0.16600000000000004          2.5748379357539546E-006
  0.16710000000000003          2.8188094347572150E-006
  0.16820000000000002          3.0492406040141546E-006
  0.16930000000000001          3.2630596251695350E-006
  0.17040000000000000          3.4572644835864792E-006
  0.17150000000000004          3.6289943636805595E-006
  0.17260000000000003          3.7756044548590208E-006
  0.17370000000000002          3.8947268876657967E-006
  0.17480000000000001          3.9843071135695814E-006
  0.17590000000000000          4.0426234590999199E-006
  0.17700000000000005          4.0683080442253443E-006
  0.17810000000000004          4.0603786146679395E-006
  0.17920000000000003          4.0182749216914145E-006
  0.18030000000000002          3.9418869164368537E-006
  0.18140000000000001          3.8315661186064925E-006
  0.18250000000000000          3.6881183405061025E-006
  0.18360000000000004          3.5127884530087346E-006
  0.18470000000000003          3.3072394671765809E-006
  0.18580000000000002          3.0735318432565081E-006
  0.18690000000000001          2.8140957510916543E-006
  0.18800000000000000          2.5317017389172943E-006
  0.18910000000000005          2.2294289010462818E-006
  0.19020000000000004          1.9106205400023335E-006
  0.19130000000000003          1.5788291420905752E-006
  0.19240000000000002          1.2377462326186657E-006
  0.19350000000000001          8.9112654677603727E-007
  0.19460000000000005          5.4272209126801657E-007
  0.19570000000000004          1.9623360003611803E-007
  0.19680000000000003         -1.4472641396421586E-007
  0.19790000000000002         -4.7667239755356833E-007
  0.19900000000000001         -7.9629779747851533E-007
  0.20010000000000000         -1.1005379292328855E-006
  0.20120000000000005         -1.3866259678253382E-006
  0.20230000000000004         -1.6521287307115361E-006
  0.20340000000000003         -1.8949598370456120E-006
  0.20450000000000002         -2.1133855625523111E-006
  0.20560000000000000         -2.3060388230080307E-006
  0.20670000000000005         -2.4719397515584483E-006
  0.20780000000000004         -2.6105103643205869E-006
  0.20890000000000003         -2.7215671707383637E-006
