 -0.12000000000000000          0.0000000000000000
 -0.11889999999999999          0.0000000000000000
 -0.11780000000000000          0.0000000000000000
 -0.11670000000000000          1.7584291800432084E-009
 -0.11559999999999999          4.3090242485277486E-009
 -0.11449999999999999         -1.6750769660234255E-009
 -0.11340000000000000         -2.2273127342486987E-008
 -0.11230000000000000         -3.5898843009363191E-008
 -0.11119999999999999          1.1580240100173000E-009
 -0.11009999999999999          9.3498798037217057E-008
 -0.10900000000000000          1.5001924680291268E-007
 -0.10790000000000000          4.0690959934863713E-008
 -0.10679999999999999         -2.2848780645290390E-007
 -0.10569999999999999         -4.0818974866851931E-007
 -0.10460000000000000         -1.8256122302773292E-007
 -0.10349999999999999          4.3094513557662140E-007
 -0.10239999999999999          8.8087182348317583E-007
 -0.10130000000000000          4.8033706434580381E-007
 -0.10020000000000000         -7.7656807206949452E-007
  -9.9099999999999994E-002    -1.8114075146513642E-006
  -9.7999999999999990E-002    -1.2047855761920800E-006
  -9.6899999999999986E-002     1.2501097899075830E-006
  -9.5799999999999996E-002     3.6706894661620026E-006
  -9.4699999999999993E-002     3.2393268156738486E-006
  -9.3599999999999989E-002    -1.0395352774139610E-006
  -9.2499999999999999E-002    -6.4125329117814545E-006
  -9.1399999999999995E-002    -7.7395179687300697E-006
  -9.0299999999999991E-002    -1.9238568711443804E-006
  -8.9200000000000002E-002     8.1632852015900426E-006
  -8.8099999999999984E-002     1.4474507224804256E-005
  -8.6999999999999994E-002     9.9457120086299255E-006
  -8.5899999999999990E-002    -4.5429069359670393E-006
  -8.4799999999999986E-002    -1.8946086129290052E-005
  -8.3699999999999997E-002    -2.1078372810734436E-005
  -8.2599999999999993E-002    -7.0214659899647813E-006
  -8.1499999999999989E-002     1.4093337995291222E-005
  -8.0399999999999999E-002     2.6222662199870683E-005
  -7.9299999999999995E-002     1.9430048268986866E-005
  -7.8199999999999992E-002    -1.1558863661775831E-006
  -7.7100000000000002E-002    -1.8954018742078915E-005
  -7.5999999999999984E-002    -1.9962839360232465E-005
  -7.4899999999999994E-002    -5.2752670853806194E-006
  -7.3799999999999991E-002     9.4638335212948732E-006
  -7.2699999999999987E-002     8.0135332609643228E-006
  -7.1599999999999997E-002    -1.1144460586365312E-005
  -7.0499999999999993E-002    -3.2249234209302813E-005
  -6.9399999999999989E-002    -3.5630790080176666E-005
  -6.8300000000000000E-002    -1.5593846910633147E-005
  -6.7199999999999996E-002     1.3358271644392516E-005
  -6.6099999999999992E-002     2.8118152840761468E-005
  -6.5000000000000002E-002     1.6461925042676739E-005
  -6.3899999999999985E-002    -1.2880921531177592E-005
  -6.2799999999999995E-002    -3.8482317904708907E-005
  -6.1699999999999991E-002    -4.5084878365742043E-005
  -6.0599999999999994E-002    -3.5955028579337522E-005
  -5.9499999999999990E-002    -2.8100275812903419E-005
  -5.8399999999999994E-002    -3.5848093830281869E-005
  -5.7299999999999990E-002    -5.8610203268472105E-005
  -5.6199999999999986E-002    -8.3621293015312403E-005
  -5.5099999999999996E-002    -9.9489327112678438E-005
  -5.3999999999999992E-002    -1.0648113675415516E-004
  -5.2899999999999989E-002    -1.1406065459595993E-004
  -5.1799999999999985E-002    -1.2997443263884634E-004
  -5.0699999999999995E-002    -1.5349261229857802E-004
  -4.9599999999999991E-002    -1.7980150005314499E-004
  -4.8499999999999988E-002    -2.0934487110935152E-004
  -4.7399999999999998E-002    -2.4990722886286676E-004
  -4.6299999999999994E-002    -3.0752512975595891E-004
  -4.5199999999999990E-002    -3.7622021045535803E-004
  -4.4099999999999986E-002    -4.4012934085913002E-004
  -4.2999999999999997E-002    -4.8924965085461736E-004
  -4.1899999999999993E-002    -5.3365633357316256E-004
  -4.0799999999999989E-002    -5.9912033611908555E-004
  -3.9699999999999985E-002    -7.0436374517157674E-004
  -3.8599999999999995E-002    -8.4070971934124827E-004
  -3.7499999999999992E-002    -9.7635196289047599E-004
  -3.6399999999999988E-002    -1.0853129206225276E-003
  -3.5299999999999984E-002    -1.1751622660085559E-003
  -3.4199999999999994E-002    -1.2846944155171514E-003
  -3.3099999999999991E-002    -1.4499278040602803E-003
  -3.1999999999999987E-002    -1.6686243470758200E-003
  -3.0899999999999997E-002    -1.8984283087775111E-003
  -2.9799999999999993E-002    -2.0940909162163734E-003
  -2.8699999999999989E-002    -2.2503917571157217E-003
  -2.7599999999999986E-002    -2.4087615311145782E-003
  -2.6499999999999996E-002    -2.6186616159975529E-003
  -2.5399999999999992E-002    -2.8884378261864185E-003
  -2.4299999999999988E-002    -3.1734579242765903E-003
  -2.3199999999999985E-002    -3.4149028360843658E-003
  -2.2099999999999995E-002    -3.5932760220021009E-003
  -2.0999999999999991E-002    -3.7450257223099470E-003
  -1.9899999999999987E-002    -3.9241719059646130E-003
  -1.8799999999999983E-002    -4.1455137543380260E-003
  -1.7699999999999994E-002    -4.3646730482578278E-003
  -1.6599999999999990E-002    -4.5164427720010281E-003
  -1.5499999999999986E-002    -4.5733563601970673E-003
  -1.4399999999999996E-002    -4.5673176646232605E-003
  -1.3299999999999992E-002    -4.5511843636631966E-003
  -1.2199999999999989E-002    -4.5376629568636417E-003
  -1.1099999999999985E-002    -4.4779051095247269E-003
  -9.9999999999999950E-003    -4.3020751327276230E-003
  -8.8999999999999913E-003    -3.9828531444072723E-003
  -7.7999999999999875E-003    -3.5583903081715107E-003
  -6.6999999999999837E-003    -3.0883138533681631E-003
  -5.5999999999999939E-003    -2.5865398347377777E-003
  -4.4999999999999901E-003    -1.9983479287475348E-003
  -3.3999999999999864E-003    -1.2485026381909847E-003
  -2.2999999999999826E-003    -3.1206055427901447E-004
  -1.1999999999999927E-003     7.5938313966616988E-004
  -9.9999999999988987E-005     1.8879882991313934E-003
   1.0000000000000148E-003     3.0465738382190466E-003
   2.1000000000000185E-003     4.2850668542087078E-003
   3.2000000000000084E-003     5.6784017942845821E-003
   4.3000000000000121E-003     7.2448733262717724E-003
   5.4000000000000159E-003     8.9157307520508766E-003
   6.5000000000000058E-003     1.0588972829282284E-002
   7.6000000000000234E-003     1.2216324917972088E-002
   8.7000000000000133E-003     1.3835925608873367E-002
   9.8000000000000032E-003     1.5518530271947384E-002
   1.0900000000000021E-002     1.7278341576457024E-002
   1.2000000000000011E-002     1.9034706056118011E-002
   1.3100000000000001E-002     2.0667616277933121E-002
   1.4200000000000018E-002     2.2109739482402802E-002
   1.5300000000000008E-002     2.3387134075164795E-002
   1.6400000000000026E-002     2.4566590785980225E-002
   1.7500000000000016E-002     2.5661839172244072E-002
   1.8600000000000005E-002     2.6591964066028595E-002
   1.9700000000000023E-002     2.7232067659497261E-002
   2.0800000000000013E-002     2.7508601546287537E-002
   2.1900000000000003E-002     2.7445621788501740E-002
   2.3000000000000020E-002     2.7115885168313980E-002
   2.4100000000000010E-002     2.6549203321337700E-002
   2.5200000000000000E-002     2.5687027722597122E-002
   2.6300000000000018E-002     2.4429444223642349E-002
   2.7400000000000008E-002     2.2724967449903488E-002
   2.8500000000000025E-002     2.0616097375750542E-002
   2.9600000000000015E-002     1.8193896859884262E-002
   3.0700000000000005E-002     1.5511604957282543E-002
   3.1800000000000023E-002     1.2540917843580246E-002
   3.2900000000000013E-002     9.2165693640708923E-003
   3.4000000000000002E-002     5.5215167813003063E-003
   3.5100000000000020E-002     1.5278646023944020E-003
   3.6200000000000010E-002    -2.6465170085430145E-003
   3.7300000000000028E-002    -6.9191409274935722E-003
   3.8400000000000017E-002    -1.1283594183623791E-002
   3.9500000000000007E-002    -1.5767350792884827E-002
   4.0600000000000025E-002    -2.0355502143502235E-002
   4.1700000000000015E-002    -2.4954166263341904E-002
   4.2800000000000005E-002    -2.9431672766804695E-002
   4.3900000000000022E-002    -3.3695507794618607E-002
   4.5000000000000012E-002    -3.7724412977695465E-002
   4.6100000000000002E-002    -4.1530273854732513E-002
   4.7200000000000020E-002    -4.5085564255714417E-002
   4.8300000000000010E-002    -4.8296470195055008E-002
   4.9400000000000027E-002    -5.1044158637523651E-002
   5.0500000000000017E-002    -5.3252547979354858E-002
   5.1600000000000007E-002    -5.4914958775043488E-002
   5.2700000000000025E-002    -5.6058119982481003E-002
   5.3800000000000014E-002    -5.6678939610719681E-002
   5.4900000000000004E-002    -5.6712809950113297E-002
   5.6000000000000022E-002    -5.6079514324665070E-002
   5.7100000000000012E-002    -5.4743111133575439E-002
   5.8200000000000002E-002    -5.2740089595317841E-002
   5.9300000000000019E-002    -5.0144020467996597E-002
   6.0400000000000009E-002    -4.7004982829093933E-002
   6.1500000000000027E-002    -4.3323665857315063E-002
   6.2600000000000017E-002    -3.9079070091247559E-002
   6.3700000000000007E-002    -3.4286148846149445E-002
   6.4800000000000024E-002    -2.9021257534623146E-002
   6.5900000000000014E-002    -2.3398991674184799E-002
   6.7000000000000004E-002    -1.7520116642117500E-002
   6.8100000000000022E-002    -1.1442025192081928E-002
   6.9200000000000012E-002    -5.1959310658276081E-003
   7.0300000000000029E-002     1.1698242742568254E-003
   7.1400000000000019E-002     7.5631183572113514E-003
   7.2500000000000009E-002     1.3859570026397705E-002
   7.3600000000000027E-002     1.9940072670578957E-002
   7.4700000000000016E-002     2.5720247998833656E-002
   7.5800000000000006E-002     3.1148925423622131E-002
   7.6900000000000024E-002     3.6187142133712769E-002
   7.8000000000000014E-002     4.0779393166303635E-002
   7.9100000000000004E-002     4.4851303100585938E-002
   8.0200000000000021E-002     4.8323635011911392E-002
   8.1300000000000011E-002     5.1137842237949371E-002
   8.2400000000000029E-002     5.3267352283000946E-002
   8.3500000000000019E-002     5.4717075079679489E-002
   8.4600000000000009E-002     5.5503368377685547E-002
   8.5700000000000026E-002     5.5634327232837677E-002
   8.6800000000000016E-002     5.5106095969676971E-002
   8.7900000000000006E-002     5.3911220282316208E-002
   8.9000000000000024E-002     5.2065640687942505E-002
   9.0100000000000013E-002     4.9624148756265640E-002
   9.1200000000000003E-002     4.6669315546751022E-002
   9.2300000000000021E-002     4.3284531682729721E-002
   9.3400000000000011E-002     3.9531089365482330E-002
   9.4500000000000028E-002     3.5446502268314362E-002
   9.5600000000000018E-002     3.1073145568370819E-002
   9.6700000000000008E-002     2.6485661044716835E-002
   9.7800000000000026E-002     2.1790234372019768E-002
   9.8900000000000016E-002     1.7093539237976074E-002
  0.10000000000000001          1.2466796673834324E-002
  0.10110000000000002          7.9393228515982628E-003
  0.10220000000000001          3.5317870788276196E-003
  0.10330000000000003         -7.0501305162906647E-004
  0.10440000000000002         -4.6866373158991337E-003
  0.10550000000000001         -8.3285486325621605E-003
  0.10660000000000003         -1.1589094996452332E-002
  0.10770000000000002         -1.4477620832622051E-002
  0.10880000000000001         -1.7016097903251648E-002
  0.10990000000000003         -1.9197899848222733E-002
  0.11100000000000002         -2.0981837064027786E-002
  0.11210000000000001         -2.2329427301883698E-002
  0.11320000000000002         -2.3248355835676193E-002
  0.11430000000000001         -2.3794954642653465E-002
  0.11540000000000003         -2.4033015593886375E-002
  0.11650000000000002         -2.3988004773855209E-002
  0.11760000000000001         -2.3643637076020241E-002
  0.11870000000000003         -2.2987214848399162E-002
  0.11980000000000002         -2.2052815183997154E-002
  0.12090000000000001         -2.0921932533383369E-002
  0.12200000000000003         -1.9673751667141914E-002
  0.12310000000000001         -1.8337564542889595E-002
  0.12420000000000003         -1.6894835978746414E-002
  0.12530000000000002         -1.5330369584262371E-002
  0.12640000000000001         -1.3681095093488693E-002
  0.12750000000000003         -1.2030707672238350E-002
  0.12860000000000002         -1.0454134084284306E-002
  0.12970000000000001         -8.9666005223989487E-003
  0.13080000000000003         -7.5295595452189445E-003
  0.13190000000000002         -6.1077270656824112E-003
  0.13300000000000001         -4.7213910147547722E-003
  0.13410000000000000         -3.4391277004033327E-003
  0.13520000000000004         -2.3194050882011652E-003
  0.13630000000000003         -1.3582763494923711E-003
  0.13740000000000002         -4.9715576460584998E-004
  0.13850000000000001          3.1803385354578495E-004
  0.13960000000000000          1.0826822835952044E-003
  0.14070000000000005          1.7390706343576312E-003
  0.14180000000000004          2.2358072455972433E-003
  0.14290000000000003          2.5811565574258566E-003
  0.14400000000000002          2.8386942576617002E-003
  0.14510000000000001          3.0703777447342873E-003
  0.14620000000000000          3.2836487516760826E-003
  0.14730000000000004          3.4341593272984028E-003
  0.14840000000000003          3.4785522148013115E-003
  0.14950000000000002          3.4239990636706352E-003
  0.15060000000000001          3.3259277697652578E-003
  0.15170000000000000          3.2385417725890875E-003
  0.15280000000000005          3.1688415911048651E-003
  0.15390000000000004          3.0784942209720612E-003
  0.15500000000000003          2.9290437232702971E-003
  0.15610000000000002          2.7238668408244848E-003
  0.15720000000000001          2.5063548237085342E-003
  0.15830000000000000          2.3191818036139011E-003
  0.15940000000000004          2.1669280249625444E-003
  0.16050000000000003          2.0180121064186096E-003
  0.16160000000000002          1.8411163473501801E-003
  0.16270000000000001          1.6377728898078203E-003
  0.16380000000000000          1.4402562519535422E-003
  0.16490000000000005          1.2795156799256802E-003
  0.16600000000000004          1.1569957714527845E-003
  0.16710000000000003          1.0467428946867585E-003
  0.16820000000000002          9.2323520220816135E-004
  0.16930000000000001          7.8559096436947584E-004
  0.17040000000000000          6.5593479666858912E-004
  0.17150000000000004          5.5613962467759848E-004
  0.17260000000000003          4.8733173753134906E-004
  0.17370000000000002          4.3086579535156488E-004
  0.17480000000000001          3.6725858808495104E-004
  0.17590000000000000          2.9347738018259406E-004
  0.17700000000000005          2.2349128266796470E-004
  0.17810000000000004          1.7416686750948429E-004
  0.17920000000000003          1.5051141963340342E-004
  0.18030000000000002          1.4238231233321130E-004
  0.18140000000000001          1.3314832176547498E-004
  0.18250000000000000          1.1162351438542828E-004
  0.18360000000000004          7.8822835348546505E-005
  0.18470000000000003          4.6014276449568570E-005
  0.18580000000000002          2.6089222956215963E-005
  0.18690000000000001          2.3649088689126074E-005
  0.18800000000000000          3.0014420190127566E-005
  0.18910000000000005          2.8101603675168008E-005
  0.19020000000000004          5.4153442761162296E-006
  0.19130000000000003         -3.4111533750547096E-005
  0.19240000000000002         -7.0889407652430236E-005
  0.19350000000000001         -8.5428429883904755E-005
  0.19460000000000005         -7.7015371061861515E-005
  0.19570000000000004         -6.7272696469444782E-005
  0.19680000000000003         -8.2141683378722519E-005
  0.19790000000000002         -1.2666371185332537E-004
  0.19900000000000001         -1.7684599151834846E-004
  0.20010000000000000         -1.9929834525100887E-004
  0.20120000000000005         -1.8251966685056686E-004
  0.20230000000000004         -1.4987615577410907E-004
  0.20340000000000003         -1.3943837257102132E-004
  0.20450000000000002         -1.6767565102782100E-004
  0.20560000000000000         -2.1176008158363402E-004
  0.20670000000000005         -2.2927692043595016E-004
  0.20780000000000004         -1.9829203665722162E-004
  0.20890000000000003         -1.3946383842267096E-004
