 -0.12000000000000000          0.0000000000000000
 -0.11889999999999999          0.0000000000000000
 -0.11780000000000000          0.0000000000000000
 -0.11670000000000000          0.0000000000000000
 -0.11559999999999999          0.0000000000000000
 -0.11449999999999999         -1.0184168537983316E-020
 -0.11340000000000000         -1.2603255977572658E-019
 -0.11230000000000000         -6.6192714186143151E-019
 -0.11119999999999999         -1.9268520964690394E-018
 -0.11009999999999999         -3.0803846187908290E-018
 -0.10900000000000000         -1.1434678022185506E-018
 -0.10790000000000000          6.2903251602518571E-018
 -0.10679999999999999          1.3700834849635275E-017
 -0.10569999999999999          5.5012879136951810E-018
 -0.10460000000000000         -2.5553524872061698E-017
 -0.10349999999999999         -4.7474085728680299E-017
 -0.10239999999999999          2.1930386107934506E-018
 -0.10130000000000000          1.2111186776263326E-016
 -0.10020000000000000          1.3499698769939739E-016
  -9.9099999999999994E-002    -1.9719171857541428E-016
  -9.7999999999999990E-002    -7.4256032705642856E-016
  -9.6899999999999986E-002    -6.1405859975481396E-016
  -9.5799999999999996E-002     1.2516998673106085E-015
  -9.4699999999999993E-002     4.1914824001486502E-015
  -9.3599999999999989E-002     4.2299842827660944E-015
  -9.2499999999999999E-002    -3.7443015200411094E-015
  -9.1399999999999995E-002    -1.8519799409311144E-014
  -9.0299999999999991E-002    -2.5402861983533052E-014
  -8.9200000000000002E-002    -1.6915628062703458E-015
  -8.8099999999999984E-002     5.7978436233865199E-014
  -8.6999999999999994E-002     1.1166545119123406E-013
  -8.5899999999999990E-002     7.5167621421939196E-014
  -8.4799999999999986E-002    -1.0660226770330822E-013
  -8.3699999999999997E-002    -3.5268833751926632E-013
  -8.2599999999999993E-002    -4.1416837407576290E-013
  -8.1499999999999989E-002    -3.1167837679247495E-014
  -8.0399999999999999E-002     7.5254310161892990E-013
  -7.9299999999999995E-002     1.3768786458201454E-012
  -7.8199999999999992E-002     9.9847614985076882E-013
  -7.7100000000000002E-002    -7.6259105367265656E-013
  -7.5999999999999984E-002    -3.0539620311798021E-012
  -7.4899999999999994E-002    -3.8584400431640464E-012
  -7.3799999999999991E-002    -1.3720587166421438E-012
  -7.2699999999999987E-002     3.9922219176313778E-012
  -7.1599999999999997E-002     8.7391569675299152E-012
  -7.0499999999999993E-002     8.0841583427471164E-012
  -6.9399999999999989E-002    -6.8590790057269924E-014
  -6.8300000000000000E-002    -1.1900708717094144E-011
  -6.7199999999999996E-002    -1.8697045647830812E-011
  -6.6099999999999992E-002    -1.2837460261483358E-011
  -6.5000000000000002E-002     5.0751286853611965E-012
  -6.3899999999999985E-002     2.4213506200077006E-011
  -6.2799999999999995E-002     3.0023223490660556E-011
  -6.1699999999999991E-002     1.5561074998005076E-011
  -6.0599999999999994E-002    -1.1421151351054259E-011
  -5.9499999999999990E-002    -3.2820073048167586E-011
  -5.8399999999999994E-002    -3.3909892255268304E-011
  -5.7299999999999990E-002    -1.5318227589156130E-011
  -5.6199999999999986E-002     7.8558834784581144E-012
  -5.5099999999999996E-002     1.9953764335278734E-011
  -5.3999999999999992E-002     1.9019834318623197E-011
  -5.2899999999999989E-002     1.6803782323937533E-011
  -5.1799999999999985E-002     2.3013193781173946E-011
  -5.0699999999999995E-002     2.9618533320396878E-011
  -4.9599999999999991E-002     1.4644254558993097E-011
  -4.8499999999999988E-002    -3.2538725186492812E-011
  -4.7399999999999998E-002    -8.7326881836879977E-011
  -4.6299999999999994E-002    -9.7364047380033014E-011
  -4.5199999999999990E-002    -2.7209068331757180E-011
  -4.4099999999999986E-002     9.3251822930184858E-011
  -4.2999999999999997E-002     1.6774090449978019E-010
  -4.1899999999999993E-002     1.0159095092943105E-010
  -4.0799999999999989E-002    -1.0137688605249551E-010
  -3.9699999999999985E-002    -2.9708516202653357E-010
  -3.8599999999999995E-002    -2.7676530511833164E-010
  -3.7499999999999992E-002     6.4503687113859343E-011
  -3.6399999999999988E-002     5.8274118863721469E-010
  -3.5299999999999984E-002     8.9901519562118892E-010
  -3.4199999999999994E-002     6.1879007473564229E-010
  -3.3099999999999991E-002    -3.4917718716442891E-010
  -3.1999999999999987E-002    -1.5916998830078910E-009
  -3.0899999999999997E-002    -2.3017698858041058E-009
  -2.9799999999999993E-002    -1.7223268367061451E-009
  -2.8699999999999989E-002     2.8960281395207232E-010
  -2.7599999999999986E-002     2.9394093825629852E-009
  -2.6499999999999996E-002     4.7130837010911364E-009
  -2.5399999999999992E-002     4.1563699149094191E-009
  -2.4299999999999988E-002     8.5923840265067497E-010
  -2.3199999999999985E-002    -3.9530889672789726E-009
  -2.2099999999999995E-002    -7.7312583002253632E-009
  -2.0999999999999991E-002    -7.8651822832398466E-009
  -1.9899999999999987E-002    -3.3294309531584076E-009
  -1.8799999999999983E-002     4.2631675967186311E-009
  -1.7699999999999994E-002     1.1026344282072387E-008
  -1.6599999999999990E-002     1.2674995275574474E-008
  -1.5499999999999986E-002     7.0413745945074879E-009
  -1.4399999999999996E-002    -4.2175360981389076E-009
  -1.3299999999999992E-002    -1.5913082407337242E-008
  -1.2199999999999989E-002    -2.1738236100077302E-008
  -1.1099999999999985E-002    -1.7619582237671239E-008
  -9.9999999999999950E-003    -4.1134300410305968E-009
  -8.8999999999999913E-003     1.3648683072631229E-008
  -7.7999999999999875E-003     2.8598639900678791E-008
  -6.6999999999999837E-003     3.5549852839267260E-008
  -5.5999999999999939E-003     3.4023194928067824E-008
  -4.4999999999999901E-003     2.8425237275087056E-008
  -3.3999999999999864E-003     2.5455550556330309E-008
  -2.2999999999999826E-003     3.0265489670000534E-008
  -1.1999999999999927E-003     4.3652953252149018E-008
  -9.9999999999988987E-005     6.1972379228336649E-008
   1.0000000000000148E-003     7.9803356811680715E-008
   2.1000000000000185E-003     9.3729852324031526E-008
   3.2000000000000084E-003     1.0487855917062916E-007
   4.3000000000000121E-003     1.1862010751428897E-007
   5.4000000000000159E-003     1.4162705497255956E-007
   6.5000000000000058E-003     1.7820246966948616E-007
   7.6000000000000234E-003     2.2831594037597824E-007
   8.7000000000000133E-003     2.8870468327113485E-007
   9.8000000000000032E-003     3.5635014228319051E-007
   1.0900000000000021E-002     4.3195996113354340E-007
   1.2000000000000011E-002     5.2095509772698279E-007
   1.3100000000000001E-002     6.3108177528192755E-007
   1.4200000000000018E-002     7.6813961413790821E-007
   1.5300000000000008E-002     9.3284961621975526E-007
   1.6400000000000026E-002     1.1214289088457008E-006
   1.7500000000000016E-002     1.3301271337695653E-006
   1.8600000000000005E-002     1.5612147308274871E-006
   1.9700000000000023E-002     1.8265105836690054E-006
   2.0800000000000013E-002     2.1455821297422517E-006
   2.1900000000000003E-002     2.5388412723259535E-006
   2.3000000000000020E-002     3.0190819870767882E-006
   2.4100000000000010E-002     3.5865132304024883E-006
   2.5200000000000000E-002     4.2308670344937127E-006
   2.6300000000000018E-002     4.9403029152017552E-006
   2.7400000000000008E-002     5.7127103900711518E-006
   2.8500000000000025E-002     6.5630501921987161E-006
   2.9600000000000015E-002     7.5220796134090051E-006
   3.0700000000000005E-002     8.6264199126162566E-006
   3.1800000000000023E-002     9.9048183983541094E-006
   3.2900000000000013E-002     1.1367948900442570E-005
   3.4000000000000002E-002     1.3007403140363749E-005
   3.5100000000000020E-002     1.4804515558353160E-005
   3.6200000000000010E-002     1.6744352251407690E-005
   3.7300000000000028E-002     1.8827355233952403E-005
   3.8400000000000017E-002     2.1072468371130526E-005
   3.9500000000000007E-002     2.3510212486144155E-005
   4.0600000000000025E-002     2.6169307602685876E-005
   4.1700000000000015E-002     2.9063634428894147E-005
   4.2800000000000005E-002     3.2185671443585306E-005
   4.3900000000000022E-002     3.5508877772372216E-005
   4.5000000000000012E-002     3.8997073716018349E-005
   4.6100000000000002E-002     4.2615316488081589E-005
   4.7200000000000020E-002     4.6336503146449104E-005
   4.8300000000000010E-002     5.0140573875978589E-005
   4.9400000000000027E-002     5.4007548897061497E-005
   5.0500000000000017E-002     5.7909041061066091E-005
   5.1600000000000007E-002     6.1802915297448635E-005
   5.2700000000000025E-002     6.5633386839181185E-005
   5.3800000000000014E-002     6.9335401349235326E-005
   5.4900000000000004E-002     7.2839138738345355E-005
   5.6000000000000022E-002     7.6070791692472994E-005
   5.7100000000000012E-002     7.8949706221465021E-005
   5.8200000000000002E-002     8.1384889199398458E-005
   5.9300000000000019E-002     8.3275117503944784E-005
   6.0400000000000009E-002     8.4513972979038954E-005
   6.1500000000000027E-002     8.4998006059322506E-005
   6.2600000000000017E-002     8.4633400547318161E-005
   6.3700000000000007E-002     8.3337050455156714E-005
   6.4800000000000024E-002     8.1032718298956752E-005
   6.5900000000000014E-002     7.7644988778047264E-005
   6.7000000000000004E-002     7.3095528932753950E-005
   6.8100000000000022E-002     6.7304797994438559E-005
   6.9200000000000012E-002     6.0198330174898729E-005
   7.0300000000000029E-002     5.1715065637836233E-005
   7.1400000000000019E-002     4.1815103031694889E-005
   7.2500000000000009E-002     3.0485398383461870E-005
   7.3600000000000027E-002     1.7742500858730637E-005
   7.4700000000000016E-002     3.6318810998636764E-006
   7.5800000000000006E-002    -1.1773874575737864E-005
   7.6900000000000024E-002    -2.8377608032315038E-005
   7.8000000000000014E-002    -4.6060067688813433E-005
   7.9100000000000004E-002    -6.4680418290663511E-005
   8.0200000000000021E-002    -8.4075814811512828E-005
   8.1300000000000011E-002    -1.0406048386357725E-004
   8.2400000000000029E-002    -1.2442533625289798E-004
   8.3500000000000019E-002    -1.4493837079498917E-004
   8.4600000000000009E-002    -1.6534539463464171E-004
   8.5700000000000026E-002    -1.8537085270509124E-004
   8.6800000000000016E-002    -2.0471939933486283E-004
   8.7900000000000006E-002    -2.2308046754915267E-004
   8.9000000000000024E-002    -2.4013665097299963E-004
   9.0100000000000013E-002    -2.5557453045621514E-004
   9.1200000000000003E-002    -2.6909497682936490E-004
   9.2300000000000021E-002    -2.8042052872478962E-004
   9.3400000000000011E-002    -2.8929917607456446E-004
   9.4500000000000028E-002    -2.9550580075010657E-004
   9.5600000000000018E-002    -2.9884313698858023E-004
   9.6700000000000008E-002    -2.9914415790699422E-004
   9.7800000000000026E-002    -2.9627585900016129E-004
   9.8900000000000016E-002    -2.9014400206506252E-004
  0.10000000000000001         -2.8069972177036107E-004
  0.10110000000000002         -2.6794569566845894E-004
  0.10220000000000001         -2.5194007321260870E-004
  0.10330000000000003         -2.3279713059309870E-004
  0.10440000000000002         -2.1068508794996887E-004
  0.10550000000000001         -1.8582434859126806E-004
  0.10660000000000003         -1.5848661132622510E-004
  0.10770000000000002         -1.2899260036647320E-004
  0.10880000000000001         -9.7705349617172033E-005
  0.10990000000000003         -6.5019645262509584E-005
  0.11100000000000002         -3.1351319194072857E-005
  0.11210000000000001          2.8706006105494453E-006
  0.11320000000000002          3.7206165870884433E-005
  0.11430000000000001          7.1205147833097726E-005
  0.11540000000000003          1.0441304766573012E-004
  0.11650000000000002          1.3638267409987748E-004
  0.11760000000000001          1.6668799798935652E-004
  0.11870000000000003          1.9493281433824450E-004
  0.11980000000000002          2.2075021115597337E-004
  0.12090000000000001          2.4379980459343642E-004
  0.12200000000000003          2.6377436006441712E-004
  0.12310000000000001          2.8041817131452262E-004
  0.12420000000000003          2.9354746220633388E-004
  0.12530000000000002          3.0305658583529294E-004
  0.12640000000000001          3.0890404013916850E-004
  0.12750000000000003          3.1109061092138290E-004
  0.12860000000000002          3.0964854522608221E-004
  0.12970000000000001          3.0465071904473007E-004
  0.13080000000000003          2.9622894362546504E-004
  0.13190000000000002          2.8458028100430965E-004
  0.13300000000000001          2.6995150255970657E-004
  0.13410000000000000          2.5261376868002117E-004
  0.13520000000000004          2.3285063798539340E-004
  0.13630000000000003          2.1096854470670223E-004
  0.13740000000000002          1.8731439195107669E-004
  0.13850000000000001          1.6227450396399945E-004
  0.13960000000000000          1.3624552229885012E-004
  0.14070000000000005          1.0959678184008226E-004
  0.14180000000000004          8.2655555161181837E-005
  0.14290000000000003          5.5726672144373879E-005
  0.14400000000000002          2.9124454158591107E-005
  0.14510000000000001          3.1804909212951316E-006
  0.14620000000000000         -2.1786456272820942E-005
  0.14730000000000004         -4.5514036173699424E-005
  0.14840000000000003         -6.7812645283993334E-005
  0.14950000000000002         -8.8536959083285183E-005
  0.15060000000000001         -1.0753998503787443E-004
  0.15170000000000000         -1.2465578038245440E-004
  0.15280000000000005         -1.3973026943858713E-004
  0.15390000000000004         -1.5267136041074991E-004
  0.15500000000000003         -1.6346773190889508E-004
  0.15610000000000002         -1.7215502157341689E-004
  0.15720000000000001         -1.7876016499940306E-004
  0.15830000000000000         -1.8327745783608407E-004
  0.15940000000000004         -1.8570033716969192E-004
  0.16050000000000003         -1.8607628589961678E-004
  0.16160000000000002         -1.8452620133757591E-004
  0.16270000000000001         -1.8120299500878900E-004
  0.16380000000000000         -1.7622494488023221E-004
  0.16490000000000005         -1.6964793030638248E-004
  0.16600000000000004         -1.6150524606928229E-004
  0.16710000000000003         -1.5187734970822930E-004
  0.16820000000000002         -1.4092252240516245E-004
  0.16930000000000001         -1.2883651652373374E-004
  0.17040000000000000         -1.1577812256291509E-004
  0.17150000000000004         -1.0183334961766377E-004
  0.17260000000000003         -8.7054075265768915E-005
  0.17370000000000002         -7.1532427682541311E-005
  0.17480000000000001         -5.5436405091313645E-005
  0.17590000000000000         -3.8969606976024806E-005
  0.17700000000000005         -2.2293757865554653E-005
  0.17810000000000004         -5.4916595217946451E-006
  0.17920000000000003          1.1389889550628141E-005
  0.18030000000000002          2.8258480597287416E-005
  0.18140000000000001          4.4936881749890745E-005
  0.18250000000000000          6.1206264945212752E-005
  0.18360000000000004          7.6891934440936893E-005
  0.18470000000000003          9.1907189926132560E-005
  0.18580000000000002          1.0621123510645702E-004
  0.18690000000000001          1.1972327774856240E-004
  0.18800000000000000          1.3227853924036026E-004
  0.18910000000000005          1.4367190306074917E-004
  0.19020000000000004          1.5374879876617342E-004
  0.19130000000000003          1.6245493316091597E-004
  0.19240000000000002          1.6979726206045598E-004
  0.19350000000000001          1.7575637320987880E-004
  0.19460000000000005          1.8023808661382645E-004
  0.19570000000000004          1.8311259918846190E-004
  0.19680000000000003          1.8430250929668546E-004
  0.19790000000000002          1.8383294809609652E-004
  0.19900000000000001          1.8179511243943125E-004
  0.20010000000000000          1.7826096154749393E-004
  0.20120000000000005          1.7323478823527694E-004
  0.20230000000000004          1.6669038450345397E-004
  0.20340000000000003          1.5865643217694014E-004
  0.20450000000000002          1.4926549920346588E-004
  0.20560000000000000          1.3871792179998010E-004
  0.20670000000000005          1.2719529331661761E-004
  0.20780000000000004          1.1480667308205739E-004
  0.20890000000000003          1.0161664977204055E-004
