 -0.12000000000000000          0.0000000000000000
 -0.11889999999999999          0.0000000000000000
 -0.11780000000000000          0.0000000000000000
 -0.11670000000000000          5.2629461119030330E-013
 -0.11559999999999999          2.5477799123901912E-012
 -0.11449999999999999          5.2235633353492350E-012
 -0.11340000000000000          5.5475901650225978E-012
 -0.11230000000000000          3.5919572437953518E-012
 -0.11119999999999999          3.7177123358989039E-012
 -0.11009999999999999         -5.2095247603592409E-013
 -0.10900000000000000         -3.9264237694514037E-011
 -0.10790000000000000         -1.3145022570437703E-010
 -0.10679999999999999         -2.0524262844823227E-010
 -0.10569999999999999         -8.4163571945072846E-011
 -0.10460000000000000          3.4132771609129975E-010
 -0.10349999999999999          8.4452927984202120E-010
 -0.10239999999999999          8.4103107811372979E-010
 -0.10130000000000000         -1.2002795979348946E-010
 -0.10020000000000000         -1.6439392069855785E-009
  -9.9099999999999994E-002    -2.3838895302219498E-009
  -9.7999999999999990E-002    -1.0893677071521779E-009
  -9.6899999999999986E-002     1.8382673161454477E-009
  -9.5799999999999996E-002     3.9532048745627435E-009
  -9.4699999999999993E-002     2.6209832082457751E-009
  -9.3599999999999989E-002    -2.0246972987081335E-009
  -9.2499999999999999E-002    -6.0229181642057483E-009
  -9.1399999999999995E-002    -4.4712322733175824E-009
  -9.0299999999999991E-002     3.3413112277003165E-009
  -8.9200000000000002E-002     1.1454663884080674E-008
  -8.8099999999999984E-002     1.1105082187157223E-008
  -8.6999999999999994E-002    -1.0736231903507587E-009
  -8.5899999999999990E-002    -1.7791766282471144E-008
  -8.4799999999999986E-002    -2.5044871065915686E-008
  -8.3699999999999997E-002    -1.3674160470600327E-008
  -8.2599999999999993E-002     1.1063341354144995E-008
  -8.1499999999999989E-002     3.1505670960996213E-008
  -8.0399999999999999E-002     3.1222480600945346E-008
  -7.9299999999999995E-002     9.2595042744392231E-009
  -7.8199999999999992E-002    -1.7896661930194568E-008
  -7.7100000000000002E-002    -2.9341043372710374E-008
  -7.5999999999999984E-002    -1.6995368667949151E-008
  -7.4899999999999994E-002     7.8015842674972191E-009
  -7.3799999999999991E-002     2.3765668544228902E-008
  -7.2699999999999987E-002     1.6362323052021566E-008
  -7.1599999999999997E-002    -1.2660878567771761E-008
  -7.0499999999999993E-002    -4.9351868369740259E-008
  -6.9399999999999989E-002    -7.8889677013194159E-008
  -6.8300000000000000E-002    -9.3117400012943108E-008
  -6.7199999999999996E-002    -9.0297426424967853E-008
  -6.6099999999999992E-002    -7.2801221051577159E-008
  -6.5000000000000002E-002    -4.9125851830922329E-008
  -6.3899999999999985E-002    -3.7658466567336291E-008
  -6.2799999999999995E-002    -6.2579729842582310E-008
  -6.1699999999999991E-002    -1.3793561493002926E-007
  -6.0599999999999994E-002    -2.5057897801161744E-007
  -5.9499999999999990E-002    -3.6026051475346321E-007
  -5.8399999999999994E-002    -4.2401066480124427E-007
  -5.7299999999999990E-002    -4.2950381384798675E-007
  -5.6199999999999986E-002    -4.0993518268805929E-007
  -5.5099999999999996E-002    -4.2549578438411118E-007
  -5.3999999999999992E-002    -5.2461814448179211E-007
  -5.2899999999999989E-002    -7.1592637596040731E-007
  -5.1799999999999985E-002    -9.7185875347349793E-007
  -5.0699999999999995E-002    -1.2564676126203267E-006
  -4.9599999999999991E-002    -1.5504616612815880E-006
  -4.8499999999999988E-002    -1.8543587430031039E-006
  -4.7399999999999998E-002    -2.1759033188573085E-006
  -4.6299999999999994E-002    -2.5231950075976783E-006
  -4.5199999999999990E-002    -2.9142038329155184E-006
  -4.4099999999999986E-002    -3.3892872579599498E-006
  -4.2999999999999997E-002    -4.0042755244940054E-006
  -4.1899999999999993E-002    -4.8002866606111638E-006
  -4.0799999999999989E-002    -5.7744514379010070E-006
  -3.9699999999999985E-002    -6.8820236265310086E-006
  -3.8599999999999995E-002    -8.0744830484036356E-006
  -3.7499999999999992E-002    -9.3438893600250594E-006
  -3.6399999999999988E-002    -1.0735882824519649E-005
  -3.5299999999999984E-002    -1.2322136171860620E-005
  -3.4199999999999994E-002    -1.4160305909172166E-005
  -3.3099999999999991E-002    -1.6278276234515943E-005
  -3.1999999999999987E-002    -1.8691242075874470E-005
  -3.0899999999999997E-002    -2.1424935766845010E-005
  -2.9799999999999993E-002    -2.4513628886779770E-005
  -2.8699999999999989E-002    -2.7972415409749374E-005
  -2.7599999999999986E-002    -3.1776860851095989E-005
  -2.6499999999999996E-002    -3.5880850191460922E-005
  -2.5399999999999992E-002    -4.0264778363052756E-005
  -2.4299999999999988E-002    -4.4971002353122458E-005
  -2.3199999999999985E-002    -5.0089362048311159E-005
  -2.2099999999999995E-002    -5.5700380471535027E-005
  -2.0999999999999991E-002    -6.1823709984309971E-005
  -1.9899999999999987E-002    -6.8414206907618791E-005
  -1.8799999999999983E-002    -7.5402647780720145E-005
  -1.7699999999999994E-002    -8.2737977209035307E-005
  -1.6599999999999990E-002    -9.0392408310435712E-005
  -1.5499999999999986E-002    -9.8332675406709313E-005
  -1.4399999999999996E-002    -1.0649575415300205E-004
  -1.3299999999999992E-002    -1.1479820386739448E-004
  -1.2199999999999989E-002    -1.2316757056396455E-004
  -1.1099999999999985E-002    -1.3155740452930331E-004
  -9.9999999999999950E-003    -1.3992250023875386E-004
  -8.8999999999999913E-003    -1.4817445480730385E-004
  -7.7999999999999875E-003    -1.5616061864420772E-004
  -6.6999999999999837E-003    -1.6368660726584494E-004
  -5.5999999999999939E-003    -1.7055876378435642E-004
  -4.4999999999999901E-003    -1.7660489538684487E-004
  -3.3999999999999864E-003    -1.8165826622862369E-004
  -2.2999999999999826E-003    -1.8553007976152003E-004
  -1.1999999999999927E-003    -1.8800848920363933E-004
  -9.9999999999988987E-005    -1.8888966587837785E-004
   1.0000000000000148E-003    -1.8800479301717132E-004
   2.1000000000000185E-003    -1.8520944286137819E-004
   3.2000000000000084E-003    -1.8034121603704989E-004
   4.3000000000000121E-003    -1.7318925529252738E-004
   5.4000000000000159E-003    -1.6351410886272788E-004
   6.5000000000000058E-003    -1.5110500680748373E-004
   7.6000000000000234E-003    -1.3582178507931530E-004
   8.7000000000000133E-003    -1.1758637265302241E-004
   9.8000000000000032E-003    -9.6339244919363409E-005
   1.0900000000000021E-002    -7.2013906901702285E-005
   1.2000000000000011E-002    -4.4561693357536569E-005
   1.3100000000000001E-002    -1.4003137039253488E-005
   1.4200000000000018E-002     1.9549679564079270E-005
   1.5300000000000008E-002     5.5926437198650092E-005
   1.6400000000000026E-002     9.4952469225972891E-005
   1.7500000000000016E-002     1.3646375737152994E-004
   1.8600000000000005E-002     1.8026071484200656E-004
   1.9700000000000023E-002     2.2604664263781160E-004
   2.0800000000000013E-002     2.7341544046066701E-004
   2.1900000000000003E-002     3.2190297497436404E-004
   2.3000000000000020E-002     3.7105119554325938E-004
   2.4100000000000010E-002     4.2041525011882186E-004
   2.5200000000000000E-002     4.6950666001066566E-004
   2.6300000000000018E-002     5.1773863378912210E-004
   2.7400000000000008E-002     5.6443974608555436E-004
   2.8500000000000025E-002     6.0893583577126265E-004
   2.9600000000000015E-002     6.5062363864853978E-004
   3.0700000000000005E-002     6.8896386073902249E-004
   3.1800000000000023E-002     7.2340614860877395E-004
   3.2900000000000013E-002     7.5333256972953677E-004
   3.4000000000000002E-002     7.7808991773054004E-004
   3.5100000000000020E-002     7.9708913108333945E-004
   3.6200000000000010E-002     8.0987490946426988E-004
   3.7300000000000028E-002     8.1609433982521296E-004
   3.8400000000000017E-002     8.1539974780753255E-004
   3.9500000000000007E-002     8.0739584518596530E-004
   4.0600000000000025E-002     7.9170300159603357E-004
   4.1700000000000015E-002     7.6808780431747437E-004
   4.2800000000000005E-002     7.3653680738061666E-004
   4.3900000000000022E-002     6.9719896418973804E-004
   4.5000000000000012E-002     6.5025140065699816E-004
   4.6100000000000002E-002     5.9582828544080257E-004
   4.7200000000000020E-002     5.3409184329211712E-004
   4.8300000000000010E-002     4.6537254820577800E-004
   4.9400000000000027E-002     3.9023434510454535E-004
   5.0500000000000017E-002     3.0939205316826701E-004
   5.1600000000000007E-002     2.2355635883286595E-004
   5.2700000000000025E-002     1.3336385018192232E-004
   5.3800000000000014E-002     3.9464339351980016E-005
   5.4900000000000004E-002    -5.7322948123328388E-005
   5.6000000000000022E-002    -1.5595059085171670E-004
   5.7100000000000012E-002    -2.5525578530505300E-004
   5.8200000000000002E-002    -3.5414274316281080E-004
   5.9300000000000019E-002    -4.5166444033384323E-004
   6.0400000000000009E-002    -5.4693158017471433E-004
   6.1500000000000027E-002    -6.3895439961925149E-004
   6.2600000000000017E-002    -7.2659517172724009E-004
   6.3700000000000007E-002    -8.0869189696386456E-004
   6.4800000000000024E-002    -8.8424014393240213E-004
   6.5900000000000014E-002    -9.5246062846854329E-004
   6.7000000000000004E-002    -1.0126972338184714E-003
   6.8100000000000022E-002    -1.0642642155289650E-003
   6.9200000000000012E-002    -1.1064102873206139E-003
   7.0300000000000029E-002    -1.1384475510567427E-003
   7.1400000000000019E-002    -1.1599222198128700E-003
   7.2500000000000009E-002    -1.1706594377756119E-003
   7.3600000000000027E-002    -1.1706455843523145E-003
   7.4700000000000016E-002    -1.1598797282204032E-003
   7.5800000000000006E-002    -1.1383545352146029E-003
   7.6900000000000024E-002    -1.1061916593462229E-003
   7.8000000000000014E-002    -1.0637895902618766E-003
   7.9100000000000004E-002    -1.0118243517354131E-003
   8.0200000000000021E-002    -9.5109432004392147E-004
   8.1300000000000011E-002    -8.8236178271472454E-004
   8.2400000000000029E-002    -8.0634601181373000E-004
   8.3500000000000019E-002    -7.2386406827718019E-004
   8.4600000000000009E-002    -6.3595862593501806E-004
   8.5700000000000026E-002    -5.4386630654335022E-004
   8.6800000000000016E-002    -4.4884480303153396E-004
   8.7900000000000006E-002    -3.5202220897190273E-004
   8.9000000000000024E-002    -2.5440982426516712E-004
   9.0100000000000013E-002    -1.5705013356637210E-004
   9.1200000000000003E-002    -6.1126884247642010E-005
   9.2300000000000021E-002     3.2098891097120941E-005
   9.3400000000000011E-002     1.2148235691711307E-004
   9.4500000000000028E-002     2.0613959350157529E-004
   9.5600000000000018E-002     2.8540840139612556E-004
   9.6700000000000008E-002     3.5867429687641561E-004
   9.7800000000000026E-002     4.2524994933046401E-004
   9.8900000000000016E-002     4.8444018466398120E-004
  0.10000000000000001          5.3573161130771041E-004
  0.10110000000000002          5.7891663163900375E-004
  0.10220000000000001          6.1402481514960527E-004
  0.10330000000000003          6.4113613916561007E-004
  0.10440000000000002          6.6026567947119474E-004
  0.10550000000000001          6.7143130581825972E-004
  0.10660000000000003          6.7482871236279607E-004
  0.10770000000000002          6.7092792596668005E-004
  0.10880000000000001          6.6038564546033740E-004
  0.10990000000000003          6.4385432051494718E-004
  0.11100000000000002          6.2187039293348789E-004
  0.11210000000000001          5.9491710271686316E-004
  0.11320000000000002          5.6357926223427057E-004
  0.11430000000000001          5.2861584117636085E-004
  0.11540000000000003          4.9086532089859247E-004
  0.11650000000000002          4.5107485493645072E-004
  0.11760000000000001          4.0982151404023170E-004
  0.11870000000000003          3.6759569775313139E-004
  0.11980000000000002          3.2494665356352925E-004
  0.12090000000000001          2.8252979973331094E-004
  0.12200000000000003          2.4100011796690524E-004
  0.12310000000000001          2.0085825235582888E-004
  0.12420000000000003          1.6240430704783648E-004
  0.12530000000000002          1.2584088835865259E-004
  0.12640000000000001          9.1414578491821885E-005
  0.12750000000000003          5.9445854276418686E-005
  0.12860000000000002          3.0217002858989872E-005
  0.12970000000000001          3.8398193282773718E-006
  0.13080000000000003         -1.9753955712076277E-005
  0.13190000000000002         -4.0682811231818050E-005
  0.13300000000000001         -5.8975252613890916E-005
  0.13410000000000000         -7.4562645750120282E-005
  0.13520000000000004         -8.7410451669711620E-005
  0.13630000000000003         -9.7649397503118962E-005
  0.13740000000000002         -1.0556732013355941E-004
  0.13850000000000001         -1.1146347969770432E-004
  0.13960000000000000         -1.1550978524610400E-004
  0.14070000000000005         -1.1775767779909074E-004
  0.14180000000000004         -1.1827802518382668E-004
  0.14290000000000003         -1.1728763638529927E-004
  0.14400000000000002         -1.1512752826092765E-004
  0.14510000000000001         -1.1210847151232883E-004
  0.14620000000000000         -1.0837714944500476E-004
  0.14730000000000004         -1.0393546835985035E-004
  0.14840000000000003         -9.8792959761340171E-005
  0.14950000000000002         -9.3098649813327938E-005
  0.15060000000000001         -8.7121581600513309E-005
  0.15170000000000000         -8.1102793046738952E-005
  0.15280000000000005         -7.5129020842723548E-005
  0.15390000000000004         -6.9153538788668811E-005
  0.15500000000000003         -6.3138926634564996E-005
  0.15610000000000002         -5.7174111134372652E-005
  0.15720000000000001         -5.1447637815726921E-005
  0.15830000000000000         -4.6107394155114889E-005
  0.15940000000000004         -4.1151823097607121E-005
  0.16050000000000003         -3.6462974094320089E-005
  0.16160000000000002         -3.1946594390319660E-005
  0.16270000000000001         -2.7636793674901128E-005
  0.16380000000000000         -2.3662083549425006E-005
  0.16490000000000005         -2.0113158825552091E-005
  0.16600000000000004         -1.6951527868513949E-005
  0.16710000000000003         -1.4052891856408678E-005
  0.16820000000000002         -1.1337983778503258E-005
  0.16930000000000001         -8.8534907263237983E-006
  0.17040000000000000         -6.7183664214098826E-006
  0.17150000000000004         -4.9909203880815767E-006
  0.17260000000000003         -3.5944592582382029E-006
  0.17370000000000002         -2.3787640657246811E-006
  0.17480000000000001         -1.2539924227894517E-006
  0.17590000000000000         -2.5844786932793795E-007
  0.17700000000000005          5.0898637482532649E-007
  0.17810000000000004          1.0195251434197417E-006
  0.17920000000000003          1.3690201967619942E-006
  0.18030000000000002          1.6954295460891444E-006
  0.18140000000000001          2.0425554794201162E-006
  0.18250000000000000          2.3136497020459501E-006
  0.18360000000000004          2.3697346023254795E-006
  0.18470000000000003          2.1784551336168079E-006
  0.18580000000000002          1.8629789337865077E-006
  0.18690000000000001          1.5978304190866766E-006
  0.18800000000000000          1.4535548871208448E-006
  0.18910000000000005          1.3459863339448930E-006
  0.19020000000000004          1.1409139233364840E-006
  0.19130000000000003          8.0650005429561133E-007
  0.19240000000000002          4.5554074290521385E-007
  0.19350000000000001          2.3129101123231521E-007
  0.19460000000000005          1.5255763230470620E-007
  0.19570000000000004          7.9590094514969678E-008
  0.19680000000000003         -1.5781495221744990E-007
  0.19790000000000002         -5.9484420944500016E-007
  0.19900000000000001         -1.0957252243315452E-006
  0.20010000000000000         -1.4860071360089933E-006
  0.20120000000000005         -1.7214694025824429E-006
  0.20230000000000004         -1.9233582406741334E-006
  0.20340000000000003         -2.2447700303018792E-006
  0.20450000000000002         -2.7059509193350095E-006
  0.20560000000000000         -3.1697095437266398E-006
  0.20670000000000005         -3.4852198496082565E-006
  0.20780000000000004         -3.6537551295623416E-006
  0.20890000000000003         -3.8433236113633029E-006
