 -0.12000000000000000          0.0000000000000000
 -0.11889999999999999          0.0000000000000000
 -0.11780000000000000          0.0000000000000000
 -0.11670000000000000          0.0000000000000000
 -0.11559999999999999         -4.2698222804484935E-017
 -0.11449999999999999         -2.5520777122482968E-016
 -0.11340000000000000         -7.3758353203527672E-016
 -0.11230000000000000         -1.2790877247480107E-015
 -0.11119999999999999         -1.2553194508524630E-015
 -0.11009999999999999         -1.8230807914273534E-016
 -0.10900000000000000          1.2348386177043276E-015
 -0.10790000000000000          7.9556187848364951E-016
 -0.10679999999999999         -3.3845153818488991E-015
 -0.10569999999999999         -9.5218742897471183E-015
 -0.10460000000000000         -1.0858409271285573E-014
 -0.10349999999999999         -4.7063426950494673E-016
 -0.10239999999999999          1.8776906096054820E-014
 -0.10130000000000000          2.8317548094814252E-014
 -0.10020000000000000          3.8282793310472161E-015
  -9.9099999999999994E-002    -5.8195554495169000E-014
  -9.7999999999999990E-002    -1.1734852727127848E-013
  -9.6899999999999986E-002    -1.0113782099134550E-013
  -9.5799999999999996E-002     3.5941346063607729E-014
  -9.4699999999999993E-002     2.4058522101605417E-013
  -9.3599999999999989E-002     3.4778037112485893E-013
  -9.2499999999999999E-002     1.7776352492868824E-013
  -9.1399999999999995E-002    -2.9405606638902015E-013
  -9.0299999999999991E-002    -8.2606908509766375E-013
  -8.9200000000000002E-002    -9.9591754114392028E-013
  -8.8099999999999984E-002    -4.9103901283639728E-013
  -8.6999999999999994E-002     5.7706020951259207E-013
  -8.5899999999999990E-002     1.6052787354600695E-012
  -8.4799999999999986E-002     1.8188574561414650E-012
  -8.3699999999999997E-002     8.2541899747504144E-013
  -8.2599999999999993E-002    -9.8716412648414131E-013
  -8.1499999999999989E-002    -2.5586668200849871E-012
  -8.0399999999999999E-002    -2.7840878474155728E-012
  -7.9299999999999995E-002    -1.2784818776562235E-012
  -7.8199999999999992E-002     1.2478758261089129E-012
  -7.7100000000000002E-002     3.2936149467477360E-012
  -7.5999999999999984E-002     3.3890188832347290E-012
  -7.4899999999999994E-002     9.4246182039126047E-013
  -7.3799999999999991E-002    -3.3827066581865184E-012
  -7.2699999999999987E-002    -7.9598740793107581E-012
  -7.1599999999999997E-002    -1.0993801355385635E-011
  -7.0499999999999993E-002    -1.1408955377656405E-011
  -6.9399999999999989E-002    -9.3523556954355769E-012
  -6.8300000000000000E-002    -5.9215709592719268E-012
  -6.7199999999999996E-002    -2.0052895975675167E-012
  -6.6099999999999992E-002     3.3929881473881984E-012
  -6.5000000000000002E-002     1.4454989288870124E-011
  -6.3899999999999985E-002     3.8417803660539818E-011
  -6.2799999999999995E-002     8.3521418947629655E-011
  -6.1699999999999991E-002     1.5570728040259496E-010
  -6.0599999999999994E-002     2.5579288687183066E-010
  -5.9499999999999990E-002     3.7891806359269253E-010
  -5.8399999999999994E-002     5.1689669211540945E-010
  -5.7299999999999990E-002     6.6243610596927738E-010
  -5.6199999999999986E-002     8.1321105405152139E-010
  -5.5099999999999996E-002     9.7418273448113268E-010
  -5.3999999999999992E-002     1.1578710212845067E-009
  -5.2899999999999989E-002     1.3833393319728771E-009
  -5.1799999999999985E-002     1.6746549702517655E-009
  -5.0699999999999995E-002     2.0588746263427993E-009
  -4.9599999999999991E-002     2.5632851397006107E-009
  -4.8499999999999988E-002     3.2123084192647866E-009
  -4.7399999999999998E-002     4.0255816458056870E-009
  -4.6299999999999994E-002     5.0189337130746026E-009
  -4.5199999999999990E-002     6.2086771279723507E-009
  -4.4099999999999986E-002     7.6176158714247322E-009
  -4.2999999999999997E-002     9.2801455409130540E-009
  -4.1899999999999993E-002     1.1244680742095170E-008
  -4.0799999999999989E-002     1.3573560941892993E-008
  -3.9699999999999985E-002     1.6341919817364214E-008
  -3.8599999999999995E-002     1.9636658521449135E-008
  -3.7499999999999992E-002     2.3555518424700495E-008
  -3.6399999999999988E-002     2.8205777269363352E-008
  -3.5299999999999984E-002     3.3703102531035256E-008
  -3.4199999999999994E-002     4.0172253079617803E-008
  -3.3099999999999991E-002     4.7750944531799178E-008
  -3.1999999999999987E-002     5.6595904851519663E-008
  -3.0899999999999997E-002     6.6887857030906162E-008
  -2.9799999999999993E-002     7.8832222527580598E-008
  -2.8699999999999989E-002     9.2655390915297176E-008
  -2.7599999999999986E-002     1.0859984200806139E-007
  -2.6499999999999996E-002     1.2692235884514957E-007
  -2.5399999999999992E-002     1.4789698354888969E-007
  -2.4299999999999988E-002     1.7182016165406822E-007
  -2.3199999999999985E-002     1.9901428061075421E-007
  -2.2099999999999995E-002     2.2982733582921355E-007
  -2.0999999999999991E-002     2.6462979008101684E-007
  -1.9899999999999987E-002     3.0381104920707003E-007
  -1.8799999999999983E-002     3.4777653468154313E-007
  -1.7699999999999994E-002     3.9694370457254990E-007
  -1.6599999999999990E-002     4.5173518969932047E-007
  -1.5499999999999986E-002     5.1256984079373069E-007
  -1.4399999999999996E-002     5.7985499779533711E-007
  -1.3299999999999992E-002     6.5398234028180013E-007
  -1.2199999999999989E-002     7.3532618216631818E-007
  -1.1099999999999985E-002     8.2423889580240939E-007
  -9.9999999999999950E-003     9.2103988436065265E-007
  -8.8999999999999913E-003     1.0259982445859350E-006
  -7.7999999999999875E-003     1.1393146905902540E-006
  -6.6999999999999837E-003     1.2611088777703117E-006
  -5.5999999999999939E-003     1.3914116152591305E-006
  -4.4999999999999901E-003     1.5301574194381828E-006
  -3.3999999999999864E-003     1.6771721220720792E-006
  -2.2999999999999826E-003     1.8321558172829100E-006
  -1.1999999999999927E-003     1.9946646716562100E-006
  -9.9999999999988987E-005     2.1640998966176994E-006
   1.0000000000000148E-003     2.3397010409098584E-006
   2.1000000000000185E-003     2.5205426936736330E-006
   3.2000000000000084E-003     2.7055266400566325E-006
   4.3000000000000121E-003     2.8933704925293569E-006
   5.4000000000000159E-003     3.0825992780592060E-006
   6.5000000000000058E-003     3.2715443012421019E-006
   7.6000000000000234E-003     3.4583508750074543E-006
   8.7000000000000133E-003     3.6409917356650112E-006
   9.8000000000000032E-003     3.8172761378518771E-006
   1.0900000000000021E-002     3.9848609958426096E-006
   1.2000000000000011E-002     4.1412617974856403E-006
   1.3100000000000001E-002     4.2838764784391969E-006
   1.4200000000000018E-002     4.4100179366068915E-006
   1.5300000000000008E-002     4.5169526856625453E-006
   1.6400000000000026E-002     4.6019376895856112E-006
   1.7500000000000016E-002     4.6622562877018936E-006
   1.8600000000000005E-002     4.6952554839663208E-006
   1.9700000000000023E-002     4.6983905122033320E-006
   2.0800000000000013E-002     4.6692707655893173E-006
   2.1900000000000003E-002     4.6057093641138636E-006
   2.3000000000000020E-002     4.5057659008307382E-006
   2.4100000000000010E-002     4.3677837311406620E-006
   2.5200000000000000E-002     4.1904331737896428E-006
   2.6300000000000018E-002     3.9727519833832048E-006
   2.7400000000000008E-002     3.7141903703741264E-006
   2.8500000000000025E-002     3.4146476082241861E-006
   2.9600000000000015E-002     3.0744963623874355E-006
   3.0700000000000005E-002     2.6945972422254272E-006
   3.1800000000000023E-002     2.2763072138332063E-006
   3.2900000000000013E-002     1.8214811916550389E-006
   3.4000000000000002E-002     1.3324702194950078E-006
   3.5100000000000020E-002     8.1210714597546030E-007
   3.6200000000000010E-002     2.6368056182946020E-007
   3.7300000000000028E-002    -3.0910075565770967E-007
   3.8400000000000017E-002    -9.0214768988516880E-007
   3.9500000000000007E-002    -1.5110333606571658E-006
   4.0600000000000025E-002    -2.1310418105713325E-006
   4.1700000000000015E-002    -2.7572277758736163E-006
   4.2800000000000005E-002    -3.3844864901766414E-006
   4.3900000000000022E-002    -4.0076292862067930E-006
   4.5000000000000012E-002    -4.6214577196224127E-006
   4.6100000000000002E-002    -5.2208347369742114E-006
   4.7200000000000020E-002    -5.8007531151815783E-006
   4.8300000000000010E-002    -6.3564079937350471E-006
   4.9400000000000027E-002    -6.8832682700303849E-006
   5.0500000000000017E-002    -7.3771448114712257E-006
   5.1600000000000007E-002    -7.8342445704038255E-006
   5.2700000000000025E-002    -8.2512096923892386E-006
   5.3800000000000014E-002    -8.6251529864966869E-006
   5.4900000000000004E-002    -8.9536815721658058E-006
   5.6000000000000022E-002    -9.2349200713215396E-006
   5.7100000000000012E-002    -9.4675206128158607E-006
   5.8200000000000002E-002    -9.6506655609118752E-006
   5.9300000000000019E-002    -9.7840484158950858E-006
   6.0400000000000009E-002    -9.8678501672111452E-006
   6.1500000000000027E-002    -9.9027174655930139E-006
   6.2600000000000017E-002    -9.8897226052940823E-006
   6.3700000000000007E-002    -9.8303307822789066E-006
   6.4800000000000024E-002    -9.7263391580781899E-006
   6.5900000000000014E-002    -9.5798241090960801E-006
   6.7000000000000004E-002    -9.3930766524863429E-006
   6.8100000000000022E-002    -9.1685524239437655E-006
   6.9200000000000012E-002    -8.9088161985273473E-006
   7.0300000000000029E-002    -8.6164982349146158E-006
   7.1400000000000019E-002    -8.2942397057195194E-006
   7.2500000000000009E-002    -7.9446526797255501E-006
   7.3600000000000027E-002    -7.5702814683609176E-006
   7.4700000000000016E-002    -7.1735757956048474E-006
   7.5800000000000006E-002    -6.7568730628408957E-006
   7.6900000000000024E-002    -6.3223806137102656E-006
   7.8000000000000014E-002    -5.8721648201753851E-006
   7.9100000000000004E-002    -5.4081438065622933E-006
   8.0200000000000021E-002    -4.9320974540023599E-006
   8.1300000000000011E-002    -4.4456837713369168E-006
   8.2400000000000029E-002    -3.9504634514742065E-006
   8.3500000000000019E-002    -3.4479219266358996E-006
   8.4600000000000009E-002    -2.9394898319878848E-006
   8.5700000000000026E-002    -2.4265657430078136E-006
   8.6800000000000016E-002    -1.9105455066892318E-006
   8.7900000000000006E-002    -1.3928541875429801E-006
   8.9000000000000024E-002    -8.7497500089739333E-007
   9.0100000000000013E-002    -3.5846937862515915E-007
   9.1200000000000003E-002     1.5501230166137248E-007
   9.2300000000000021E-002     6.6372228957334301E-007
   9.3400000000000011E-002     1.1658058838293073E-006
   9.4500000000000028E-002     1.6592930478509516E-006
   9.5600000000000018E-002     2.1420992197818123E-006
   9.6700000000000008E-002     2.6120401344087441E-006
   9.7800000000000026E-002     3.0668579711345956E-006
   9.8900000000000016E-002     3.5042512536165304E-006
  0.10000000000000001          3.9219030441017821E-006
  0.10110000000000002          4.3175059545319527E-006
  0.10220000000000001          4.6887907956261188E-006
  0.10330000000000003          5.0335647756583057E-006
  0.10440000000000002          5.3497560656978749E-006
  0.10550000000000001          5.6354538173764013E-006
  0.10660000000000003          5.8889468164124992E-006
  0.10770000000000002          6.1087521316949278E-006
  0.10880000000000001          6.2936414906289428E-006
  0.10990000000000003          6.4426722019561566E-006
  0.11100000000000002          6.5552121668588370E-006
  0.11210000000000001          6.6309603425906971E-006
  0.11320000000000002          6.6699594754027203E-006
  0.11430000000000001          6.6725947363011073E-006
  0.11540000000000003          6.6395919020578731E-006
  0.11650000000000002          6.5720064412744250E-006
  0.11760000000000001          6.4712103267083876E-006
  0.11870000000000003          6.3388733906322159E-006
  0.11980000000000002          6.1769387684762478E-006
  0.12090000000000001          5.9875933402508963E-006
  0.12200000000000003          5.7732368077267893E-006
  0.12310000000000001          5.5364475883834530E-006
  0.12420000000000003          5.2799459808738902E-006
  0.12530000000000002          5.0065532377630007E-006
  0.12640000000000001          4.7191510930133518E-006
  0.12750000000000003          4.4206440179550555E-006
  0.12860000000000002          4.1139251152344514E-006
  0.12970000000000001          3.8018420127627905E-006
  0.13080000000000003          3.4871604839281645E-006
  0.13190000000000002          3.1725271583127324E-006
  0.13300000000000001          2.8604367798834573E-006
  0.13410000000000000          2.5532117433613166E-006
  0.13520000000000004          2.2529875423060730E-006
  0.13630000000000003          1.9617034467955818E-006
  0.13740000000000002          1.6810889746921021E-006
  0.13850000000000001          1.4126493397270679E-006
  0.13960000000000000          1.1576554470593692E-006
  0.14070000000000005          9.1714451855295920E-007
  0.14180000000000004          6.9192930141070974E-007
  0.14290000000000003          4.8261017582262866E-007
  0.14400000000000002          2.8958280040569662E-007
  0.14510000000000001          1.1304242519827312E-007
  0.14620000000000000         -4.7009528714170301E-008
  0.14730000000000004         -1.9075025647907751E-007
  0.14840000000000003         -3.1851291737439169E-007
  0.14950000000000002         -4.3076337874481396E-007
  0.15060000000000001         -5.2808246664426406E-007
  0.15170000000000000         -6.1115349581086775E-007
  0.15280000000000005         -6.8074996306677349E-007
  0.15390000000000004         -7.3771798270172440E-007
  0.15500000000000003         -7.8295425964824972E-007
  0.15610000000000002         -8.1738454582591658E-007
  0.15720000000000001         -8.4194761029721121E-007
  0.15830000000000000         -8.5758443901795545E-007
  0.15940000000000004         -8.6522851461268147E-007
  0.16050000000000003         -8.6579456137769739E-007
  0.16160000000000002         -8.6016706291047740E-007
  0.16270000000000001         -8.4919173559683259E-007
  0.16380000000000000         -8.3367098113740212E-007
  0.16490000000000005         -8.1436110122012906E-007
  0.16600000000000004         -7.9196678370863083E-007
  0.16710000000000003         -7.6713382668458507E-007
  0.16820000000000002         -7.4044356779268128E-007
  0.16930000000000001         -7.1241231580643216E-007
  0.17040000000000000         -6.8349606863193912E-007
  0.17150000000000004         -6.5409562921558972E-007
  0.17260000000000003         -6.2455876559397439E-007
  0.17370000000000002         -5.9518009720704868E-007
  0.17480000000000001         -5.6620410759933293E-007
  0.17590000000000000         -5.3783298881171504E-007
  0.17700000000000005         -5.1023749847445288E-007
  0.17810000000000004         -4.8356355364376213E-007
  0.17920000000000003         -4.5793086655976367E-007
  0.18030000000000002         -4.3342777189536719E-007
  0.18140000000000001         -4.1010872564584133E-007
  0.18250000000000000         -3.8799996104899037E-007
  0.18360000000000004         -3.6711026041302830E-007
  0.18470000000000003         -3.4743933952086081E-007
  0.18580000000000002         -3.2897861501623993E-007
  0.18690000000000001         -3.1170694114734943E-007
  0.18800000000000000         -2.9558802339124668E-007
  0.18910000000000005         -2.8057408485437918E-007
  0.19020000000000004         -2.6661379592951562E-007
  0.19130000000000003         -2.5365733336002450E-007
  0.19240000000000002         -2.4165467493730830E-007
  0.19350000000000001         -2.3054900566421566E-007
  0.19460000000000005         -2.2027202817298530E-007
  0.19570000000000004         -2.1074549749755533E-007
  0.19680000000000003         -2.0188743121707375E-007
  0.19790000000000002         -1.9361763747838268E-007
  0.19900000000000001         -1.8585933503345586E-007
  0.20010000000000000         -1.7853749056939705E-007
  0.20120000000000005         -1.7157826448510605E-007
  0.20230000000000004         -1.6491125620632374E-007
  0.20340000000000003         -1.5847355427922594E-007
  0.20450000000000002         -1.5221223748085322E-007
  0.20560000000000000         -1.4608436060825625E-007
  0.20670000000000005         -1.4005560444729781E-007
  0.20780000000000004         -1.3409974997102836E-007
  0.20890000000000003         -1.2819872097225016E-007
