 -0.12000000000000000          0.0000000000000000
 -0.11889999999999999          0.0000000000000000
 -0.11780000000000000          0.0000000000000000
 -0.11670000000000000          0.0000000000000000
 -0.11559999999999999          0.0000000000000000
 -0.11449999999999999          0.0000000000000000
 -0.11340000000000000          0.0000000000000000
 -0.11230000000000000         -4.6066039703279733E-021
 -0.11119999999999999         -2.9805139852572618E-020
 -0.11009999999999999         -3.5660412135537383E-020
 -0.10900000000000000          2.9813091126210784E-019
 -0.10790000000000000          1.4671326157674340E-018
 -0.10679999999999999          2.3522661224213862E-018
 -0.10569999999999999         -2.7973037676356348E-018
 -0.10460000000000000         -2.1188037830282466E-017
 -0.10349999999999999         -4.1754806772255956E-017
 -0.10239999999999999         -1.1309924710151790E-017
 -0.10130000000000000          1.3546233965968502E-016
 -0.10020000000000000          3.4153564867331386E-016
  -9.9099999999999994E-002     2.9246165667361310E-016
  -9.7999999999999990E-002    -4.0765003774763983E-016
  -9.6899999999999986E-002    -1.5692508251703512E-015
  -9.5799999999999996E-002    -1.8335908556462235E-015
  -9.4699999999999993E-002     5.1341488611588684E-016
  -9.3599999999999989E-002     4.8572799428436841E-015
  -9.2499999999999999E-002     6.2296986281596203E-015
  -9.1399999999999995E-002    -1.3095006544774131E-015
  -9.0299999999999991E-002    -1.5009838871490357E-014
  -8.9200000000000002E-002    -1.7131283709865587E-014
  -8.8099999999999984E-002     1.2233372443575061E-014
  -8.6999999999999994E-002     6.2011288844750906E-014
  -8.5899999999999990E-002     6.9371883183646371E-014
  -8.4799999999999986E-002    -3.8680426998330061E-014
  -8.3699999999999997E-002    -2.3748521595437500E-013
  -8.2599999999999993E-002    -3.2858221352127792E-013
  -8.1499999999999989E-002    -4.6594540427597267E-014
  -8.0399999999999999E-002     6.2356847116418201E-013
  -7.9299999999999995E-002     1.1740823157441183E-012
  -7.8199999999999992E-002     7.7140409945192223E-013
  -7.7100000000000002E-002    -9.3241115783210260E-013
  -7.5999999999999984E-002    -2.9434291375779464E-012
  -7.4899999999999994E-002    -3.1076972592525287E-012
  -7.3799999999999991E-002     1.1175007317079655E-013
  -7.2699999999999987E-002     5.3389684166738061E-012
  -7.1599999999999997E-002     7.9499939617533322E-012
  -7.0499999999999993E-002     3.4089840325601806E-012
  -6.9399999999999989E-002    -7.4004569833308054E-012
  -6.8300000000000000E-002    -1.5969796665626923E-011
  -6.7199999999999996E-002    -1.1530304488971410E-011
  -6.6099999999999992E-002     7.9493937474306442E-012
  -6.5000000000000002E-002     2.8737685842106231E-011
  -6.3899999999999985E-002     2.8469296364797003E-011
  -6.2799999999999995E-002    -3.3175057752993231E-012
  -6.1699999999999991E-002    -4.7621871723801945E-011
  -6.0599999999999994E-002    -6.2488736407573242E-011
  -5.9499999999999990E-002    -1.7829500029153955E-011
  -5.8399999999999994E-002     6.6615067628728042E-011
  -5.7299999999999990E-002     1.2009283845149099E-010
  -5.6199999999999986E-002     7.3678979584101967E-011
  -5.5099999999999996E-002    -6.6672507792464586E-011
  -5.3999999999999992E-002    -1.9607296342094571E-010
  -5.2899999999999989E-002    -1.8012455416105411E-010
  -5.1799999999999985E-002     1.9101843370950000E-011
  -5.0699999999999995E-002     2.6999449898035266E-010
  -4.9599999999999991E-002     3.4461125619777988E-010
  -4.8499999999999988E-002     1.1310718334156533E-010
  -4.7399999999999998E-002    -2.9738408957591389E-010
  -4.6299999999999994E-002    -5.4938115168212676E-010
  -4.5199999999999990E-002    -3.6178560147703820E-010
  -4.4099999999999986E-002     2.0425466873419396E-010
  -4.2999999999999997E-002     7.1575062543516310E-010
  -4.1899999999999993E-002     6.8960281929264511E-010
  -4.0799999999999989E-002     3.9435489596062467E-011
  -3.9699999999999985E-002    -7.5587130998755470E-010
  -3.8599999999999995E-002    -9.8747465759885245E-010
  -3.7499999999999992E-002    -3.4162159212591803E-010
  -3.6399999999999988E-002     7.2613870472082453E-010
  -3.5299999999999984E-002     1.2768099910687170E-009
  -3.4199999999999994E-002     6.8808614361870468E-010
  -3.3099999999999991E-002    -6.9836991745120258E-010
  -3.1999999999999987E-002    -1.7248630301835988E-009
  -3.0899999999999997E-002    -1.3577817759014010E-009
  -2.9799999999999993E-002     3.3410535449363010E-010
  -2.8699999999999989E-002     2.0707078274284640E-009
  -2.7599999999999986E-002     2.3463697651493476E-009
  -2.6499999999999996E-002     7.4619199708081396E-010
  -2.5399999999999992E-002    -1.5719842094696901E-009
  -2.4299999999999988E-002    -2.7554831749654340E-009
  -2.3199999999999985E-002    -1.8232587661870525E-009
  -2.2099999999999995E-002     4.4012329891707225E-010
  -2.0999999999999991E-002     2.1131116856309973E-009
  -1.9899999999999987E-002     1.8030253956524689E-009
  -1.8799999999999983E-002    -1.1124436788412240E-010
  -1.7699999999999994E-002    -1.8009205238200821E-009
  -1.6599999999999990E-002    -1.6256579415951933E-009
  -1.5499999999999986E-002     3.7276709496936178E-010
  -1.4399999999999996E-002     2.4803918918792078E-009
  -1.3299999999999992E-002     2.8218776204624874E-009
  -1.2199999999999989E-002     9.9707364586976155E-010
  -1.1099999999999985E-002    -1.6277783565499249E-009
  -9.9999999999999950E-003    -3.1741209660651748E-009
  -8.8999999999999913E-003    -2.8270803476004858E-009
  -7.7999999999999875E-003    -1.2924494807720066E-009
  -6.6999999999999837E-003     1.4414439086785080E-010
  -5.5999999999999939E-003     8.7596452313931650E-010
  -4.4999999999999901E-003     1.2734592269580958E-009
  -3.3999999999999864E-003     1.8615372576746836E-009
  -2.2999999999999826E-003     2.4408080001592225E-009
  -1.1999999999999927E-003     2.2325743476159232E-009
  -9.9999999999988987E-005     9.0807938946113609E-010
   1.0000000000000148E-003    -7.4768113922374368E-010
   2.1000000000000185E-003    -1.4898822175979376E-009
   3.2000000000000084E-003    -1.0374880954344690E-009
   4.3000000000000121E-003    -6.3460192656350500E-010
   5.4000000000000159E-003    -1.8049857164470495E-009
   6.5000000000000058E-003    -4.3267989191519973E-009
   7.6000000000000234E-003    -5.6640478973690733E-009
   8.7000000000000133E-003    -2.9943503232487956E-009
   9.8000000000000032E-003     3.6688725391087473E-009
   1.0900000000000021E-002     1.0342509959571089E-008
   1.2000000000000011E-002     1.1617864004165313E-008
   1.3100000000000001E-002     5.1447148763372752E-009
   1.4200000000000018E-002    -5.9226148430013836E-009
   1.5300000000000008E-002    -1.5088339466728939E-008
   1.6400000000000026E-002    -1.7744810065778438E-008
   1.7500000000000016E-002    -1.4883992704994853E-008
   1.8600000000000005E-002    -1.1831782664728507E-008
   1.9700000000000023E-002    -1.3079129779214327E-008
   2.0800000000000013E-002    -1.8041564686654965E-008
   2.1900000000000003E-002    -2.1857060161778463E-008
   2.3000000000000020E-002    -2.0604284500791437E-008
   2.4100000000000010E-002    -1.6008515402177181E-008
   2.5200000000000000E-002    -1.5004811615426661E-008
   2.6300000000000018E-002    -2.4295454537082151E-008
   2.7400000000000008E-002    -4.4773138085929531E-008
   2.8500000000000025E-002    -7.0841643662333809E-008
   2.9600000000000015E-002    -9.5110813447263354E-008
   3.0700000000000005E-002    -1.1408837963244878E-007
   3.1800000000000023E-002    -1.2996062537240505E-007
   3.2900000000000013E-002    -1.4762923683520057E-007
   3.4000000000000002E-002    -1.7061886126157333E-007
   3.5100000000000020E-002    -1.9990604016584257E-007
   3.6200000000000010E-002    -2.3605296917139640E-007
   3.7300000000000028E-002    -2.8140112817709451E-007
   3.8400000000000017E-002    -3.3938928822863090E-007
   3.9500000000000007E-002    -4.1178728338309156E-007
   4.0600000000000025E-002    -4.9743829322324018E-007
   4.1700000000000015E-002    -5.9460722923176945E-007
   4.2800000000000005E-002    -7.0471338631250546E-007
   4.3900000000000022E-002    -8.3301625863896334E-007
   4.5000000000000012E-002    -9.8469320164440433E-007
   4.6100000000000002E-002    -1.1600708376136026E-006
   4.7200000000000020E-002    -1.3546796253649518E-006
   4.8300000000000010E-002    -1.5654693470423808E-006
   4.9400000000000027E-002    -1.7977959032577928E-006
   5.0500000000000017E-002    -2.0657666937040631E-006
   5.1600000000000007E-002    -2.3841989786888007E-006
   5.2700000000000025E-002    -2.7588482680585003E-006
   5.3800000000000014E-002    -3.1842018870520405E-006
   5.4900000000000004E-002    -3.6515921237878501E-006
   5.6000000000000022E-002    -4.1604334910516627E-006
   5.7100000000000012E-002    -4.7218591134878807E-006
   5.8200000000000002E-002    -5.3509725148614962E-006
   5.9300000000000019E-002    -6.0550046327989548E-006
   6.0400000000000009E-002    -6.8289709815871902E-006
   6.1500000000000027E-002    -7.6633414209936745E-006
   6.2600000000000017E-002    -8.5563951870426536E-006
   6.3700000000000007E-002    -9.5190625870600343E-006
   6.4800000000000024E-002    -1.0567227946012281E-005
   6.5900000000000014E-002    -1.1708677448041271E-005
   6.7000000000000004E-002    -1.2937020073877648E-005
   6.8100000000000022E-002    -1.4237895811675116E-005
   6.9200000000000012E-002    -1.5600682672811672E-005
   7.0300000000000029E-002    -1.7024043700075708E-005
   7.1400000000000019E-002    -1.8510550944483839E-005
   7.2500000000000009E-002    -2.0057001165696420E-005
   7.3600000000000027E-002    -2.1650907001458108E-005
   7.4700000000000016E-002    -2.3276104911928996E-005
   7.5800000000000006E-002    -2.4920092982938513E-005
   7.6900000000000024E-002    -2.6573841751087457E-005
   7.8000000000000014E-002    -2.8223750632605515E-005
   7.9100000000000004E-002    -2.9845106837456115E-005
   8.0200000000000021E-002    -3.1405765184899792E-005
   8.1300000000000011E-002    -3.2877756893867627E-005
   8.2400000000000029E-002    -3.4244563721586019E-005
   8.3500000000000019E-002    -3.5494973417371511E-005
   8.4600000000000009E-002    -3.6608391383197159E-005
   8.5700000000000026E-002    -3.7546786188613623E-005
   8.6800000000000016E-002    -3.8263311580521986E-005
   8.7900000000000006E-002    -3.8720747397746891E-005
   8.9000000000000024E-002    -3.8901573134353384E-005
   9.0100000000000013E-002    -3.8798443711129948E-005
   9.1200000000000003E-002    -3.8393598515540361E-005
   9.2300000000000021E-002    -3.7648569559678435E-005
   9.3400000000000011E-002    -3.6516234104055911E-005
   9.4500000000000028E-002    -3.4964847145602107E-005
   9.5600000000000018E-002    -3.2990610634442419E-005
   9.6700000000000008E-002    -3.0605442589148879E-005
   9.7800000000000026E-002    -2.7812433472718112E-005
   9.8900000000000016E-002    -2.4594703063485213E-005
  0.10000000000000001         -2.0930570826749317E-005
  0.10110000000000002         -1.6821197277749889E-005
  0.10220000000000001         -1.2301905371714383E-005
  0.10330000000000003         -7.4241083893866744E-006
  0.10440000000000002         -2.2252011149248574E-006
  0.10550000000000001          3.2833474961080356E-006
  0.10660000000000003          9.0958092187065631E-006
  0.10770000000000002          1.5178907233348582E-005
  0.10880000000000001          2.1459667550516315E-005
  0.10990000000000003          2.7847980163642205E-005
  0.11100000000000002          3.4271586628165096E-005
  0.11210000000000001          4.0687871660338715E-005
  0.11320000000000002          4.7060297220014036E-005
  0.11430000000000001          5.3324412874644622E-005
  0.11540000000000003          5.9381156461313367E-005
  0.11650000000000002          6.5128406276926398E-005
  0.11760000000000001          7.0501097070518881E-005
  0.11870000000000003          7.5477852078620344E-005
  0.11980000000000002          8.0045043432619423E-005
  0.12090000000000001          8.4153594798408449E-005
  0.12200000000000003          8.7714528490323573E-005
  0.12310000000000001          9.0642097347881645E-005
  0.12420000000000003          9.2904178018216044E-005
  0.12530000000000002          9.4529386842623353E-005
  0.12640000000000001          9.5562259957659990E-005
  0.12750000000000003          9.6011397545225918E-005
  0.12860000000000002          9.5844625320751220E-005
  0.12970000000000001          9.5038842118810862E-005
  0.13080000000000003          9.3635389930568635E-005
  0.13190000000000002          9.1743204393424094E-005
  0.13300000000000001          8.9483262854628265E-005
  0.13410000000000000          8.6928936070762575E-005
  0.13520000000000004          8.4103878180030733E-005
  0.13630000000000003          8.1041813245974481E-005
  0.13740000000000002          7.7848497312515974E-005
  0.13850000000000001          7.4699935794342309E-005
  0.13960000000000000          7.1774069510865957E-005
  0.14070000000000005          6.9182075094431639E-005
  0.14180000000000004          6.6968997998628765E-005
  0.14290000000000003          6.5185267885681242E-005
  0.14400000000000002          6.3956998928915709E-005
  0.14510000000000001          6.3480852986685932E-005
  0.14620000000000000          6.3942730776034296E-005
  0.14730000000000004          6.5438063757028431E-005
  0.14840000000000003          6.7972549004480243E-005
  0.14950000000000002          7.1542795922141522E-005
  0.15060000000000001          7.6214950240682811E-005
  0.15170000000000000          8.2118065620306879E-005
  0.15280000000000005          8.9355678937863559E-005
  0.15390000000000004          9.7922449640464038E-005
  0.15500000000000003          1.0771046800073236E-004
  0.15610000000000002          1.1860080121550709E-004
  0.15720000000000001          1.3054626469966024E-004
  0.15830000000000000          1.4355748135130852E-004
  0.15940000000000004          1.5759997768327594E-004
  0.16050000000000003          1.7250348173547536E-004
  0.16160000000000002          1.8797560187522322E-004
  0.16270000000000001          2.0370946731418371E-004
  0.16380000000000000          2.1947956702206284E-004
  0.16490000000000005          2.3512715415563434E-004
  0.16600000000000004          2.5044823996722698E-004
  0.16710000000000003          2.6509596500545740E-004
  0.16820000000000002          2.7859827969223261E-004
  0.16930000000000001          2.9047625139355659E-004
  0.17040000000000000          3.0034637893550098E-004
  0.17150000000000004          3.0790665186941624E-004
  0.17260000000000003          3.1282086274586618E-004
  0.17370000000000002          3.1462375773116946E-004
  0.17480000000000001          3.1275066430680454E-004
  0.17590000000000000          3.0667043756693602E-004
  0.17700000000000005          2.9599678236991167E-004
  0.17810000000000004          2.8046889929100871E-004
  0.17920000000000003          2.5982543593272567E-004
  0.18030000000000002          2.3370716371573508E-004
  0.18140000000000001          2.0169722847640514E-004
  0.18250000000000000          1.6347230121027678E-004
  0.18360000000000004          1.1892363545484841E-004
  0.18470000000000003          6.8136949266772717E-005
  0.18580000000000002          1.1259334314672742E-005
  0.18690000000000001         -5.1607097702799365E-005
  0.18800000000000000         -1.2036810221616179E-004
  0.18910000000000005         -1.9478538888506591E-004
  0.19020000000000004         -2.7435855008661747E-004
  0.19130000000000003         -3.5835275775752962E-004
  0.19240000000000002         -4.4594242353923619E-004
  0.19350000000000001         -5.3632550407201052E-004
  0.19460000000000005         -6.2869436806067824E-004
  0.19570000000000004         -7.2209519566968083E-004
  0.19680000000000003         -8.1532396143302321E-004
  0.19790000000000002         -9.0697739506140351E-004
  0.19900000000000001         -9.9561992101371288E-004
  0.20010000000000000         -1.0799148585647345E-003
  0.20120000000000005         -1.1586056789383292E-003
  0.20230000000000004         -1.2303835246711969E-003
  0.20340000000000003         -1.2937959982082248E-003
  0.20450000000000002         -1.3473132858052850E-003
  0.20560000000000000         -1.3895111624151468E-003
  0.20670000000000005         -1.4192154631018639E-003
  0.20780000000000004         -1.4354910235852003E-003
  0.20890000000000003         -1.4375132741406560E-003
