 -0.12000000000000000          0.0000000000000000
 -0.11889999999999999          0.0000000000000000
 -0.11780000000000000          0.0000000000000000
 -0.11670000000000000         -3.2996955862119037E-013
 -0.11559999999999999         -5.2482376083906601E-012
 -0.11449999999999999         -2.4658858288617580E-011
 -0.11340000000000000         -5.2609878259390896E-011
 -0.11230000000000000         -2.9032097906278587E-011
 -0.11119999999999999          1.3646773988629235E-010
 -0.11009999999999999          4.1542191908661152E-010
 -0.10900000000000000          5.1799725619972037E-010
 -0.10790000000000000          5.4524305209691093E-011
 -0.10679999999999999         -9.3912655430017367E-010
 -0.10569999999999999         -1.6412081693673031E-009
 -0.10460000000000000         -9.8115637836571068E-010
 -0.10349999999999999          1.0318493837147003E-009
 -0.10239999999999999          2.5953985627324982E-009
 -0.10130000000000000          1.4810267456866200E-009
 -0.10020000000000000         -2.1228858670951922E-009
  -9.9099999999999994E-002    -4.3643804126247687E-009
  -9.7999999999999990E-002    -7.4188472032332697E-010
  -9.6899999999999986E-002     8.2188122974002908E-009
  -9.5799999999999996E-002     1.4564961681173827E-008
  -9.4699999999999993E-002     8.5116944603669253E-009
  -9.3599999999999989E-002    -1.0967292851660204E-008
  -9.2499999999999999E-002    -3.0859172994723849E-008
  -9.1399999999999995E-002    -3.2294387608544639E-008
  -9.0299999999999991E-002    -7.8972064443405543E-009
  -8.9200000000000002E-002     2.7603995533809211E-008
  -8.8099999999999984E-002     4.6616428051038383E-008
  -8.6999999999999994E-002     3.2830158147589827E-008
  -8.5899999999999990E-002    -1.6992116602665419E-009
  -8.4799999999999986E-002    -2.5457515206994685E-008
  -8.3699999999999997E-002    -1.7246613026600244E-008
  -8.2599999999999993E-002     1.1220225637487147E-008
  -8.1499999999999989E-002     2.4643062701557028E-008
  -8.0399999999999999E-002    -2.4064839010407013E-010
  -7.9299999999999995E-002    -4.7184734341954027E-008
  -7.8199999999999992E-002    -7.1499108855732629E-008
  -7.7100000000000002E-002    -4.2858193438632952E-008
  -7.5999999999999984E-002     2.1548915540847702E-008
  -7.4899999999999994E-002     6.9438222283224604E-008
  -7.3799999999999991E-002     6.2958150692793424E-008
  -7.2699999999999987E-002     1.6931069879433380E-008
  -7.1599999999999997E-002    -1.4852409968568736E-008
  -7.0499999999999993E-002     5.6818527660595919E-009
  -6.9399999999999989E-002     6.0284662595222471E-008
  -6.8300000000000000E-002     9.1537827984211617E-008
  -6.7199999999999996E-002     6.2544451395751821E-008
  -6.6099999999999992E-002    -2.4828554767708511E-009
  -6.5000000000000002E-002    -4.1160138408713465E-008
  -6.3899999999999985E-002    -1.7309336186599467E-008
  -6.2799999999999995E-002     4.1781763826520546E-008
  -6.1699999999999991E-002     7.7669710663030855E-008
  -6.0599999999999994E-002     6.9998577600927092E-008
  -5.9499999999999990E-002     6.5801117443697876E-008
  -5.8399999999999994E-002     1.3075748483970528E-007
  -5.7299999999999990E-002     2.7005310698768881E-007
  -5.6199999999999986E-002     4.0713689486437943E-007
  -5.5099999999999996E-002     4.5376526713880594E-007
  -5.3999999999999992E-002     4.0569599946138624E-007
  -5.2899999999999989E-002     3.6131490332991234E-007
  -5.1799999999999985E-002     4.3334577526366047E-007
  -5.0699999999999995E-002     6.3754714574315585E-007
  -4.9599999999999991E-002     8.7576574969716603E-007
  -4.8499999999999988E-002     1.0393097227279213E-006
  -4.7399999999999998E-002     1.1305874068057165E-006
  -4.6299999999999994E-002     1.2727425655612024E-006
  -4.5199999999999990E-002     1.5880694945735740E-006
  -4.4099999999999986E-002     2.0671720903919777E-006
  -4.2999999999999997E-002     2.5709546207508538E-006
  -4.1899999999999993E-002     2.9747245662292698E-006
  -4.0799999999999989E-002     3.3100081964221317E-006
  -3.9699999999999985E-002     3.7505330965359462E-006
  -3.8599999999999995E-002     4.4456919567892328E-006
  -3.7499999999999992E-002     5.3704488891526125E-006
  -3.6399999999999988E-002     6.3558886722603347E-006
  -3.5299999999999984E-002     7.2813495535228867E-006
  -3.4199999999999994E-002     8.2318993008811958E-006
  -3.3099999999999991E-002     9.4463130153599195E-006
  -3.1999999999999987E-002     1.1093007742601912E-005
  -3.0899999999999997E-002     1.3099959687679075E-005
  -2.9799999999999993E-002     1.5224788512568921E-005
  -2.8699999999999989E-002     1.7308477254118770E-005
  -2.7599999999999986E-002     1.9456512745819055E-005
  -2.6499999999999996E-002     2.1951405869913287E-005
  -2.5399999999999992E-002     2.4973931431304663E-005
  -2.4299999999999988E-002     2.8419091904652305E-005
  -2.3199999999999985E-002     3.2009378628572449E-005
  -2.2099999999999995E-002     3.5602490243036300E-005
  -2.0999999999999991E-002     3.9374648622469977E-005
  -1.9899999999999987E-002     4.3670905142789707E-005
  -1.8799999999999983E-002     4.8654226702637970E-005
  -1.7699999999999994E-002     5.4108986660139635E-005
  -1.6599999999999990E-002     5.9617021179292351E-005
  -1.5499999999999986E-002     6.4947475038934499E-005
  -1.4399999999999996E-002     7.0267953560687602E-005
  -1.3299999999999992E-002     7.5947871664538980E-005
  -1.2199999999999989E-002     8.2136008131783456E-005
  -1.1099999999999985E-002     8.8536748080514371E-005
  -9.9999999999999950E-003     9.4622875622007996E-005
  -8.8999999999999913E-003     1.0008151730289683E-004
  -7.7999999999999875E-003     1.0504128294996917E-004
  -6.6999999999999837E-003     1.0983764514094219E-004
  -5.5999999999999939E-003     1.1454117338871583E-004
  -4.4999999999999901E-003     1.1872530740220100E-004
  -3.3999999999999864E-003     1.2171809066785499E-004
  -2.2999999999999826E-003     1.2309181329328567E-004
  -1.1999999999999927E-003     1.2289539154153317E-004
  -9.9999999999988987E-005     1.2138663441874087E-004
   1.0000000000000148E-003     1.1853130126837641E-004
   2.1000000000000185E-003     1.1378218914614990E-004
   3.2000000000000084E-003     1.0637361265253276E-004
   4.3000000000000121E-003     9.5843657618388534E-005
   5.4000000000000159E-003     8.2258731708861887E-005
   6.5000000000000058E-003     6.5912267018575221E-005
   7.6000000000000234E-003     4.6803368604741991E-005
   8.7000000000000133E-003     2.4427677999483421E-005
   9.8000000000000032E-003    -1.9036092453461606E-006
   1.0900000000000021E-002    -3.2537267543375492E-005
   1.2000000000000011E-002    -6.7272347223479301E-005
   1.3100000000000001E-002    -1.0567356366664171E-004
   1.4200000000000018E-002    -1.4756864402443171E-004
   1.5300000000000008E-002    -1.9320694264024496E-004
   1.6400000000000026E-002    -2.4290954752359539E-004
   1.7500000000000016E-002    -2.9656686820089817E-004
   1.8600000000000005E-002    -3.5349529935047030E-004
   1.9700000000000023E-002    -4.1279365541413426E-004
   2.0800000000000013E-002    -4.7382514458149672E-004
   2.1900000000000003E-002    -5.3632474737241864E-004
   2.3000000000000020E-002    -6.0002401005476713E-004
   2.4100000000000010E-002    -6.6418509231880307E-004
   2.5200000000000000E-002    -7.2752754203975201E-004
   2.6300000000000018E-002    -7.8862323425710201E-004
   2.7400000000000008E-002    -8.4635097300633788E-004
   2.8500000000000025E-002    -8.9994684094563127E-004
   2.9600000000000015E-002    -9.4861187972128391E-004
   3.0700000000000005E-002    -9.9110021255910397E-004
   3.1800000000000023E-002    -1.0257306275889277E-003
   3.2900000000000013E-002    -1.0508254636079073E-003
   3.4000000000000002E-002    -1.0651390766724944E-003
   3.5100000000000020E-002    -1.0678551625460386E-003
   3.6200000000000010E-002    -1.0581872193142772E-003
   3.7300000000000028E-002    -1.0350327938795090E-003
   3.8400000000000017E-002    -9.9707534536719322E-004
   3.9500000000000007E-002    -9.4325694954022765E-004
   4.0600000000000025E-002    -8.7315781274810433E-004
   4.1700000000000015E-002    -7.8691192902624607E-004
   4.2800000000000005E-002    -6.8477081367745996E-004
   4.3900000000000022E-002    -5.6678551482036710E-004
   4.5000000000000012E-002    -4.3295361683703959E-004
   4.6100000000000002E-002    -2.8369505889713764E-004
   4.7200000000000020E-002    -1.2017832341371104E-004
   4.8300000000000010E-002     5.5824522860348225E-005
   4.9400000000000027E-002     2.4239263439085335E-004
   5.0500000000000017E-002     4.3774963705800474E-004
   5.1600000000000007E-002     6.4010929781943560E-004
   5.2700000000000025E-002     8.4725790657103062E-004
   5.3800000000000014E-002     1.0563302785158157E-003
   5.4900000000000004E-002     1.2640384957194328E-003
   5.6000000000000022E-002     1.4671531971544027E-003
   5.7100000000000012E-002     1.6627804143354297E-003
   5.8200000000000002E-002     1.8482067389413714E-003
   5.9300000000000019E-002     2.0205401815474033E-003
   6.0400000000000009E-002     2.1765709389001131E-003
   6.1500000000000027E-002     2.3130450863391161E-003
   6.2600000000000017E-002     2.4271123111248016E-003
   6.3700000000000007E-002     2.5165427941828966E-003
   6.4800000000000024E-002     2.5795619003474712E-003
   6.5900000000000014E-002     2.6145409792661667E-003
   6.7000000000000004E-002     2.6199189014732838E-003
   6.8100000000000022E-002     2.5944628287106752E-003
   6.9200000000000012E-002     2.5376183912158012E-003
   7.0300000000000029E-002     2.4496181868016720E-003
   7.1400000000000019E-002     2.3312747944146395E-003
   7.2500000000000009E-002     2.1837048698216677E-003
   7.3600000000000027E-002     2.0082797855138779E-003
   7.4700000000000016E-002     1.8068271456286311E-003
   7.5800000000000006E-002     1.5818376559764147E-003
   7.6900000000000024E-002     1.3364197220653296E-003
   7.8000000000000014E-002     1.0740138823166490E-003
   7.9100000000000004E-002     7.9813401680439711E-004
   8.0200000000000021E-002     5.1235180580988526E-004
   8.1300000000000011E-002     2.2046199592296034E-004
   8.2400000000000029E-002    -7.3431096097920090E-005
   8.3500000000000019E-002    -3.6507711047306657E-004
   8.4600000000000009E-002    -6.5037701278924942E-004
   8.5700000000000026E-002    -9.2556403251364827E-004
   8.6800000000000016E-002    -1.1871483875438571E-003
   8.7900000000000006E-002    -1.4317639870569110E-003
   8.9000000000000024E-002    -1.6561590600758791E-003
   9.0100000000000013E-002    -1.8574079731479287E-003
   9.1200000000000003E-002    -2.0331756677478552E-003
   9.2300000000000021E-002    -2.1817900706082582E-003
   9.3400000000000011E-002    -2.3020782973617315E-003
   9.4500000000000028E-002    -2.3931658361107111E-003
   9.5600000000000018E-002    -2.4544738698750734E-003
   9.6700000000000008E-002    -2.4859253317117691E-003
   9.7800000000000026E-002    -2.4881293065845966E-003
   9.8900000000000016E-002    -2.4623228237032890E-003
  0.10000000000000001         -2.4100977461785078E-003
  0.10110000000000002         -2.3331679403781891E-003
  0.10220000000000001         -2.2333834785968065E-003
  0.10330000000000003         -2.1129320375621319E-003
  0.10440000000000002         -1.9744636956602335E-003
  0.10550000000000001         -1.8209478585049510E-003
  0.10660000000000003         -1.6553546302020550E-003
  0.10770000000000002         -1.4804414240643382E-003
  0.10880000000000001         -1.2988125672563910E-003
  0.10990000000000003         -1.1131371138617396E-003
  0.11100000000000002         -9.2624145327135921E-004
  0.11210000000000001         -7.4092572322115302E-004
  0.11320000000000002         -5.5965280625969172E-004
  0.11430000000000001         -3.8439748459495604E-004
  0.11540000000000003         -2.1678290795534849E-004
  0.11650000000000002         -5.8340294344816357E-005
  0.11760000000000001          8.9399458374828100E-005
  0.11870000000000003          2.2508390247821808E-004
  0.11980000000000002          3.4780491841956973E-004
  0.12090000000000001          4.5717094326391816E-004
  0.12200000000000003          5.5310130119323730E-004
  0.12310000000000001          6.3554896041750908E-004
  0.12420000000000003          7.0442352443933487E-004
  0.12530000000000002          7.5977778760716319E-004
  0.12640000000000001          8.0204859841614962E-004
  0.12750000000000003          8.3207793068140745E-004
  0.12860000000000002          8.5086963372305036E-004
  0.12970000000000001          8.5930683417245746E-004
  0.13080000000000003          8.5809279698878527E-004
  0.13190000000000002          8.4795011207461357E-004
  0.13300000000000001          8.2984654000028968E-004
  0.13410000000000000          8.0499832984060049E-004
  0.13520000000000004          7.7463313937187195E-004
  0.13630000000000003          7.3974084807559848E-004
  0.13740000000000002          7.0104666519910097E-004
  0.13850000000000001          6.5921258646994829E-004
  0.13960000000000000          6.1504810582846403E-004
  0.14070000000000005          5.6951015722006559E-004
  0.14180000000000004          5.2349473116919398E-004
  0.14290000000000003          4.7763195470906794E-004
  0.14400000000000002          4.3228408321738243E-004
  0.14510000000000001          3.8773799315094948E-004
  0.14620000000000000          3.4439319279044867E-004
  0.14730000000000004          3.0276415054686368E-004
  0.14840000000000003          2.6330800028517842E-004
  0.14950000000000002          2.2625818382948637E-004
  0.15060000000000001          1.9162621174473315E-004
  0.15170000000000000          1.5935863484628499E-004
  0.15280000000000005          1.2949011579621583E-004
  0.15390000000000004          1.0215337533736601E-004
  0.15500000000000003          7.7457523730117828E-005
  0.15610000000000002          5.5369997426168993E-005
  0.15720000000000001          3.5718527215067297E-005
  0.15830000000000000          1.8301263480680063E-005
  0.15940000000000004          2.9918398922745837E-006
  0.16050000000000003         -1.0254950211674441E-005
  0.16160000000000002         -2.1485899196704850E-005
  0.16270000000000001         -3.0829403840471059E-005
  0.16380000000000000         -3.8497717468999326E-005
  0.16490000000000005         -4.4717984565068036E-005
  0.16600000000000004         -4.9660819058772177E-005
  0.16710000000000003         -5.3425868827616796E-005
  0.16820000000000002         -5.6084882089635357E-005
  0.16930000000000001         -5.7736218877835199E-005
  0.17040000000000000         -5.8526071370579302E-005
  0.17150000000000004         -5.8625577366910875E-005
  0.17260000000000003         -5.8186866226606071E-005
  0.17370000000000002         -5.7310746342409402E-005
  0.17480000000000001         -5.6046355894068256E-005
  0.17590000000000000         -5.4422875109594315E-005
  0.17700000000000005         -5.2491268434096128E-005
  0.17810000000000004         -5.0343263865215704E-005
  0.17920000000000003         -4.8088018957059830E-005
  0.18030000000000002         -4.5800654334016144E-005
  0.18140000000000001         -4.3488162191351876E-005
  0.18250000000000000         -4.1111889004241675E-005
  0.18360000000000004         -3.8655569369439036E-005
  0.18470000000000003         -3.6177785659674555E-005
  0.18580000000000002         -3.3791631722124293E-005
  0.18690000000000001         -3.1580548238707706E-005
  0.18800000000000000         -2.9528378945542499E-005
  0.18910000000000005         -2.7538901122170500E-005
  0.19020000000000004         -2.5536808607284911E-005
  0.19130000000000003         -2.3555603547720239E-005
  0.19240000000000002         -2.1719921278418042E-005
  0.19350000000000001         -2.0129884433117695E-005
  0.19460000000000005         -1.8757886209641583E-005
  0.19570000000000004         -1.7465325072407722E-005
  0.19680000000000003         -1.6132536984514445E-005
  0.19790000000000002         -1.4778419426875189E-005
  0.19900000000000001         -1.3548718925449066E-005
  0.20010000000000000         -1.2578653695527464E-005
  0.20120000000000005         -1.1862523933814373E-005
  0.20230000000000004         -1.1260310202487744E-005
  0.20340000000000003         -1.0636258593876846E-005
  0.20450000000000002         -9.9913122539874166E-006
  0.20560000000000000         -9.4558872660854831E-006
  0.20670000000000005         -9.1495721790124662E-006
  0.20780000000000004         -9.0491366790956818E-006
  0.20890000000000003         -8.9985933300340548E-006
