 -0.12000000000000000          0.0000000000000000
 -0.11889999999999999          35.706722259521484
 -0.11780000000000000          79.301856994628906
 -0.11670000000000000          97.262695312500000
 -0.11559999999999999          86.300941467285156
 -0.11449999999999999          77.587913513183594
 -0.11340000000000000          104.81197357177734
 -0.11230000000000000          169.70286560058594
 -0.11119999999999999          241.36053466796875
 -0.11009999999999999          290.19461059570312
 -0.10900000000000000          320.89544677734375
 -0.10790000000000000          369.87606811523438
 -0.10679999999999999          469.95065307617188
 -0.10569999999999999          619.39038085937500
 -0.10460000000000000          787.82482910156250
 -0.10349999999999999          952.73577880859375
 -0.10239999999999999          1128.2470703125000
 -0.10130000000000000          1356.1895751953125
 -0.10020000000000000          1669.1546630859375
  -9.9099999999999994E-002     2064.6513671875000
  -9.7999999999999990E-002     2517.6867675781250
  -9.6899999999999986E-002     3018.6391601562500
  -9.5799999999999996E-002     3596.7563476562500
  -9.4699999999999993E-002     4304.7963867187500
  -9.3599999999999989E-002     5181.1464843750000
  -9.2499999999999999E-002     6229.3398437500000
  -9.1399999999999995E-002     7436.5258789062500
  -9.0299999999999991E-002     8811.6845703125000
  -8.9200000000000002E-002     10403.853515625000
  -8.8099999999999984E-002     12281.861328125000
  -8.6999999999999994E-002     14497.301757812500
  -8.5899999999999990E-002     17069.769531250000
  -8.4799999999999986E-002     20009.630859375000
  -8.3699999999999997E-002     23354.181640625000
  -8.2599999999999993E-002     27179.371093750000
  -8.1499999999999989E-002     31575.113281250000
  -8.0399999999999999E-002     36610.562500000000
  -7.9299999999999995E-002     42325.566406250000
  -7.8199999999999992E-002     48756.882812500000
  -7.7100000000000002E-002     55970.937500000000
  -7.5999999999999984E-002     64068.433593750000
  -7.4899999999999994E-002     73155.828125000000
  -7.3799999999999991E-002     83313.281250000000
  -7.2699999999999987E-002     94591.695312500000
  -7.1599999999999997E-002     107040.50000000000
  -7.0499999999999993E-002     120735.20312500000
  -6.9399999999999989E-002     135774.48437500000
  -6.8300000000000000E-002     152248.57812500000
  -6.7199999999999996E-002     170211.17187500000
  -6.6099999999999992E-002     189681.76562500000
  -6.5000000000000002E-002     210673.90625000000
  -6.3899999999999985E-002     233216.59375000000
  -6.2799999999999995E-002     257343.85937500000
  -6.1699999999999991E-002     283061.03125000000
  -6.0599999999999994E-002     310321.09375000000
  -5.9499999999999990E-002     339033.15625000000
  -5.8399999999999994E-002     369090.50000000000
  -5.7299999999999990E-002     400386.53125000000
  -5.6199999999999986E-002     432799.12500000000
  -5.5099999999999996E-002     466157.46875000000
  -5.3999999999999992E-002     500225.25000000000
  -5.2899999999999989E-002     534714.81250000000
  -5.1799999999999985E-002     569317.43750000000
  -5.0699999999999995E-002     603715.68750000000
  -4.9599999999999991E-002     637565.62500000000
  -4.8499999999999988E-002     670468.56250000000
  -4.7399999999999998E-002     701963.06250000000
  -4.6299999999999994E-002     731547.18750000000
  -4.5199999999999990E-002     758711.62500000000
  -4.4099999999999986E-002     782951.50000000000
  -4.2999999999999997E-002     803750.18750000000
  -4.1899999999999993E-002     820557.75000000000
  -4.0799999999999989E-002     832794.31250000000
  -3.9699999999999985E-002     839880.81250000000
  -3.8599999999999995E-002     841273.18750000000
  -3.7499999999999992E-002     836474.56250000000
  -3.6399999999999988E-002     825020.12500000000
  -3.5299999999999984E-002     806463.56250000000
  -3.4199999999999994E-002     780387.50000000000
  -3.3099999999999991E-002     746438.31250000000
  -3.1999999999999987E-002     704357.87500000000
  -3.0899999999999997E-002     653990.18750000000
  -2.9799999999999993E-002     595265.68750000000
  -2.8699999999999989E-002     528188.87500000000
  -2.7599999999999986E-002     452849.46875000000
  -2.6499999999999996E-002     369452.15625000000
  -2.5399999999999992E-002     278338.56250000000
  -2.4299999999999988E-002     179981.81250000000
  -2.3199999999999985E-002     74962.351562500000
  -2.2099999999999995E-002    -36049.972656250000
  -2.0999999999999991E-002    -152290.73437500000
  -1.9899999999999987E-002    -272883.09375000000
  -1.8799999999999983E-002    -396832.50000000000
  -1.7699999999999994E-002    -523047.34375000000
  -1.6599999999999990E-002    -650374.43750000000
  -1.5499999999999986E-002    -777624.18750000000
  -1.4399999999999996E-002    -903572.87500000000
  -1.3299999999999992E-002    -1026958.5000000000
  -1.2199999999999989E-002    -1146487.2500000000
  -1.1099999999999985E-002    -1260868.8750000000
  -9.9999999999999950E-003    -1368853.8750000000
  -8.8999999999999913E-003    -1469259.5000000000
  -7.7999999999999875E-003    -1560974.3750000000
  -6.6999999999999837E-003    -1642955.2500000000
  -5.5999999999999939E-003    -1714239.7500000000
  -4.4999999999999901E-003    -1773978.0000000000
  -3.3999999999999864E-003    -1821463.1250000000
  -2.2999999999999826E-003    -1856146.1250000000
  -1.1999999999999927E-003    -1877630.7500000000
  -9.9999999999988987E-005    -1885660.6250000000
   1.0000000000000148E-003    -1880124.7500000000
   2.1000000000000185E-003    -1861074.5000000000
   3.2000000000000084E-003    -1828738.0000000000
   4.3000000000000121E-003    -1783517.2500000000
   5.4000000000000159E-003    -1725962.1250000000
   6.5000000000000058E-003    -1656749.0000000000
   7.6000000000000234E-003    -1576672.2500000000
   8.7000000000000133E-003    -1486648.0000000000
   9.8000000000000032E-003    -1387710.5000000000
   1.0900000000000021E-002    -1280991.7500000000
   1.2000000000000011E-002    -1167688.5000000000
   1.3100000000000001E-002    -1049031.3750000000
   1.4200000000000018E-002    -926273.12500000000
   1.5300000000000008E-002    -800684.50000000000
   1.6400000000000026E-002    -673545.81250000000
   1.7500000000000016E-002    -546121.37500000000
   1.8600000000000005E-002    -419629.18750000000
   1.9700000000000023E-002    -295216.56250000000
   2.0800000000000013E-002    -173953.75000000000
   2.1900000000000003E-002    -56835.773437500000
   2.3000000000000020E-002     55222.171875000000
   2.4100000000000010E-002     161401.12500000000
   2.5200000000000000E-002     260998.06250000000
   2.6300000000000018E-002     353434.71875000000
   2.7400000000000008E-002     438251.37500000000
   2.8500000000000025E-002     515095.62500000000
   2.9600000000000015E-002     583716.93750000000
   3.0700000000000005E-002     643972.93750000000
   3.1800000000000023E-002     695834.18750000000
   3.2900000000000013E-002     739380.56250000000
   3.4000000000000002E-002     774784.18750000000
   3.5100000000000020E-002     802292.25000000000
   3.6200000000000010E-002     822216.87500000000
   3.7300000000000028E-002     834933.93750000000
   3.8400000000000017E-002     840881.31250000000
   3.9500000000000007E-002     840548.00000000000
   4.0600000000000025E-002     834455.06250000000
   4.1700000000000015E-002     823139.31250000000
   4.2800000000000005E-002     807146.50000000000
   4.3900000000000022E-002     787029.37500000000
   4.5000000000000012E-002     763346.12500000000
   4.6100000000000002E-002     736649.25000000000
   4.7200000000000020E-002     707471.62500000000
   4.8300000000000010E-002     676316.87500000000
   4.9400000000000027E-002     643658.31250000000
   5.0500000000000017E-002     609941.56250000000
   5.1600000000000007E-002     575584.93750000000
   5.2700000000000025E-002     540973.12500000000
   5.3800000000000014E-002     506449.78125000000
   5.4900000000000004E-002     472314.56250000000
   5.6000000000000022E-002     438827.71875000000
   5.7100000000000012E-002     406216.21875000000
   5.8200000000000002E-002     374676.06250000000
   5.9300000000000019E-002     344369.34375000000
   6.0400000000000009E-002     315420.90625000000
   6.1500000000000027E-002     287921.25000000000
   6.2600000000000017E-002     261932.89062500000
   6.3700000000000007E-002     237497.48437500000
   6.4800000000000024E-002     214637.59375000000
   6.5900000000000014E-002     193354.95312500000
   6.7000000000000004E-002     173629.70312500000
   6.8100000000000022E-002     155424.45312500000
   6.9200000000000012E-002     138690.85937500000
   7.0300000000000029E-002     123374.14062500000
   7.1400000000000019E-002     109413.42187500000
   7.2500000000000009E-002     96740.093750000000
   7.3600000000000027E-002     85278.257812500000
   7.4700000000000016E-002     74948.562500000000
   7.5800000000000006E-002     65672.632812500000
   7.6900000000000024E-002     57374.667968750000
   7.8000000000000014E-002     49979.984375000000
   7.9100000000000004E-002     43413.468750000000
   8.0200000000000021E-002     37600.644531250000
   8.1300000000000011E-002     32470.896484375000
   8.2400000000000029E-002     27959.623046875000
   8.3500000000000019E-002     24007.341796875000
   8.4600000000000009E-002     20557.195312500000
   8.5700000000000026E-002     17554.027343750000
   8.6800000000000016E-002     14946.302734375000
   8.7900000000000006E-002     12688.650390625000
   8.9000000000000024E-002     10741.929687500000
   9.0100000000000013E-002     9070.5742187500000
   9.1200000000000003E-002     7640.0180664062500
   9.2300000000000021E-002     6417.0932617187500
   9.3400000000000011E-002     5372.8603515625000
   9.4500000000000028E-002     4484.4824218750000
   9.5600000000000018E-002     3733.6193847656250
   9.6700000000000008E-002     3102.7224121093750
   9.7800000000000026E-002     2573.1057128906250
   9.8900000000000016E-002     2126.8471679687500
  0.10000000000000001          1750.3298339843750
  0.10110000000000002          1435.2509765625000
  0.10220000000000001          1175.5892333984375
  0.10330000000000003          963.52593994140625
  0.10440000000000002          788.66839599609375
  0.10550000000000001          641.44879150390625
  0.10660000000000003          516.95355224609375
  0.10770000000000002          414.78314208984375
  0.10880000000000001          334.76727294921875
  0.10990000000000003          272.97143554687500
  0.11100000000000002          222.32337951660156
  0.11210000000000001          177.28192138671875
  0.11320000000000002          137.49961853027344
  0.11430000000000001          106.34346771240234
  0.11540000000000003          85.635353088378906
  0.11650000000000002          72.180404663085938
  0.11760000000000001          59.903240203857422
  0.11870000000000003          45.416481018066406
  0.11980000000000002          31.022052764892578
  0.12090000000000001          21.749906539916992
  0.12200000000000003          19.433666229248047
  0.12310000000000001          20.157667160034180
  0.12420000000000003          17.951103210449219
  0.12530000000000002          10.909536361694336
  0.12640000000000001          3.1710822582244873
  0.12750000000000003         0.46710208058357239
  0.12860000000000002          3.8548791408538818
  0.12970000000000001          8.3357305526733398
  0.13080000000000003          7.9729657173156738
  0.13190000000000002          2.1612868309020996
  0.13300000000000001         -3.6707439422607422
  0.13410000000000000         -3.8108894824981689
  0.13520000000000004          1.5680527687072754
  0.13630000000000003          6.4391222000122070
  0.13740000000000002          5.2520160675048828
  0.13850000000000001         -1.0997858047485352
  0.13960000000000000         -6.0912923812866211
  0.14070000000000005         -4.4354987144470215
  0.14180000000000004          2.2177352905273438
  0.14290000000000003          6.8752269744873047
  0.14400000000000002          4.5302567481994629
  0.14510000000000001         -2.4819991588592529
  0.14620000000000000         -6.8438887596130371
  0.14730000000000004         -3.9449992179870605
  0.14840000000000003          3.1931746006011963
  0.14950000000000002          7.0279936790466309
  0.15060000000000001          3.4420998096466064
  0.15170000000000000         -3.8514997959136963
  0.15280000000000005         -7.1611018180847168
  0.15390000000000004         -2.9292745590209961
  0.15500000000000003          4.4517455101013184
  0.15610000000000002          7.2095999717712402
  0.15720000000000001          2.3854787349700928
  0.15830000000000000         -4.9910774230957031
  0.15940000000000004         -7.1487231254577637
  0.16050000000000003         -1.7611894607543945
  0.16160000000000002          5.5551624298095703
  0.16270000000000001          7.1079344749450684
  0.16380000000000000          1.2180469036102295
  0.16490000000000005         -5.9851136207580566
  0.16600000000000004         -6.9777836799621582
  0.16710000000000003        -0.73567134141921997
  0.16820000000000002          6.1949896812438965
  0.16930000000000001          6.5789170265197754
  0.17040000000000000          8.5561439394950867E-002
  0.17150000000000004         -6.3924460411071777
  0.17260000000000003         -6.0191745758056641
  0.17370000000000002         0.78262209892272949
  0.17480000000000001          6.7911214828491211
  0.17590000000000000          5.6117320060729980
  0.17700000000000005         -1.5711510181427002
  0.17810000000000004         -7.2270197868347168
  0.17920000000000003         -5.3936090469360352
  0.18030000000000002          2.0565278530120850
  0.18140000000000001          7.3782854080200195
  0.18250000000000000          5.0665593147277832
  0.18360000000000004         -2.4067091941833496
  0.18470000000000003         -7.2286634445190430
  0.18580000000000002         -4.4444842338562012
  0.18690000000000001          2.9021437168121338
  0.18800000000000000          7.0432033538818359
  0.18910000000000005          3.6737532615661621
  0.19020000000000004         -3.5695774555206299
  0.19130000000000003         -7.0018887519836426
  0.19240000000000002         -3.0007009506225586
  0.19350000000000001          4.2098498344421387
  0.19460000000000005          7.0389962196350098
  0.19570000000000004          2.5133645534515381
  0.19680000000000003         -4.6309084892272949
  0.19790000000000002         -6.9496960639953613
  0.19900000000000001         -2.0844006538391113
  0.20010000000000000          4.8286952972412109
  0.20120000000000005          6.5980005264282227
  0.20230000000000004          1.4968066215515137
  0.20340000000000003         -5.0162944793701172
  0.20450000000000002         -6.1036639213562012
  0.20560000000000000        -0.71843838691711426
  0.20670000000000005          5.3771829605102539
  0.20780000000000004          5.7359309196472168
  0.20890000000000003         -1.8347718287259340E-003
