 -0.12000000000000000          0.0000000000000000
 -0.11889999999999999          0.0000000000000000
 -0.11780000000000000          0.0000000000000000
 -0.11670000000000000          0.0000000000000000
 -0.11559999999999999          0.0000000000000000
 -0.11449999999999999          0.0000000000000000
 -0.11340000000000000          0.0000000000000000
 -0.11230000000000000          0.0000000000000000
 -0.11119999999999999          0.0000000000000000
 -0.11009999999999999          0.0000000000000000
 -0.10900000000000000          0.0000000000000000
 -0.10790000000000000          1.0202132976928088E-035
 -0.10679999999999999          1.0276835157939590E-029
 -0.10569999999999999          1.2415702386899185E-028
 -0.10460000000000000          5.6109566332116494E-028
 -0.10349999999999999          3.1097381736675785E-028
 -0.10239999999999999         -8.9939364547769072E-027
 -0.10130000000000000         -4.9154132545499195E-026
 -0.10020000000000000         -1.1484725165892595E-025
  -9.9099999999999994E-002     8.4308153390814788E-027
  -9.7999999999999990E-002     9.9618252440589060E-025
  -9.6899999999999986E-002     3.5033853170585211E-024
  -9.5799999999999996E-002     5.2802834620161771E-024
  -9.4699999999999993E-002    -4.0281229694370546E-024
  -9.3599999999999989E-002    -4.1868069948016019E-023
  -9.2499999999999999E-002    -1.0527589856067038E-022
  -9.1399999999999995E-002    -1.0599653877480788E-022
  -9.0299999999999991E-002     1.7350415008709912E-022
  -8.9200000000000002E-002     9.2666150103862105E-022
  -8.8099999999999984E-002     1.7906168147526839E-021
  -8.6999999999999994E-002     1.1603297247168728E-021
  -8.5899999999999990E-002    -3.5364180502047531E-021
  -8.4799999999999986E-002    -1.2927025132200997E-020
  -8.3699999999999997E-002    -2.0084019589795671E-020
  -8.2599999999999993E-002    -7.2022389752793375E-021
  -8.1499999999999989E-002     4.4848831315004448E-020
  -8.0399999999999999E-002     1.2648108553818639E-019
  -7.9299999999999995E-002     1.6260875455341393E-019
  -7.8199999999999992E-002     1.7331929915107794E-020
  -7.7100000000000002E-002    -3.9962736828964802E-019
  -7.5999999999999984E-002    -9.2792273256070778E-019
  -7.4899999999999994E-002    -1.0079153370952249E-018
  -7.3799999999999991E-002     1.2001012915436648E-019
  -7.2699999999999987E-002     2.6727599390920476E-018
  -7.1599999999999997E-002     5.3333776939724293E-018
  -7.0499999999999993E-002     4.9977946553627287E-018
  -6.9399999999999989E-002    -1.5509485524907478E-018
  -6.8300000000000000E-002    -1.3942627187310038E-017
  -6.7199999999999996E-002    -2.4767122609346309E-017
  -6.6099999999999992E-002    -2.0652954544356614E-017
  -6.5000000000000002E-002     8.9596514726211971E-018
  -6.3899999999999985E-002     5.7974726706012258E-017
  -6.2799999999999995E-002     9.5193784542284743E-017
  -6.1699999999999991E-002     7.4545867527858577E-017
  -6.0599999999999994E-002    -3.1877846741899178E-017
  -5.9499999999999990E-002    -1.9387512136577066E-016
  -5.8399999999999994E-002    -3.0966677518669966E-016
  -5.7299999999999990E-002    -2.4818517987782189E-016
  -5.6199999999999986E-002     5.7651894656545063E-017
  -5.5099999999999996E-002     5.1871090667903515E-016
  -5.3999999999999992E-002     8.7410226736397566E-016
  -5.2899999999999989E-002     7.9829297740339339E-016
  -5.1799999999999985E-002     1.0170811641627055E-016
  -5.0699999999999995E-002    -1.0770615788610323E-015
  -4.9599999999999991E-002    -2.2079762419590721E-015
  -4.8499999999999988E-002    -2.5099047358978933E-015
  -4.7399999999999998E-002    -1.2943472350510337E-015
  -4.6299999999999994E-002     1.5604453882880507E-015
  -4.5199999999999990E-002     5.1664342630972949E-015
  -4.4099999999999986E-002     7.5082126998441030E-015
  -4.2999999999999997E-002     6.0423539984682823E-015
  -4.1899999999999993E-002    -7.7375882690485019E-016
  -4.0799999999999989E-002    -1.1475759917529450E-014
  -3.9699999999999985E-002    -2.0503740307160900E-014
  -3.8599999999999995E-002    -1.9823189991623538E-014
  -3.7499999999999992E-002    -3.9086136298307084E-015
  -3.6399999999999988E-002     2.4014473339029584E-014
  -3.5299999999999984E-002     4.9281583046172084E-014
  -3.4199999999999994E-002     5.1287004699564209E-014
  -3.3099999999999991E-002     1.7032863563592321E-014
  -3.1999999999999987E-002    -4.4780721015005853E-014
  -3.0899999999999997E-002    -1.0089816487738115E-013
  -2.9799999999999993E-002    -1.0919566574736639E-013
  -2.8699999999999989E-002    -4.7242652769386578E-014
  -2.7599999999999986E-002     6.4951834871911779E-014
  -2.6499999999999996E-002     1.6784727633386426E-013
  -2.5399999999999992E-002     1.9504460980340754E-013
  -2.4299999999999988E-002     1.1645744861076696E-013
  -2.3199999999999985E-002    -3.9119562759504581E-014
  -2.2099999999999995E-002    -2.0006354429016882E-013
  -2.0999999999999991E-002    -2.9399700447567401E-013
  -1.9899999999999987E-002    -2.8149661421283945E-013
  -1.8799999999999983E-002    -1.5733071854866221E-013
  -1.7699999999999994E-002     6.8066300480066483E-014
  -1.6599999999999990E-002     3.6759470792811777E-013
  -1.5499999999999986E-002     6.5786894161423692E-013
  -1.4399999999999996E-002     7.6242761019515437E-013
  -1.3299999999999992E-002     4.6051449329245764E-013
  -1.2199999999999989E-002    -3.4003374660245000E-013
  -1.1099999999999985E-002    -1.3953056375234918E-012
  -9.9999999999999950E-003    -2.0839282990209318E-012
  -8.8999999999999913E-003    -1.6918724450934453E-012
  -7.7999999999999875E-003     4.7832079280458323E-014
  -6.6999999999999837E-003     2.5130572536141704E-012
  -5.5999999999999939E-003     4.2789157633782438E-012
  -4.4999999999999901E-003     3.8797649988542293E-012
  -3.3999999999999864E-003     8.7389508606969257E-013
  -2.2999999999999826E-003    -3.5337529343676399E-012
  -1.1999999999999927E-003    -6.9094755958398757E-012
  -9.9999999999988987E-005    -6.9729699445075788E-012
   1.0000000000000148E-003    -3.1108581422661929E-012
   2.1000000000000185E-003     3.0377974441497813E-012
   3.2000000000000084E-003     8.4108111100822391E-012
   4.3000000000000121E-003     1.0252127272125655E-011
   5.4000000000000159E-003     7.5748938371811292E-012
   6.5000000000000058E-003     1.4451344851687531E-012
   7.6000000000000234E-003    -5.8626744951773002E-012
   8.7000000000000133E-003    -1.1949470926642114E-011
   9.8000000000000032E-003    -1.4781254345508366E-011
   1.0900000000000021E-002    -1.2645146214851355E-011
   1.2000000000000011E-002    -4.4456235567813529E-012
   1.3100000000000001E-002     9.0310502132151527E-012
   1.4200000000000018E-002     2.3576040425465905E-011
   1.5300000000000008E-002     3.1630201929866431E-011
   1.6400000000000026E-002     2.5461358715839211E-011
   1.7500000000000016E-002     2.6469048307331544E-012
   1.8600000000000005E-002    -2.9593976574870950E-011
   1.9700000000000023E-002    -5.5289058054075468E-011
   2.0800000000000013E-002    -5.7201646197491129E-011
   2.1900000000000003E-002    -2.7606665217727588E-011
   2.3000000000000020E-002     2.4325619643605911E-011
   2.4100000000000010E-002     7.4326156340731586E-011
   2.5200000000000000E-002     9.4554107599176263E-011
   2.6300000000000018E-002     6.9038351424577371E-011
   2.7400000000000008E-002     4.1013347232277120E-012
   2.8500000000000025E-002    -7.2698798370129936E-011
   2.9600000000000015E-002    -1.2501523427577155E-010
   3.0700000000000005E-002    -1.2506277957680112E-010
   3.1800000000000023E-002    -6.7074859555482647E-011
   3.2900000000000013E-002     2.9245030008784312E-011
   3.4000000000000002E-002     1.2605347321503757E-010
   3.5100000000000020E-002     1.8172732763055421E-010
   3.6200000000000010E-002     1.6675974490176770E-010
   3.7300000000000028E-002     7.6280953775764715E-011
   3.8400000000000017E-002    -6.4474571515038548E-011
   3.9500000000000007E-002    -2.0443922943425008E-010
   4.0600000000000025E-002    -2.8189584000415380E-010
   4.1700000000000015E-002    -2.4838947565442027E-010
   4.2800000000000005E-002    -9.4063354327822424E-011
   4.3900000000000022E-002     1.3723815139865536E-010
   4.5000000000000012E-002     3.5447575430502809E-010
   4.6100000000000002E-002     4.5154552319459640E-010
   4.7200000000000020E-002     3.5616401494742433E-010
   4.8300000000000010E-002     7.4260500526612816E-011
   4.9400000000000027E-002    -2.9530303202740527E-010
   5.0500000000000017E-002    -5.9115001782572563E-010
   5.1600000000000007E-002    -6.5891014866537034E-010
   5.2700000000000025E-002    -4.3040773722857750E-010
   5.3800000000000014E-002     2.8428039436367847E-011
   5.4900000000000004E-002     5.3180515546813467E-010
   5.6000000000000022E-002     8.5152634943241878E-010
   5.7100000000000012E-002     8.2392348499382706E-010
   5.8200000000000002E-002     4.3308276409526059E-010
   5.9300000000000019E-002    -1.7361087567557831E-010
   6.0400000000000009E-002    -7.4719452847205048E-010
   6.1500000000000027E-002    -1.0456684407245120E-009
   6.2600000000000017E-002    -9.3667529288410378E-010
   6.3700000000000007E-002    -4.4900450024698557E-010
   6.4800000000000024E-002     2.4287466482419973E-010
   6.5900000000000014E-002     8.8574958478915278E-010
   6.7000000000000004E-002     1.2352189271425118E-009
   6.8100000000000022E-002     1.1363887608695222E-009
   6.9200000000000012E-002     5.8086607745977403E-010
   7.0300000000000029E-002    -2.7178528871907304E-010
   7.1400000000000019E-002    -1.1217220485804091E-009
   7.2500000000000009E-002    -1.6159430460405133E-009
   7.3600000000000027E-002    -1.4846543994195827E-009
   7.4700000000000016E-002    -6.8209571324473472E-010
   7.5800000000000006E-002     5.3938797872632449E-010
   7.6900000000000024E-002     1.6843031414026655E-009
   7.8000000000000014E-002     2.2063564308894001E-009
   7.9100000000000004E-002     1.7691414999632116E-009
   8.0200000000000021E-002     4.4964354461995981E-010
   8.1300000000000011E-002    -1.2356690115566948E-009
   8.2400000000000029E-002    -2.5262327785213756E-009
   8.3500000000000019E-002    -2.7643098921004139E-009
   8.4600000000000009E-002    -1.7319089495870799E-009
   8.5700000000000026E-002     1.9830578845692060E-010
   8.6800000000000016E-002     2.1945272266066240E-009
   8.7900000000000006E-002     3.3364901952381842E-009
   8.9000000000000024E-002     3.0533080508376997E-009
   9.0100000000000013E-002     1.4101498857499450E-009
   9.1200000000000003E-002    -9.0653612394575589E-010
   9.2300000000000021E-002    -2.9034870063782137E-009
   9.3400000000000011E-002    -3.7374636718823240E-009
   9.4500000000000028E-002    -3.0853388732765552E-009
   9.5600000000000018E-002    -1.2518656111737414E-009
   9.6700000000000008E-002     1.0137879424831908E-009
   9.7800000000000026E-002     2.8701419019228069E-009
   9.8900000000000016E-002     3.7137903863282418E-009
  0.10000000000000001          3.3454707892843771E-009
  0.10110000000000002          1.9477695012426466E-009
  0.10220000000000001         -4.6375139839405222E-011
  0.10330000000000003         -2.0921004928453613E-009
  0.10440000000000002         -3.6313398954490594E-009
  0.10550000000000001         -4.1779895099125497E-009
  0.10660000000000003         -3.4373679458354900E-009
  0.10770000000000002         -1.4572029138903986E-009
  0.10880000000000001          1.2696913520571229E-009
  0.10990000000000003          3.8625609377618275E-009
  0.11100000000000002          5.3234447960903708E-009
  0.11210000000000001          4.9500559207160677E-009
  0.11320000000000002          2.7046171968692079E-009
  0.11430000000000001         -6.6814481725074870E-010
  0.11540000000000003         -3.8824472525789133E-009
  0.11650000000000002         -5.6415112581476023E-009
  0.11760000000000001         -5.2208610767934260E-009
  0.11870000000000003         -2.8163955612114933E-009
  0.11980000000000002          5.3310872383249830E-010
  0.12090000000000001          3.4280907001971173E-009
  0.12200000000000003          4.7605754893709218E-009
  0.12310000000000001          4.2002161748655453E-009
  0.12420000000000003          2.2625508133700123E-009
  0.12530000000000002         -5.1681599971820091E-011
  0.12640000000000001         -1.8136363522103238E-009
  0.12750000000000003         -2.5848607698719661E-009
  0.12860000000000002         -2.4721238389702194E-009
  0.12970000000000001         -1.8539818569252020E-009
  0.13080000000000003         -1.0273680794981033E-009
  0.13190000000000002         -5.1743841850138139E-011
  0.13300000000000001          1.1046574766027106E-009
  0.13410000000000000          2.2752946193804746E-009
  0.13520000000000004          2.9519031663483020E-009
  0.13630000000000003          2.4959820876802041E-009
  0.13740000000000002          6.1839977583133532E-010
  0.13850000000000001         -2.2020456569293856E-009
  0.13960000000000000         -4.7177564077571787E-009
  0.14070000000000005         -5.4620010736528002E-009
  0.14180000000000004         -3.5745344462156936E-009
  0.14290000000000003          5.4728205300946797E-010
  0.14400000000000002          5.1983750637418780E-009
  0.14510000000000001          8.0709154914870851E-009
  0.14620000000000000          7.4209141054382144E-009
  0.14730000000000004          3.0945732643061774E-009
  0.14840000000000003         -3.2009197514781818E-009
  0.14950000000000002         -8.6113010056010353E-009
  0.15060000000000001         -1.0517541504384553E-008
  0.15170000000000000         -7.8986364115962715E-009
  0.15280000000000005         -1.9327444089611845E-009
  0.15390000000000004          4.5560830663760044E-009
  0.15500000000000003          8.5657534398819735E-009
  0.15610000000000002          8.4772295849688817E-009
  0.15720000000000001          4.7967874117205156E-009
  0.15830000000000000         -3.0276706142196019E-010
  0.15940000000000004         -4.3069667832185132E-009
  0.16050000000000003         -5.7061861902241162E-009
  0.16160000000000002         -4.5802459602839463E-009
  0.16270000000000001         -2.2154731382784121E-009
  0.16380000000000000         -1.0334063466066468E-010
  0.16490000000000005          9.6105579050487222E-010
  0.16600000000000004          1.1108743924737041E-009
  0.16710000000000003          9.7572672164147889E-010
  0.16820000000000002          1.0202371170109359E-009
  0.16930000000000001          1.1691232426613851E-009
  0.17040000000000000          9.7659691444818009E-010
  0.17150000000000004          1.1077233574852130E-010
  0.17260000000000003         -1.2274550265090056E-009
  0.17370000000000002         -2.2549950795536233E-009
  0.17480000000000001         -2.0502222142226856E-009
  0.17590000000000000         -2.2579120517729478E-010
  0.17700000000000005          2.6371753669707232E-009
  0.17810000000000004          5.1286415114759620E-009
  0.17920000000000003          5.6989470920143503E-009
  0.18030000000000002          3.5985014967820916E-009
  0.18140000000000001         -5.2530441108089576E-010
  0.18250000000000000         -4.8080051051613282E-009
  0.18360000000000004         -7.0703292109897120E-009
  0.18470000000000003         -5.9928781936946507E-009
  0.18580000000000002         -1.9053769673149645E-009
  0.18690000000000001          3.3667486576405281E-009
  0.18800000000000000          7.5198967053324850E-009
  0.18910000000000005          8.9377660827949512E-009
  0.19020000000000004          7.3433472635997532E-009
  0.19130000000000003          3.6009883963572520E-009
  0.19240000000000002         -9.7936037057877456E-010
  0.19350000000000001         -5.1837325543147017E-009
  0.19460000000000005         -7.9821713683259077E-009
  0.19570000000000004         -8.3680946616482288E-009
  0.19680000000000003         -5.5129607545723047E-009
  0.19790000000000002          5.4692506079589975E-010
  0.19900000000000001          8.1286204434150022E-009
  0.20010000000000000          1.3934871034848584E-008
  0.20120000000000005          1.4312836249530392E-008
  0.20230000000000004          7.3025647751023826E-009
  0.20340000000000003         -5.5823394795595505E-009
  0.20450000000000002         -1.9195324441056982E-008
  0.20560000000000000         -2.6670344155377279E-008
  0.20670000000000005         -2.2768592344846184E-008
  0.20780000000000004         -7.0196026769053788E-009
  0.20890000000000003          1.5138642339707076E-008
