 -0.12000000000000000          0.0000000000000000
 -0.11889999999999999          0.0000000000000000
 -0.11780000000000000          0.0000000000000000
 -0.11670000000000000          0.0000000000000000
 -0.11559999999999999          0.0000000000000000
 -0.11449999999999999          0.0000000000000000
 -0.11340000000000000          0.0000000000000000
 -0.11230000000000000          0.0000000000000000
 -0.11119999999999999         -4.0308927389613761E-023
 -0.11009999999999999          5.2097383922754303E-022
 -0.10900000000000000          1.4798426756254889E-021
 -0.10790000000000000         -9.1463460593262330E-021
 -0.10679999999999999         -3.3562837198467759E-020
 -0.10569999999999999          5.8855354611568422E-020
 -0.10460000000000000          4.3532969844896138E-019
 -0.10349999999999999          2.5491473091230420E-019
 -0.10239999999999999         -2.9219902848348874E-018
 -0.10130000000000000         -7.4845907442727486E-018
 -0.10020000000000000          3.5353422275011198E-018
  -9.9099999999999994E-002     5.0052298510167229E-017
  -9.7999999999999990E-002     8.1654704034253599E-017
  -9.6899999999999986E-002    -8.1975630259589473E-017
  -9.5799999999999996E-002    -5.3762520533078288E-016
  -9.4699999999999993E-002    -7.1502635643562506E-016
  -9.3599999999999989E-002     7.7215433474451373E-016
  -9.2499999999999999E-002     4.2709539958753640E-015
  -9.1399999999999995E-002     5.5011503436331460E-015
  -9.0299999999999991E-002    -4.2898428305991349E-015
  -8.9200000000000002E-002    -2.6692686486162222E-014
  -8.8099999999999984E-002    -3.7207985580404654E-014
  -8.6999999999999994E-002     1.2020506287666478E-014
  -8.5899999999999990E-002     1.3368758953590659E-013
  -8.4799999999999986E-002     2.1546528667162890E-013
  -8.3699999999999997E-002     2.7443787869942289E-014
  -8.2599999999999993E-002    -5.3167398868930738E-013
  -8.1499999999999989E-002    -1.0461421225821388E-012
  -8.0399999999999999E-002    -5.4915967606650185E-013
  -7.9299999999999995E-002     1.5999407744840544E-012
  -7.8199999999999992E-002     4.1978499669415026E-012
  -7.7100000000000002E-002     3.7248780448972951E-012
  -7.5999999999999984E-002    -3.0294542915920708E-012
  -7.4899999999999994E-002    -1.3674746231207013E-011
  -7.3799999999999991E-002    -1.7290426035376782E-011
  -7.2699999999999987E-002    -8.0279278233744145E-013
  -7.1599999999999997E-002     3.4781972441111364E-011
  -7.0499999999999993E-002     6.1314883725849256E-011
  -6.9399999999999989E-002     3.4798924158918609E-011
  -6.8300000000000000E-002    -6.1452003208284367E-011
  -6.7199999999999996E-002    -1.7036061450426132E-010
  -6.6099999999999992E-002    -1.6889230292083113E-010
  -6.5000000000000002E-002     3.4604218795974973E-011
  -6.3899999999999985E-002     3.6350428223030917E-010
  -6.2799999999999995E-002     5.3407828159990345E-010
  -6.1699999999999991E-002     2.3423568640268400E-010
  -6.0599999999999994E-002    -5.3715798475906240E-010
  -5.9499999999999990E-002    -1.2562619833289546E-009
  -5.8399999999999994E-002    -1.1135551369889640E-009
  -5.7299999999999990E-002     2.7801877466870906E-010
  -5.6199999999999986E-002     2.2109600816833108E-009
  -5.5099999999999996E-002     3.0063307399075256E-009
  -5.3999999999999992E-002     1.2416430106299003E-009
  -5.2899999999999989E-002    -2.6404542996516511E-009
  -5.1799999999999985E-002    -5.8485869480762176E-009
  -5.0699999999999995E-002    -4.9409942803890772E-009
  -4.9599999999999991E-002     1.0266650862789106E-009
  -4.8499999999999988E-002     8.4760349849943850E-009
  -4.7399999999999998E-002     1.0941173300693663E-008
  -4.6299999999999994E-002     4.2270587030657225E-009
  -4.5199999999999990E-002    -8.6677278687830039E-009
  -4.4099999999999986E-002    -1.7833720278304099E-008
  -4.2999999999999997E-002    -1.3550301325437886E-008
  -4.1899999999999993E-002     4.3736378962933031E-009
  -4.0799999999999989E-002     2.3366510504274629E-008
  -3.9699999999999985E-002     2.6077108472577493E-008
  -3.8599999999999995E-002     5.3693818280464711E-009
  -3.7499999999999992E-002    -2.5958053484487209E-008
  -3.6399999999999988E-002    -4.1553935403726427E-008
  -3.5299999999999984E-002    -2.2475182603898247E-008
  -3.4199999999999994E-002     2.3099156365447016E-008
  -3.3099999999999991E-002     6.0236637011712446E-008
  -3.1999999999999987E-002     5.2479585122000572E-008
  -3.0899999999999997E-002    -5.2777870962472662E-009
  -2.9799999999999993E-002    -7.4558016649461933E-008
  -2.8699999999999989E-002    -9.7424653233701974E-008
  -2.7599999999999986E-002    -4.3067146293651604E-008
  -2.6499999999999996E-002     5.9927288020844571E-008
  -2.5399999999999992E-002     1.3652820030074508E-007
  -2.4299999999999988E-002     1.2004461780179554E-007
  -2.3199999999999985E-002     8.5550979633808311E-009
  -2.2099999999999995E-002    -1.2441684305031231E-007
  -2.0999999999999991E-002    -1.7979256483613426E-007
  -1.9899999999999987E-002    -1.0912703629628595E-007
  -1.8799999999999983E-002     4.2610061257164489E-008
  -1.7699999999999994E-002     1.6541508784939651E-007
  -1.6599999999999990E-002     1.6659085133596818E-007
  -1.5499999999999986E-002     4.4860438919158696E-008
  -1.4399999999999996E-002    -1.0360498947648011E-007
  -1.3299999999999992E-002    -1.5673930420234683E-007
  -1.2199999999999989E-002    -6.4409448441438144E-008
  -1.1099999999999985E-002     1.0303887876261797E-007
  -9.9999999999999950E-003     1.9859581357195566E-007
  -8.8999999999999913E-003     1.1042338599054347E-007
  -7.7999999999999875E-003    -1.3717803426516184E-007
  -6.6999999999999837E-003    -3.7397524010884808E-007
  -5.5999999999999939E-003    -3.8827863590995548E-007
  -4.4999999999999901E-003    -8.6902360862950445E-008
  -3.3999999999999864E-003     4.0047706306722830E-007
  -2.2999999999999826E-003     7.6415244620875455E-007
  -1.1999999999999927E-003     7.0445474875668879E-007
  -9.9999999999988987E-005     1.5724795332516806E-007
   1.0000000000000148E-003    -6.0895268916283385E-007
   2.1000000000000185E-003    -1.1246993381064385E-006
   3.2000000000000084E-003    -1.0236511798211723E-006
   4.3000000000000121E-003    -3.1638884934181988E-007
   5.4000000000000159E-003     5.8088500054509495E-007
   6.5000000000000058E-003     1.1170581046826555E-006
   7.6000000000000234E-003     9.9740077530441340E-007
   8.7000000000000133E-003     3.9585574995726347E-007
   9.8000000000000032E-003    -1.9656825145375478E-007
   1.0900000000000021E-002    -3.8428566995207802E-007
   1.2000000000000011E-002    -2.0297906644373143E-007
   1.3100000000000001E-002    -7.5264537713337631E-008
   1.4200000000000018E-002    -3.9137137264333433E-007
   1.5300000000000008E-002    -1.0630502629283001E-006
   1.6400000000000026E-002    -1.4713046994074830E-006
   1.7500000000000016E-002    -9.2965416342849494E-007
   1.8600000000000005E-002     6.6564427925186465E-007
   1.9700000000000023E-002     2.5468839339737315E-006
   2.0800000000000013E-002     3.4656229672691552E-006
   2.1900000000000003E-002     2.5505412395432359E-006
   2.3000000000000020E-002     1.1869159877164748E-008
   2.4100000000000010E-002    -2.8660394946200540E-006
   2.5200000000000000E-002    -4.4930238800588995E-006
   2.6300000000000018E-002    -3.9824781197239645E-006
   2.7400000000000008E-002    -1.6951456700553535E-006
   2.8500000000000025E-002     1.0529037126616458E-006
   2.9600000000000015E-002     2.8900071811222006E-006
   3.0700000000000005E-002     3.2526352242712164E-006
   3.1800000000000023E-002     2.6217478534817928E-006
   3.2900000000000013E-002     1.9971903384430334E-006
   3.4000000000000002E-002     2.0059376311110100E-006
   3.5100000000000020E-002     2.2951910523261176E-006
   3.6200000000000010E-002     1.6871343859747867E-006
   3.7300000000000028E-002    -9.2690532937922399E-007
   3.8400000000000017E-002    -5.5082091421354562E-006
   3.9500000000000007E-002    -1.0396230209153146E-005
   4.0600000000000025E-002    -1.2949490155733656E-005
   4.1700000000000015E-002    -1.1106039892183617E-005
   4.2800000000000005E-002    -4.9372915782441851E-006
   4.3900000000000022E-002     2.9357522635109490E-006
   4.5000000000000012E-002     8.5797792053199373E-006
   4.6100000000000002E-002     9.0141438704449683E-006
   4.7200000000000020E-002     4.0156096474674996E-006
   4.8300000000000010E-002    -3.8555499486392364E-006
   4.9400000000000027E-002    -1.1094881301687565E-005
   5.0500000000000017E-002    -1.5623965737177059E-005
   5.1600000000000007E-002    -1.7900076272781007E-005
   5.2700000000000025E-002    -1.9955148673034273E-005
   5.3800000000000014E-002    -2.3250337108038366E-005
   5.4900000000000004E-002    -2.7239322662353516E-005
   5.6000000000000022E-002    -2.9949029340059496E-005
   5.7100000000000012E-002    -3.0139763111947104E-005
   5.8200000000000002E-002    -2.9176613679737784E-005
   5.9300000000000019E-002    -3.0877636163495481E-005
   6.0400000000000009E-002    -3.9244314393727109E-005
   6.1500000000000027E-002    -5.5739848903613165E-005
   6.2600000000000017E-002    -7.8191063948906958E-005
   6.3700000000000007E-002    -1.0212995402980596E-004
   6.4800000000000024E-002    -1.2355131912045181E-004
   6.5900000000000014E-002    -1.4113927318248898E-004
   6.7000000000000004E-002    -1.5662905934732407E-004
   6.8100000000000022E-002    -1.7344226944260299E-004
   6.9200000000000012E-002    -1.9481385243125260E-004
   7.0300000000000029E-002    -2.2261311823967844E-004
   7.1400000000000019E-002    -2.5726848980411887E-004
   7.2500000000000009E-002    -2.9841734794899821E-004
   7.3600000000000027E-002    -3.4567492548376322E-004
   7.4700000000000016E-002    -3.9903787546791136E-004
   7.5800000000000006E-002    -4.5877014053985476E-004
   7.6900000000000024E-002    -5.2482954924926162E-004
   7.8000000000000014E-002    -5.9625774156302214E-004
   7.9100000000000004E-002    -6.7113997647538781E-004
   8.0200000000000021E-002    -7.4757169932126999E-004
   8.1300000000000011E-002    -8.2527066115289927E-004
   8.2400000000000029E-002    -9.0652168728411198E-004
   8.3500000000000019E-002    -9.9516462069004774E-004
   8.4600000000000009E-002    -1.0937899351119995E-003
   8.5700000000000026E-002    -1.2010347563773394E-003
   8.6800000000000016E-002    -1.3113960158079863E-003
   8.7900000000000006E-002    -1.4183731982484460E-003
   8.9000000000000024E-002    -1.5187438111752272E-003
   9.0100000000000013E-002    -1.6144965775310993E-003
   9.1200000000000003E-002    -1.7102373531088233E-003
   9.2300000000000021E-002    -1.8079027067869902E-003
   9.3400000000000011E-002    -1.9028661772608757E-003
   9.4500000000000028E-002    -1.9851624965667725E-003
   9.5600000000000018E-002    -2.0447829738259315E-003
   9.6700000000000008E-002    -2.0769790280610323E-003
   9.7800000000000026E-002    -2.0830424036830664E-003
   9.8900000000000016E-002    -2.0660376176238060E-003
  0.10000000000000001         -2.0250943489372730E-003
  0.10110000000000002         -1.9532211590558290E-003
  0.10220000000000001         -1.8403066787868738E-003
  0.10330000000000003         -1.6787046333774924E-003
  0.10440000000000002         -1.4663463225588202E-003
  0.10550000000000001         -1.2058266438543797E-003
  0.10660000000000003         -9.0047100093215704E-004
  0.10770000000000002         -5.5030646035447717E-004
  0.10880000000000001         -1.5167686797212809E-004
  0.10990000000000003          3.0119399889372289E-004
  0.11100000000000002          8.1373349530622363E-004
  0.11210000000000001          1.3889438705518842E-003
  0.11320000000000002          2.0257784053683281E-003
  0.11430000000000001          2.7182474732398987E-003
  0.11540000000000003          3.4560265485197306E-003
  0.11650000000000002          4.2264037765562534E-003
  0.11760000000000001          5.0174263305962086E-003
  0.11870000000000003          5.8195991441607475E-003
  0.11980000000000002          6.6247885115444660E-003
  0.12090000000000001          7.4233599007129669E-003
  0.12200000000000003          8.2019558176398277E-003
  0.12310000000000001          8.9447805657982826E-003
  0.12420000000000003          9.6380393952131271E-003
  0.12530000000000002          1.0271705687046051E-002
  0.12640000000000001          1.0836468078196049E-002
  0.12750000000000003          1.1319044977426529E-002
  0.12860000000000002          1.1697457171976566E-002
  0.12970000000000001          1.1944128200411797E-002
  0.13080000000000003          1.2034899555146694E-002
  0.13190000000000002          1.1957434937357903E-002
  0.13300000000000001          1.1711458675563335E-002
  0.13410000000000000          1.1301687918603420E-002
  0.13520000000000004          1.0728816501796246E-002
  0.13630000000000003          9.9862348288297653E-003
  0.13740000000000002          9.0655442327260971E-003
  0.13850000000000001          7.9650981351733208E-003
  0.13960000000000000          6.6938702948391438E-003
  0.14070000000000005          5.2673062309622765E-003
  0.14180000000000004          3.7008079234510660E-003
  0.14290000000000003          2.0069351885467768E-003
  0.14400000000000002          1.9948999397456646E-004
  0.14510000000000001         -1.6997646307572722E-003
  0.14620000000000000         -3.6594704724848270E-003
  0.14730000000000004         -5.6438758037984371E-003
  0.14840000000000003         -7.6191723346710205E-003
  0.14950000000000002         -9.5565579831600189E-003
  0.15060000000000001         -1.1429609730839729E-002
  0.15170000000000000         -1.3210820965468884E-002
  0.15280000000000005         -1.4870519749820232E-002
  0.15390000000000004         -1.6380432993173599E-002
  0.15500000000000003         -1.7717076465487480E-002
  0.15610000000000002         -1.8859498202800751E-002
  0.15720000000000001         -1.9788008183240891E-002
  0.15830000000000000         -2.0481832325458527E-002
  0.15940000000000004         -2.0923968404531479E-002
  0.16050000000000003         -2.1106848493218422E-002
  0.16160000000000002         -2.1033514291048050E-002
  0.16270000000000001         -2.0713105797767639E-002
  0.16380000000000000         -2.0152384415268898E-002
  0.16490000000000005         -1.9355302676558495E-002
  0.16600000000000004         -1.8329583108425140E-002
  0.16710000000000003         -1.7095560207962990E-002
  0.16820000000000002         -1.5686823055148125E-002
  0.16930000000000001         -1.4141277410089970E-002
  0.17040000000000000         -1.2489214539527893E-002
  0.17150000000000004         -1.0750792920589447E-002
  0.17260000000000003         -8.9452499523758888E-003
  0.17370000000000002         -7.1004619821906090E-003
  0.17480000000000001         -5.2557648159563541E-003
  0.17590000000000000         -3.4516814630478621E-003
  0.17700000000000005         -1.7170390347018838E-003
  0.17810000000000004         -6.5950509451795369E-005
  0.17920000000000003          1.4929034514352679E-003
  0.18030000000000002          2.9435832984745502E-003
  0.18140000000000001          4.2613637633621693E-003
  0.18250000000000000          5.4232594557106495E-003
  0.18360000000000004          6.4216284081339836E-003
  0.18470000000000003          7.2663472965359688E-003
  0.18580000000000002          7.9750102013349533E-003
  0.18690000000000001          8.5595110431313515E-003
  0.18800000000000000          9.0248147025704384E-003
  0.18910000000000005          9.3757258728146553E-003
  0.19020000000000004          9.6280509606003761E-003
  0.19130000000000003          9.8081585019826889E-003
  0.19240000000000002          9.9421646445989609E-003
  0.19350000000000001          1.0047785006463528E-002
  0.19460000000000005          1.0133342817425728E-002
  0.19570000000000004          1.0209901258349419E-002
  0.19680000000000003          1.0297007858753204E-002
  0.19790000000000002          1.0420365259051323E-002
  0.19900000000000001          1.0596465319395065E-002
  0.20010000000000000          1.0827349498867989E-002
  0.20120000000000005          1.1106621474027634E-002
  0.20230000000000004          1.1431116610765457E-002
  0.20340000000000003          1.1805847287178040E-002
  0.20450000000000002          1.2235674075782299E-002
  0.20560000000000000          1.2710560113191605E-002
  0.20670000000000005          1.3203189708292484E-002
  0.20780000000000004          1.3677573762834072E-002
  0.20890000000000003          1.4109212905168533E-002
