 -0.12000000000000000          0.0000000000000000
 -0.11889999999999999          0.0000000000000000
 -0.11780000000000000          0.0000000000000000
 -0.11670000000000000          0.0000000000000000
 -0.11559999999999999          0.0000000000000000
 -0.11449999999999999          0.0000000000000000
 -0.11340000000000000          1.3229495259765905E-015
 -0.11230000000000000          1.9399390185478332E-015
 -0.11119999999999999         -2.0321426629659076E-014
 -0.11009999999999999         -7.3651019094277190E-014
 -0.10900000000000000          1.4050795134311607E-014
 -0.10790000000000000          6.1110968715968993E-013
 -0.10679999999999999          1.4075432442847777E-012
 -0.10569999999999999         -6.5304918861739178E-014
 -0.10460000000000000         -7.1341023366585083E-012
 -0.10349999999999999         -1.6020240689584659E-011
 -0.10239999999999999         -7.0628437993947037E-012
 -0.10130000000000000          4.3504144731084791E-011
 -0.10020000000000000          1.1616758943677431E-010
  -9.9099999999999994E-002     1.0313688791896757E-010
  -9.7999999999999990E-002    -1.3468189064001506E-010
  -9.6899999999999986E-002    -5.5375465324300834E-010
  -9.5799999999999996E-002    -7.1972777737627325E-010
  -9.4699999999999993E-002     1.4719407984090014E-011
  -9.3599999999999989E-002     1.7391221796002586E-009
  -9.2499999999999999E-002     3.1484865825603017E-009
  -9.1399999999999995E-002     1.8754267028243339E-009
  -9.0299999999999991E-002    -3.2519433812435631E-009
  -8.9200000000000002E-002    -9.3774206177949862E-009
  -8.8099999999999984E-002    -9.6688133055520880E-009
  -8.6999999999999994E-002     1.2555746442538113E-009
  -8.5899999999999990E-002     1.9299326581288855E-008
  -8.4799999999999986E-002     2.8705612109546233E-008
  -8.3699999999999997E-002     1.2845818631035548E-008
  -8.2599999999999993E-002    -2.6493047755591326E-008
  -8.1499999999999989E-002    -5.9540017360856124E-008
  -8.0399999999999999E-002    -4.6498886518973092E-008
  -7.9299999999999995E-002     2.2076017458515201E-008
  -7.8199999999999992E-002     9.7838338319883846E-008
  -7.7100000000000002E-002     9.9871691361380559E-008
  -7.5999999999999984E-002    -8.8933065356422803E-009
  -7.4899999999999994E-002    -1.5687048460222024E-007
  -7.3799999999999991E-002    -1.9189745614766670E-007
  -7.2699999999999987E-002    -1.5809195730295477E-008
  -7.1599999999999997E-002     2.7701653948497615E-007
  -7.0499999999999993E-002     4.1226437019759318E-007
  -6.9399999999999989E-002     1.5470374137295143E-007
  -6.8300000000000000E-002    -4.1656846860858860E-007
  -6.7199999999999996E-002    -8.5207108213580626E-007
  -6.6099999999999992E-002    -6.4472351368752352E-007
  -6.5000000000000002E-002     2.7461726403993060E-007
  -6.3899999999999985E-002     1.3051767382420959E-006
  -6.2799999999999995E-002     1.5348571196227521E-006
  -6.1699999999999991E-002     5.1799628408852217E-007
  -6.0599999999999994E-002    -1.1747104053937046E-006
  -5.9499999999999990E-002    -2.2352000996760160E-006
  -5.8399999999999994E-002    -1.6618120071143284E-006
  -5.7299999999999990E-002     2.6529707497488749E-007
  -5.6199999999999986E-002     2.0301981749068843E-006
  -5.5099999999999996E-002     2.1017299332013429E-006
  -5.3999999999999992E-002     3.6330442298995634E-007
  -5.2899999999999989E-002    -1.5967440276653059E-006
  -5.1799999999999985E-002    -1.8049895516012269E-006
  -5.0699999999999995E-002     1.9663194450486069E-007
  -4.9599999999999991E-002     2.6415063985043536E-006
  -4.8499999999999988E-002     2.9112441097823988E-006
  -4.7399999999999998E-002    -1.4479015320027851E-008
  -4.6299999999999994E-002    -4.2386150198582687E-006
  -4.5199999999999990E-002    -6.1954669945411208E-006
  -4.4099999999999986E-002    -3.6459655348158630E-006
  -4.2999999999999997E-002     2.1494804514071864E-006
  -4.1899999999999993E-002     7.1495360316473211E-006
  -4.0799999999999989E-002     7.7206432251844404E-006
  -3.9699999999999985E-002     3.5926530017613115E-006
  -3.8599999999999995E-002    -2.0242760001554043E-006
  -3.7499999999999992E-002    -5.2550490181592602E-006
  -3.6399999999999988E-002    -4.7476596591874702E-006
  -3.5299999999999984E-002    -2.3812256131355725E-006
  -3.4199999999999994E-002    -1.0160409829053303E-006
  -3.3099999999999991E-002    -1.5906248336265567E-006
  -3.1999999999999987E-002    -2.3835209503898822E-006
  -3.0899999999999997E-002    -1.0317585292801551E-006
  -2.9799999999999993E-002     2.8343431495163266E-006
  -2.8699999999999989E-002     6.9998777689774628E-006
  -2.7599999999999986E-002     8.6199997895183101E-006
  -2.6499999999999996E-002     6.6514476202446645E-006
  -2.5399999999999992E-002     2.3604877696936866E-006
  -2.4299999999999988E-002    -2.3125744519348129E-006
  -2.3199999999999985E-002    -6.4667729020596911E-006
  -2.2099999999999995E-002    -1.0088692761203002E-005
  -2.0999999999999991E-002    -1.2481258636400851E-005
  -1.9899999999999987E-002    -1.1633984286164999E-005
  -1.8799999999999983E-002    -5.9755811889777504E-006
  -1.7699999999999994E-002     3.0239034458650329E-006
  -1.6599999999999990E-002     1.0612536243571606E-005
  -1.5499999999999986E-002     1.2149514077465359E-005
  -1.4399999999999996E-002     7.4158269853806491E-006
  -1.3299999999999992E-002     1.3422220490616143E-006
  -1.2199999999999989E-002    -4.1601697375864709E-007
  -1.1099999999999985E-002     2.6568930024951159E-006
  -9.9999999999999950E-003     4.6021614252823837E-006
  -8.8999999999999913E-003    -1.5975232372510634E-006
  -7.7999999999999875E-003    -1.6344556570402773E-005
  -6.6999999999999837E-003    -3.1054547434907055E-005
  -5.5999999999999939E-003    -3.4376480471112790E-005
  -4.4999999999999901E-003    -2.2144147806106039E-005
  -3.3999999999999864E-003    -1.9824697119508063E-006
  -2.2999999999999826E-003     1.2206342944407886E-005
  -1.1999999999999927E-003     1.1407658348616897E-005
  -9.9999999999988987E-005    -1.6232135067167521E-006
   1.0000000000000148E-003    -1.5891089788054156E-005
   2.1000000000000185E-003    -2.2573811293113479E-005
   3.2000000000000084E-003    -2.2491603886011728E-005
   4.3000000000000121E-003    -2.3950615286597845E-005
   5.4000000000000159E-003    -3.3696869650162088E-005
   6.5000000000000058E-003    -5.0125519919680502E-005
   7.6000000000000234E-003    -6.5120468207175545E-005
   8.7000000000000133E-003    -7.2037822974387058E-005
   9.8000000000000032E-003    -7.1500107878826941E-005
   1.0900000000000021E-002    -6.9564615841963485E-005
   1.2000000000000011E-002    -7.1055139414974861E-005
   1.3100000000000001E-002    -7.5602401921068434E-005
   1.4200000000000018E-002    -8.0322875874125121E-005
   1.5300000000000008E-002    -8.5303145169754235E-005
   1.6400000000000026E-002    -9.4914772489582792E-005
   1.7500000000000016E-002    -1.1286557128188369E-004
   1.8600000000000005E-002    -1.3657467206941454E-004
   1.9700000000000023E-002    -1.5795667422937104E-004
   2.0800000000000013E-002    -1.7080245015679100E-004
   2.1900000000000003E-002    -1.7708828090692307E-004
   2.3000000000000020E-002    -1.8459634156899976E-004
   2.4100000000000010E-002    -1.9733041699512388E-004
   2.5200000000000000E-002    -2.0883792603856399E-004
   2.6300000000000018E-002    -2.0675425184892943E-004
   2.7400000000000008E-002    -1.8572661792861755E-004
   2.8500000000000025E-002    -1.5576825535392816E-004
   2.9600000000000015E-002    -1.3597580255011457E-004
   3.0700000000000005E-002    -1.3747139018962463E-004
   3.1800000000000023E-002    -1.5128748782446925E-004
   3.2900000000000013E-002    -1.5338697994595783E-004
   3.4000000000000002E-002    -1.2337960652077990E-004
   3.5100000000000020E-002    -6.0196365666364014E-005
   3.6200000000000010E-002     1.9709041225707686E-005
   3.7300000000000028E-002     9.9410994152995846E-005
   3.8400000000000017E-002     1.7685431521386052E-004
   3.9500000000000007E-002     2.6439566863701891E-004
   4.0600000000000025E-002     3.7426265771502853E-004
   4.1700000000000015E-002     5.0552928587424778E-004
   4.2800000000000005E-002     6.4581912010912095E-004
   4.3900000000000022E-002     7.8483909601350754E-004
   4.5000000000000012E-002     9.2506915098062648E-004
   4.6100000000000002E-002     1.0789121733979195E-003
   4.7200000000000020E-002     1.2553861597553880E-003
   4.8300000000000010E-002     1.4519337564707984E-003
   4.9400000000000027E-002     1.6593253239990668E-003
   5.0500000000000017E-002     1.8731808522717758E-003
   5.1600000000000007E-002     2.0974655635656726E-003
   5.2700000000000025E-002     2.3352436255665646E-003
   5.3800000000000014E-002     2.5769369676711417E-003
   5.4900000000000004E-002     2.8008881490680080E-003
   5.6000000000000022E-002     2.9890502337369070E-003
   5.7100000000000012E-002     3.1424621120098202E-003
   5.8200000000000002E-002     3.2782710622999223E-003
   5.9300000000000019E-002     3.4099011681977204E-003
   6.0400000000000009E-002     3.5293113905939862E-003
   6.1500000000000027E-002     3.6105662584308292E-003
   6.2600000000000017E-002     3.6329955328259465E-003
   6.3700000000000007E-002     3.5993447527293029E-003
   6.4800000000000024E-002     3.5284436307851156E-003
   6.5900000000000014E-002     3.4289446193728483E-003
   6.7000000000000004E-002     3.2792303245518127E-003
   6.8100000000000022E-002     3.0397709924730996E-003
   6.9200000000000012E-002     2.6869317516687607E-003
   7.0300000000000029E-002     2.2362011950465819E-003
   7.1400000000000019E-002     1.7294178251179440E-003
   7.2500000000000009E-002     1.1960555566476695E-003
   7.3600000000000027E-002     6.2519160565002545E-004
   7.4700000000000016E-002    -2.1871379431025876E-005
   7.5800000000000006E-002    -7.6980603625996459E-004
   7.6900000000000024E-002    -1.6003145137802326E-003
   7.8000000000000014E-002    -2.4659845512361666E-003
   7.9100000000000004E-002    -3.3323382958771958E-003
   8.0200000000000021E-002    -4.2075244709852376E-003
   8.1300000000000011E-002    -5.1257605664435943E-003
   8.2400000000000029E-002    -6.1030699871485244E-003
   8.3500000000000019E-002    -7.1082185022538630E-003
   8.4600000000000009E-002    -8.0831879749900751E-003
   8.5700000000000026E-002    -8.9922258630402499E-003
   8.6800000000000016E-002    -9.8498696461328389E-003
   8.7900000000000006E-002    -1.0696343146265486E-002
   8.9000000000000024E-002    -1.1544817127288403E-002
   9.0100000000000013E-002    -1.2354155071080820E-002
   9.1200000000000003E-002    -1.3058097101749148E-002
   9.2300000000000021E-002    -1.3623981736601622E-002
   9.3400000000000011E-002    -1.4080257155002444E-002
   9.4500000000000028E-002    -1.4483716338874235E-002
   9.5600000000000018E-002    -1.4857403934003284E-002
   9.6700000000000008E-002    -1.5162831172348458E-002
   9.7800000000000026E-002    -1.5337425284089068E-002
   9.8900000000000016E-002    -1.5359643846751684E-002
  0.10000000000000001         -1.5274672769011495E-002
  0.10110000000000002         -1.5151621773840416E-002
  0.10220000000000001         -1.5013096854092091E-002
  0.10330000000000003         -1.4812231995166722E-002
  0.10440000000000002         -1.4481839723886402E-002
  0.10550000000000001         -1.4007729478181715E-002
  0.10660000000000003         -1.3451108708978964E-002
  0.10770000000000002         -1.2890176847578309E-002
  0.10880000000000001         -1.2339578010143005E-002
  0.10990000000000003         -1.1730548925698895E-002
  0.11100000000000002         -1.0976727120579309E-002
  0.11210000000000001         -1.0062299668789855E-002
  0.11320000000000002         -9.0584475547083911E-003
  0.11430000000000001         -8.0499751493342507E-003
  0.11540000000000003         -7.0376689545816979E-003
  0.11650000000000002         -5.9201018884783730E-003
  0.11760000000000001         -4.5742020010952761E-003
  0.11870000000000003         -2.9626586474481597E-003
  0.11980000000000002         -1.1545318411665154E-003
  0.12090000000000001          7.6138228178020150E-004
  0.12200000000000003          2.7883171569557351E-003
  0.12310000000000001          5.0397492013874974E-003
  0.12420000000000003          7.6432297937577432E-003
  0.12530000000000002          1.0620448738337337E-002
  0.12640000000000001          1.3868545182050301E-002
  0.12750000000000003          1.7264118418098801E-002
  0.12860000000000002          2.0786818116904911E-002
  0.12970000000000001          2.4544563144447348E-002
  0.13080000000000003          2.8655448928477656E-002
  0.13190000000000002          3.3114101737740292E-002
  0.13300000000000001          3.7759948521855512E-002
  0.13410000000000000          4.2396064847711162E-002
  0.13520000000000004          4.6934608370069505E-002
  0.13630000000000003          5.1427405327562750E-002
  0.13740000000000002          5.5947944521908627E-002
  0.13850000000000001          6.0437839478259349E-002
  0.13960000000000000          6.4678378403192210E-002
  0.14070000000000005          6.8412564694887198E-002
  0.14180000000000004          7.1502812206751226E-002
  0.14290000000000003          7.3975637555128745E-002
  0.14400000000000002          7.5893029570586121E-002
  0.14510000000000001          7.7189862728125641E-002
  0.14620000000000000          7.7639944851405296E-002
  0.14730000000000004          7.6989643275744604E-002
  0.14840000000000003          7.5130909681326949E-002
  0.14950000000000002          7.2141677141196181E-002
  0.15060000000000001          6.8151697516447687E-002
  0.15170000000000000          6.3170999288564927E-002
  0.15280000000000005          5.7052135467534792E-002
  0.15390000000000004          4.9631822854285391E-002
  0.15500000000000003          4.0912445634607740E-002
  0.15610000000000002          3.1103577464822424E-002
  0.15720000000000001          2.0479468628766758E-002
  0.15830000000000000          9.1956350952403388E-003
  0.15940000000000004         -2.7533164247864183E-003
  0.16050000000000003         -1.5389107167721254E-002
  0.16160000000000002         -2.8573954477907816E-002
  0.16270000000000001         -4.1970834136011957E-002
  0.16380000000000000         -5.5195782333616356E-002
  0.16490000000000005         -6.8005964159970594E-002
  0.16600000000000004         -8.0338746309286627E-002
  0.16710000000000003         -9.2158794403083499E-002
  0.16820000000000002        -0.10328701138497236
  0.16930000000000001        -0.11336948722601869
  0.17040000000000000        -0.12203407287598675
  0.17150000000000004        -0.12909251451493403
  0.17260000000000003        -0.13456222414971553
  0.17370000000000002        -0.13850927352906475
  0.17480000000000001        -0.14086639881135268
  0.17590000000000000        -0.14140534400941193
  0.17700000000000005        -0.13991431891919434
  0.17810000000000004        -0.13638526201249404
  0.17920000000000003        -0.13103534281255017
  0.18030000000000002        -0.12412472069264611
  0.18140000000000001        -0.11577661335469382
  0.18250000000000000        -0.10595790296793996
  0.18360000000000004         -9.4654552638539932E-002
  0.18470000000000003         -8.2050397992142268E-002
  0.18580000000000002         -6.8527892231948287E-002
  0.18690000000000001         -5.4487507790332936E-002
  0.18800000000000000         -4.0150683373217422E-002
  0.18910000000000005         -2.5563133880499331E-002
  0.19020000000000004         -1.0770586319269740E-002
  0.19130000000000003          3.9913333021097553E-003
  0.19240000000000002          1.8310269340873372E-002
  0.19350000000000001          3.1791284680368362E-002
  0.19460000000000005          4.4251896440985851E-002
  0.19570000000000004          5.5716082453731865E-002
  0.19680000000000003          6.6224150359635747E-002
  0.19790000000000002          7.5648702681070684E-002
  0.19900000000000001          8.3707213401801303E-002
  0.20010000000000000          9.0160444378860380E-002
  0.20120000000000005          9.4991318881519779E-002
  0.20230000000000004          9.8386742174633918E-002
  0.20340000000000003         0.10054301470518993
  0.20450000000000002         0.10148316621781293
  0.20560000000000000         0.10107885301114029
  0.20670000000000005          9.9242739379414913E-002
  0.20780000000000004          9.6099324524411375E-002
  0.20890000000000003          9.1952562332161800E-002
