 -0.12000000000000000          0.0000000000000000
 -0.11889999999999999          0.0000000000000000
 -0.11780000000000000          0.0000000000000000
 -0.11670000000000000          0.0000000000000000
 -0.11559999999999999          0.0000000000000000
 -0.11449999999999999          0.0000000000000000
 -0.11340000000000000          0.0000000000000000
 -0.11230000000000000          0.0000000000000000
 -0.11119999999999999          0.0000000000000000
 -0.11009999999999999          0.0000000000000000
 -0.10900000000000000          0.0000000000000000
 -0.10790000000000000          0.0000000000000000
 -0.10679999999999999          0.0000000000000000
 -0.10569999999999999          0.0000000000000000
 -0.10460000000000000          0.0000000000000000
 -0.10349999999999999          0.0000000000000000
 -0.10239999999999999          1.5222669555561212E-039
 -0.10130000000000000          4.0006079037160785E-038
 -0.10020000000000000          3.5320286070615201E-037
  -9.9099999999999994E-002     1.2487061643946687E-036
  -9.7999999999999990E-002    -1.2451550722990908E-036
  -9.6899999999999986E-002    -3.0155396244081998E-035
  -9.5799999999999996E-002    -1.2114380752523041E-034
  -9.4699999999999993E-002    -1.3537414239408088E-034
  -9.3599999999999989E-002     7.5073364566772911E-034
  -9.2499999999999999E-002     3.9407735467867003E-033
  -9.1399999999999995E-002     7.3003812171589231E-033
  -9.0299999999999991E-002    -4.9689365784647071E-033
  -8.9200000000000002E-002    -6.2600481455300592E-032
  -8.8099999999999984E-002    -1.5293649350949588E-031
  -8.6999999999999994E-002    -8.7854402420287338E-032
  -8.5899999999999990E-002     5.2476799669578225E-031
  -8.4799999999999986E-002     1.7455015297281097E-030
  -8.3699999999999997E-002     2.0636781339985141E-030
  -8.2599999999999993E-002    -1.9756272124326563E-030
  -8.1499999999999989E-002    -1.1848914595497666E-029
  -8.0399999999999999E-002    -1.8462173590850941E-029
  -7.9299999999999995E-002    -3.5926147189520333E-031
  -7.8199999999999992E-002     5.0724715559564607E-029
  -7.7100000000000002E-002     8.2178774707116047E-029
  -7.5999999999999984E-002    -1.1501835688445628E-029
  -7.4899999999999994E-002    -2.1679959864961357E-028
  -7.3799999999999991E-002    -1.5226652511218257E-028
  -7.2699999999999987E-002     7.4469894641022361E-028
  -7.1599999999999997E-002     2.0182270554840831E-027
  -7.0499999999999993E-002     7.0220575774799834E-028
  -6.9399999999999989E-002    -7.2738599176814899E-027
  -6.8300000000000000E-002    -1.9391254919198039E-026
  -6.7199999999999996E-002    -1.6536257910382356E-026
  -6.6099999999999992E-002     3.1578154421291590E-026
  -6.5000000000000002E-002     1.2511989697432712E-025
  -6.3899999999999985E-002     1.7162394991634948E-025
  -6.2799999999999995E-002    -1.2833652199694051E-026
  -6.1699999999999991E-002    -5.2568186957827649E-025
  -6.0599999999999994E-002    -1.0489785196020041E-024
  -5.9499999999999990E-002    -7.1348919003167023E-025
  -5.8399999999999994E-002     1.3013468574881709E-024
  -5.7299999999999990E-002     4.3399222143779226E-024
  -5.6199999999999986E-002     5.1865356264701646E-024
  -5.5099999999999996E-002    -4.3460477193069637E-025
  -5.3999999999999992E-002    -1.2697047591112378E-023
  -5.2899999999999989E-002    -2.2182883828507014E-023
  -5.1799999999999985E-002    -1.2102132083744478E-023
  -5.0699999999999995E-002     2.5836786567294873E-023
  -4.9599999999999991E-002     6.9698448440045518E-023
  -4.8499999999999988E-002     6.5282954139808328E-023
  -4.7399999999999998E-002    -3.1383751952499612E-023
  -4.6299999999999994E-002    -1.8075909557313779E-022
  -4.5199999999999990E-002    -2.2925100650579756E-022
  -4.4099999999999986E-002    -1.0091655380194501E-023
  -4.2999999999999997E-002     4.3416389965887369E-022
  -4.1899999999999993E-002     7.0206358742682601E-022
  -4.0799999999999989E-002     2.4214235684875311E-022
  -3.9699999999999985E-002    -1.0202934592285438E-021
  -3.8599999999999995E-002    -2.1097514153493815E-021
  -3.7499999999999992E-002    -1.3311037471178596E-021
  -3.6399999999999988E-002     2.0903825450979262E-021
  -3.5299999999999984E-002     6.0729148920167610E-021
  -3.4199999999999994E-002     5.7952269676497284E-021
  -3.3099999999999991E-002    -2.4204229646935743E-021
  -3.1999999999999987E-002    -1.5238770377675098E-020
  -3.0899999999999997E-002    -2.0404603775948254E-020
  -2.9799999999999993E-002    -4.6718139138132816E-021
  -2.8699999999999989E-002     3.0317587935572022E-020
  -2.7599999999999986E-002     5.7779612687291746E-020
  -2.6499999999999996E-002     3.8530987355037812E-020
  -2.5399999999999992E-002    -4.1006981266479108E-020
  -2.4299999999999988E-002    -1.3283135110075598E-019
  -2.3199999999999985E-002    -1.3874004438789004E-019
  -2.2099999999999995E-002     9.8681806972266577E-021
  -2.0999999999999991E-002     2.5018827259096448E-019
  -1.9899999999999987E-002     3.6981526202535406E-019
  -1.8799999999999983E-002     1.5140034093104677E-019
  -1.7699999999999994E-002    -3.7943493310964535E-019
  -1.6599999999999990E-002    -8.2374372880665813E-019
  -1.5499999999999986E-002    -6.2462444986137532E-019
  -1.4399999999999996E-002     3.9840570007308962E-019
  -1.3299999999999992E-002     1.6085065712467548E-018
  -1.2199999999999989E-002     1.7661697809387761E-018
  -1.1099999999999985E-002     5.6499951354975141E-020
  -9.9999999999999950E-003    -2.7433595975782954E-018
  -8.8999999999999913E-003    -4.1870952029245139E-018
  -7.7999999999999875E-003    -1.8953400306483724E-018
  -6.6999999999999837E-003     3.7848939329119364E-018
  -5.5999999999999939E-003     8.6181168695041775E-018
  -4.4999999999999901E-003     6.9268249251797734E-018
  -3.3999999999999864E-003    -3.0563504725027945E-018
  -2.2999999999999826E-003    -1.5189620158707204E-017
  -1.1999999999999927E-003    -1.7814103769299125E-017
  -9.9999999999988987E-005    -3.2789766217943975E-018
   1.0000000000000148E-003     2.1951659538928145E-017
   2.1000000000000185E-003     3.7064732403749691E-017
   3.2000000000000084E-003     2.1626948135109228E-017
   4.3000000000000121E-003    -2.3016482524022757E-017
   5.4000000000000159E-003    -6.4923533542380322E-017
   6.5000000000000058E-003    -6.0340410318354714E-017
   7.6000000000000234E-003     6.8221361196744497E-018
   8.7000000000000133E-003     9.6326975659368088E-017
   9.8000000000000032E-003     1.2797448899661820E-016
   1.0900000000000021E-002     4.5657669895407755E-017
   1.2000000000000011E-002    -1.1598595523809526E-016
   1.3100000000000001E-002    -2.2890832465486972E-016
   1.4200000000000018E-002    -1.6181524194955061E-016
   1.5300000000000008E-002     9.0370189988022619E-017
   1.6400000000000026E-002     3.5210294055568290E-016
   1.7500000000000016E-002     3.7128654274509829E-016
   1.8600000000000005E-002     3.8510472060924973E-017
   1.9700000000000023E-002    -4.5288458821611446E-016
   2.0800000000000013E-002    -6.8567497074736904E-016
   2.1900000000000003E-002    -3.4493333605276728E-016
   2.3000000000000020E-002     4.4086659359289483E-016
   2.4100000000000010E-002     1.0718118804121869E-015
   2.5200000000000000E-002     8.9543336277247672E-016
   2.6300000000000018E-002    -1.8439580359948037E-016
   2.7400000000000008E-002    -1.4346845007850734E-015
   2.8500000000000025E-002    -1.7276164460328699E-015
   2.9600000000000015E-002    -4.8863864301310653E-016
   3.0700000000000005E-002     1.5888431207568168E-015
   3.1800000000000023E-002     2.8140579618726779E-015
   3.2900000000000013E-002     1.7918605069503196E-015
   3.4000000000000002E-002    -1.1854776668239649E-015
   3.5100000000000020E-002    -3.9301130200979171E-015
   3.6200000000000010E-002    -3.8607685502885757E-015
   3.7300000000000028E-002    -2.7972836919621681E-016
   3.8400000000000017E-002     4.4874268180733565E-015
   3.9500000000000007E-002     6.4428989385658959E-015
   4.0600000000000025E-002     3.1445109255849981E-015
   4.1700000000000015E-002    -3.6956098310681959E-015
   4.2800000000000005E-002    -8.7790670525865651E-015
   4.3900000000000022E-002    -7.1850459135440643E-015
   4.5000000000000012E-002     1.1031066773187995E-015
   4.6100000000000002E-002     1.0101636154890691E-014
   4.7200000000000020E-002     1.1913268528412294E-014
   4.8300000000000010E-002     3.4171464791089238E-015
   4.9400000000000027E-002    -9.9283535426731954E-015
   5.0500000000000017E-002    -1.7193444069732791E-014
   5.1600000000000007E-002    -1.0611695678804708E-014
   5.2700000000000025E-002     6.8793169945291499E-015
   5.3800000000000014E-002     2.2119784302832013E-014
   5.4900000000000004E-002     2.1326725989042651E-014
   5.6000000000000022E-002     2.0231176539679254E-015
   5.7100000000000012E-002    -2.2758519989895219E-014
   5.8200000000000002E-002    -3.3006563248619974E-014
   5.9300000000000019E-002    -1.7708521416826342E-014
   6.0400000000000009E-002     1.4340530377228954E-014
   6.1500000000000027E-002     3.8997457877960190E-014
   6.2600000000000017E-002     3.4940580024558562E-014
   6.3700000000000007E-002     1.9982593545483799E-015
   6.4800000000000024E-002    -3.5921593255277759E-014
   6.5900000000000014E-002    -4.7816070357755217E-014
   6.7000000000000004E-002    -2.0690975246085569E-014
   6.8100000000000022E-002     2.7328936978558184E-014
   6.9200000000000012E-002     5.8317710198690226E-014
   7.0300000000000029E-002     4.3722610845427570E-014
   7.1400000000000019E-002    -1.0781979794388923E-014
   7.2500000000000009E-002    -6.5764471505243977E-014
   7.3600000000000027E-002    -7.6192985297776628E-014
   7.4700000000000016E-002    -2.7250359426107297E-014
   7.5800000000000006E-002     5.0373472889686868E-014
   7.6900000000000024E-002     9.9966665804626653E-014
   7.8000000000000014E-002     8.0758472554686572E-014
   7.9100000000000004E-002     1.1643143368785793E-015
   8.0200000000000021E-002    -8.3545949563883226E-014
   8.1300000000000011E-002    -1.1023439919124328E-013
   8.2400000000000029E-002    -5.6102878283814314E-014
   8.3500000000000019E-002     4.0582883326653954E-014
   8.4600000000000009E-002     1.0555761858132770E-013
   8.5700000000000026E-002     8.3869353519408496E-014
   8.6800000000000016E-002    -1.4690173719394267E-014
   8.7900000000000006E-002    -1.1619058579853681E-013
   8.9000000000000024E-002    -1.3355581831436814E-013
   9.0100000000000013E-002    -3.4200547667333214E-014
   9.1200000000000003E-002     1.2585481159836653E-013
   9.2300000000000021E-002     2.3184739176250468E-013
   9.3400000000000011E-002     1.8960649565170906E-013
   9.4500000000000028E-002     4.4743843106306532E-016
   9.5600000000000018E-002    -2.2581840097932876E-013
   9.6700000000000008E-002    -3.3761817126720661E-013
   9.7800000000000026E-002    -2.4763914877046211E-013
   9.8900000000000016E-002    -2.6750931012714269E-015
  0.10000000000000001          2.3970352070433465E-013
  0.10110000000000002          3.1969045466428980E-013
  0.10220000000000001          1.9399275751324357E-013
  0.10330000000000003         -2.6705700300363837E-014
  0.10440000000000002         -1.5899219061536046E-013
  0.10550000000000001         -9.3301539725535593E-014
  0.10660000000000003          1.0668740467890264E-013
  0.10770000000000002          2.3946656831953794E-013
  0.10880000000000001          1.2379850020550337E-013
  0.10990000000000003         -2.3545149662428100E-013
  0.11100000000000002         -6.1066960949790472E-013
  0.11210000000000001         -6.9370350392825020E-013
  0.11320000000000002         -3.2782132043662759E-013
  0.11430000000000001          3.4328380524480118E-013
  0.11540000000000003          9.3677756524135347E-013
  0.11650000000000002          1.0782119554825220E-012
  0.11760000000000001          6.6447097390315291E-013
  0.11870000000000003         -5.4144555050421317E-014
  0.11980000000000002         -6.4373029476372245E-013
  0.12090000000000001         -7.9152515704977722E-013
  0.12200000000000003         -5.2086227041517330E-013
  0.12310000000000001         -1.5207559061862497E-013
  0.12420000000000003         -3.4794609142692334E-014
  0.12530000000000002         -2.5471354084087572E-013
  0.12640000000000001         -5.4596756803027002E-013
  0.12750000000000003         -4.9108888613633161E-013
  0.12860000000000002          1.2897228586754989E-013
  0.12970000000000001          1.0982438916617987E-012
  0.13080000000000003          1.8393984252407236E-012
  0.13190000000000002          1.7762409381880118E-012
  0.13300000000000001          7.4754682695757357E-013
  0.13410000000000000         -8.2120974517069234E-013
  0.13520000000000004         -2.1295036047030980E-012
  0.13630000000000003         -2.4764057991732980E-012
  0.13740000000000002         -1.6875564530852150E-012
  0.13850000000000001         -2.0368998371669833E-013
  0.13960000000000000          1.2326825758052218E-012
  0.14070000000000005          2.0718426974042359E-012
  0.14180000000000004          2.2737361039110171E-012
  0.14290000000000003          2.2078738576986057E-012
  0.14400000000000002          2.2065973180607212E-012
  0.14510000000000001          2.1238373473092542E-012
  0.14620000000000000          1.2844481337911939E-012
  0.14730000000000004         -1.0625414393825028E-012
  0.14840000000000003         -5.0747700312825383E-012
  0.14950000000000002         -9.9494813429745754E-012
  0.15060000000000001         -1.4228069243615860E-011
  0.15170000000000000         -1.6678734782171745E-011
  0.15280000000000005         -1.7207396965646105E-011
  0.15390000000000004         -1.7153365533539855E-011
  0.15500000000000003         -1.8708156551694444E-011
  0.15610000000000002         -2.3806248639068883E-011
  0.15720000000000001         -3.3228701040721731E-011
  0.15830000000000000         -4.6522948687899301E-011
  0.15940000000000004         -6.2754183793867213E-011
  0.16050000000000003         -8.1499161586062741E-011
  0.16160000000000002         -1.0333599947953687E-010
  0.16270000000000001         -1.2950489292062883E-010
  0.16380000000000000         -1.6109419354037868E-010
  0.16490000000000005         -1.9851183197250322E-010
  0.16600000000000004         -2.4180099589266035E-010
  0.16710000000000003         -2.9168922832667477E-010
  0.16820000000000002         -3.5063188463801964E-010
  0.16930000000000001         -4.2301875891048724E-010
  0.17040000000000000         -5.1425824709738777E-010
  0.17150000000000004         -6.2925287203086100E-010
  0.17260000000000003         -7.7125822395274213E-010
  0.17370000000000002         -9.4191665578335915E-010
  0.17480000000000001         -1.1425049795121822E-009
  0.17590000000000000         -1.3756495942374158E-009
  0.17700000000000005         -1.6464816177119701E-009
  0.17810000000000004         -1.9626151814833293E-009
  0.17920000000000003         -2.3331474530152718E-009
  0.18030000000000002         -2.7675419733697026E-009
  0.18140000000000001         -3.2752860423812535E-009
  0.18250000000000000         -3.8666065904635616E-009
  0.18360000000000004         -4.5536792114830860E-009
  0.18470000000000003         -5.3513056208487342E-009
  0.18580000000000002         -6.2763416686095752E-009
  0.18690000000000001         -7.3460797445079606E-009
  0.18800000000000000         -8.5766611590543107E-009
  0.18910000000000005         -9.9827861532730822E-009
  0.19020000000000004         -1.1579214032053642E-008
  0.19130000000000003         -1.3383310459857967E-008
  0.19240000000000002         -1.5417048970789438E-008
  0.19350000000000001         -1.7707119326360043E-008
  0.19460000000000005         -2.0282993062892274E-008
  0.19570000000000004         -2.3174230534550588E-008
  0.19680000000000003         -2.6408704556502016E-008
  0.19790000000000002         -3.0012721197181236E-008
  0.19900000000000001         -3.4012458627330489E-008
  0.20010000000000000         -3.8435135962799905E-008
  0.20120000000000005         -4.3308570951694492E-008
  0.20230000000000004         -4.8659128282224628E-008
  0.20340000000000003         -5.4509467162233705E-008
  0.20450000000000002         -6.0877717089624639E-008
  0.20560000000000000         -6.7778778145566321E-008
  0.20670000000000005         -7.5226530782401824E-008
  0.20780000000000004         -8.3235200065701065E-008
  0.20890000000000003         -9.1818179726033122E-008
