 -0.12000000000000000          0.0000000000000000
 -0.11889999999999999          0.0000000000000000
 -0.11780000000000000          0.0000000000000000
 -0.11670000000000000          0.0000000000000000
 -0.11559999999999999          0.0000000000000000
 -0.11449999999999999          0.0000000000000000
 -0.11340000000000000          0.0000000000000000
 -0.11230000000000000         -8.3756437621852834E-018
 -0.11119999999999999         -3.7439878663877191E-017
 -0.11009999999999999          2.6793931831421716E-017
 -0.10900000000000000          5.8009940777305376E-016
 -0.10790000000000000          1.5453582491897939E-015
 -0.10679999999999999          6.3975207366035228E-017
 -0.10569999999999999         -9.4268295697686605E-015
 -0.10460000000000000         -2.4010870060871964E-014
 -0.10349999999999999         -1.3383251856724770E-014
 -0.10239999999999999          6.8737584255160883E-014
 -0.10130000000000000          1.9812107412541663E-013
 -0.10020000000000000          1.7655766171992271E-013
  -9.9099999999999994E-002    -2.6578310949668116E-013
  -9.7999999999999990E-002    -1.0071472735656561E-012
  -9.6899999999999986E-002    -1.1048542723074428E-012
  -9.5799999999999996E-002     6.2423596023167272E-013
  -9.4699999999999993E-002     3.6430472354076482E-012
  -9.3599999999999989E-002     4.2548898432359650E-012
  -9.2499999999999999E-002    -1.7595831475897272E-012
  -9.1399999999999995E-002    -1.1948051922838765E-011
  -9.0299999999999991E-002    -1.2961653451937227E-011
  -8.9200000000000002E-002     9.1044801905915129E-012
  -8.8099999999999984E-002     4.4285804190469236E-011
  -8.6999999999999994E-002     4.6219503918587534E-011
  -8.5899999999999990E-002    -3.2836601493446693E-011
  -8.4799999999999986E-002    -1.6362214361187455E-010
  -8.3699999999999997E-002    -1.9784110460996374E-010
  -8.2599999999999993E-002     3.2210220601847084E-011
  -8.1499999999999989E-002     4.8049464407284859E-010
  -8.0399999999999999E-002     7.3798356314824787E-010
  -7.9299999999999995E-002     2.6295080002292082E-010
  -7.8199999999999992E-002    -9.9509300799383027E-010
  -7.7100000000000002E-002    -2.1027528607220347E-009
  -7.5999999999999984E-002    -1.5536436581697899E-009
  -7.4899999999999994E-002     1.2549747907542042E-009
  -7.3799999999999991E-002     4.5985659724578909E-009
  -7.2699999999999987E-002     4.9054675876902820E-009
  -7.1599999999999997E-002    -1.5814868858932130E-010
  -7.0499999999999993E-002    -8.0982331951418018E-009
  -6.9399999999999989E-002    -1.1555295387211117E-008
  -6.8300000000000000E-002    -4.0253209654395050E-009
  -6.7199999999999996E-002     1.2097125967613920E-008
  -6.6099999999999992E-002     2.3320508191204681E-008
  -6.5000000000000002E-002     1.4476386311912393E-008
  -6.3899999999999985E-002    -1.4964367522907196E-008
  -6.2799999999999995E-002    -4.2829817914480373E-008
  -6.1699999999999991E-002    -3.7723573598213989E-008
  -6.0599999999999994E-002     1.0692906116105405E-008
  -5.9499999999999990E-002     7.0505706162293791E-008
  -5.8399999999999994E-002     8.3029867425921111E-008
  -5.7299999999999990E-002     1.4202451659173221E-008
  -5.6199999999999986E-002    -9.8591286246119125E-008
  -5.5099999999999996E-002    -1.5659323082672927E-007
  -5.3999999999999992E-002    -7.8680329806957161E-008
  -5.2899999999999989E-002     1.0767746516648913E-007
  -5.1799999999999985E-002     2.5455236141169735E-007
  -5.0699999999999995E-002     2.0161607494628697E-007
  -4.9599999999999991E-002    -6.5949272709531215E-008
  -4.8499999999999988E-002    -3.5496722716743534E-007
  -4.7399999999999998E-002    -3.9138052443377092E-007
  -4.6299999999999994E-002    -6.6795990960599738E-008
  -4.5199999999999990E-002     4.0787875832393183E-007
  -4.4099999999999986E-002     6.2128538047545590E-007
  -4.2999999999999997E-002     3.0870725709064573E-007
  -4.1899999999999993E-002    -3.5624873362394283E-007
  -4.0799999999999989E-002    -8.2587365568542737E-007
  -3.9699999999999985E-002    -6.2013867818677681E-007
  -3.8599999999999995E-002     1.9904159387351683E-007
  -3.7499999999999992E-002     9.7523673048272030E-007
  -3.6399999999999988E-002     9.6614564881747356E-007
  -3.5299999999999984E-002     3.5075039761522930E-008
  -3.4199999999999994E-002    -1.1054819424316520E-006
  -3.3099999999999991E-002    -1.4153472420730395E-006
  -3.1999999999999987E-002    -4.5100395595909504E-007
  -3.0899999999999997E-002     1.1184242794115562E-006
  -2.9799999999999993E-002     1.9577341845433693E-006
  -2.8699999999999989E-002     1.1997248066109023E-006
  -2.7599999999999986E-002    -6.9852114847890334E-007
  -2.6499999999999996E-002    -2.2108929442765657E-006
  -2.5399999999999992E-002    -2.0039728951815050E-006
  -2.4299999999999988E-002    -1.4784322388550208E-007
  -2.3199999999999985E-002     1.8427969052936533E-006
  -2.2099999999999995E-002     2.2724432255927240E-006
  -2.0999999999999991E-002     7.6935378956477507E-007
  -1.9899999999999987E-002    -1.3331471109268023E-006
  -1.8799999999999983E-002    -2.1473433662322350E-006
  -1.7699999999999994E-002    -9.2479524482769193E-007
  -1.6599999999999990E-002     1.2434544487405219E-006
  -1.5499999999999986E-002     2.3900456653791480E-006
  -1.4399999999999996E-002     1.4419995295611443E-006
  -1.3299999999999992E-002    -8.2111665733464179E-007
  -1.2199999999999989E-002    -2.4967089302663226E-006
  -1.1099999999999985E-002    -2.2757492388336686E-006
  -9.9999999999999950E-003    -5.3578253300656797E-007
  -8.8999999999999913E-003     1.1667657418001909E-006
  -7.7999999999999875E-003     1.6234723716479493E-006
  -6.6999999999999837E-003     9.8851648999698227E-007
  -5.5999999999999939E-003     3.4206553323201661E-007
  -4.4999999999999901E-003     3.8065198282311030E-007
  -3.3999999999999864E-003     6.8858065560561954E-007
  -2.2999999999999826E-003     3.6463876540437923E-007
  -1.1999999999999927E-003    -7.4324566412542481E-007
  -9.9999999999988987E-005    -1.6649270264679217E-006
   1.0000000000000148E-003    -1.3455467069434235E-006
   2.1000000000000185E-003    -3.9098435600237735E-009
   3.2000000000000084E-003     8.2644464782788418E-007
   4.3000000000000121E-003    -9.3924327870809066E-008
   5.4000000000000159E-003    -2.0340462469903287E-006
   6.5000000000000058E-003    -2.5510692012176150E-006
   7.6000000000000234E-003     1.1970730895427550E-007
   8.7000000000000133E-003     4.7342887228296604E-006
   9.8000000000000032E-003     7.3806618274829816E-006
   1.0900000000000021E-002     4.7532234930258710E-006
   1.2000000000000011E-002    -2.4343983113794820E-006
   1.3100000000000001E-002    -9.3349635790218599E-006
   1.4200000000000018E-002    -1.0787453902594279E-005
   1.5300000000000008E-002    -5.8774994613486342E-006
   1.6400000000000026E-002     1.0475539511389798E-006
   1.7500000000000016E-002     4.1539333324180916E-006
   1.8600000000000005E-002     1.3955392432762892E-006
   1.9700000000000023E-002    -3.6634432944993023E-006
   2.0800000000000013E-002    -5.3591661526297685E-006
   2.1900000000000003E-002    -1.5780993862790638E-006
   2.3000000000000020E-002     3.8558719097636640E-006
   2.4100000000000010E-002     4.5000710997555871E-006
   2.5200000000000000E-002    -2.6751531549962237E-006
   2.6300000000000018E-002    -1.4216924682841636E-005
   2.7400000000000008E-002    -2.3015230908640660E-005
   2.8500000000000025E-002    -2.4382057745242491E-005
   2.9600000000000015E-002    -1.9743709344766103E-005
   3.0700000000000005E-002    -1.4760951671632938E-005
   3.1800000000000023E-002    -1.4097674466029275E-005
   3.2900000000000013E-002    -1.8027063561021350E-005
   3.4000000000000002E-002    -2.3772265194565989E-005
   3.5100000000000020E-002    -2.9477150746970437E-005
   3.6200000000000010E-002    -3.6244528018869460E-005
   3.7300000000000028E-002    -4.6206667320802808E-005
   3.8400000000000017E-002    -5.9226360463071615E-005
   3.9500000000000007E-002    -7.2406350227538496E-005
   4.0600000000000025E-002    -8.3322724094614387E-005
   4.1700000000000015E-002    -9.3348091468214989E-005
   4.2800000000000005E-002    -1.0684496373869479E-004
   4.3900000000000022E-002    -1.2643302034121007E-004
   4.5000000000000012E-002    -1.4934323553461581E-004
   4.6100000000000002E-002    -1.6952524310909212E-004
   4.7200000000000020E-002    -1.8430891213938594E-004
   4.8300000000000010E-002    -1.9894519937224686E-004
   4.9400000000000027E-002    -2.2346680634655058E-004
   5.0500000000000017E-002    -2.6375270681455731E-004
   5.1600000000000007E-002    -3.1521529308520257E-004
   5.2700000000000025E-002    -3.6596544669009745E-004
   5.3800000000000014E-002    -4.0740487747825682E-004
   5.4900000000000004E-002    -4.4239562703296542E-004
   5.6000000000000022E-002    -4.8277049791067839E-004
   5.7100000000000012E-002    -5.3800310706719756E-004
   5.8200000000000002E-002    -6.0583895538002253E-004
   5.9300000000000019E-002    -6.7421910353004932E-004
   6.0400000000000009E-002    -7.3299254290759563E-004
   6.1500000000000027E-002    -7.8404450323432684E-004
   6.2600000000000017E-002    -8.3969038678333163E-004
   6.3700000000000007E-002    -9.1061432613059878E-004
   6.4800000000000024E-002    -9.9514168687164783E-004
   6.5900000000000014E-002    -1.0802210308611393E-003
   6.7000000000000004E-002    -1.1531286872923374E-003
   6.8100000000000022E-002    -1.2121003819629550E-003
   6.9200000000000012E-002    -1.2656933395192027E-003
   7.0300000000000029E-002    -1.3222369598224759E-003
   7.1400000000000019E-002    -1.3805024791508913E-003
   7.2500000000000009E-002    -1.4312249841168523E-003
   7.3600000000000027E-002    -1.4667862560600042E-003
   7.4700000000000016E-002    -1.4881195966154337E-003
   7.5800000000000006E-002    -1.5009492635726929E-003
   7.6900000000000024E-002    -1.5058654826134443E-003
   7.8000000000000014E-002    -1.4939681859686971E-003
   7.9100000000000004E-002    -1.4539526309818029E-003
   8.0200000000000021E-002    -1.3836125144734979E-003
   8.1300000000000011E-002    -1.2927397619932890E-003
   8.2400000000000029E-002    -1.1923654237762094E-003
   8.3500000000000019E-002    -1.0811052052304149E-003
   8.4600000000000009E-002    -9.4328873092308640E-004
   8.5700000000000026E-002    -7.6288147829473019E-004
   8.6800000000000016E-002    -5.3989252774044871E-004
   8.7900000000000006E-002    -2.9181220452301204E-004
   8.9000000000000024E-002    -3.6963789170840755E-005
   9.0100000000000013E-002     2.2447280935011804E-004
   9.1200000000000003E-002     5.1161379087716341E-004
   9.2300000000000021E-002     8.4298581350594759E-004
   9.3400000000000011E-002     1.2158065801486373E-003
   9.4500000000000028E-002     1.6048961551859975E-003
   9.5600000000000018E-002     1.9846206996589899E-003
   9.6700000000000008E-002     2.3520451504737139E-003
   9.7800000000000026E-002     2.7261525392532349E-003
   9.8900000000000016E-002     3.1242654658854008E-003
  0.10000000000000001          3.5377924796193838E-003
  0.10110000000000002          3.9337957277894020E-003
  0.10220000000000001          4.2830980382859707E-003
  0.10330000000000003          4.5856232754886150E-003
  0.10440000000000002          4.8669353127479553E-003
  0.10550000000000001          5.1486077718436718E-003
  0.10660000000000003          5.4195048287510872E-003
  0.10770000000000002          5.6406725198030472E-003
  0.10880000000000001          5.7788919657468796E-003
  0.10990000000000003          5.8362195268273354E-003
  0.11100000000000002          5.8430656790733337E-003
  0.11210000000000001          5.8229118585586548E-003
  0.11320000000000002          5.7633202522993088E-003
  0.11430000000000001          5.6259813718497753E-003
  0.11540000000000003          5.3862757049500942E-003
  0.11650000000000002          5.0632697530090809E-003
  0.11760000000000001          4.7052502632141113E-003
  0.11870000000000003          4.3433960527181625E-003
  0.11980000000000002          3.9605950005352497E-003
  0.12090000000000001          3.5094993654638529E-003
  0.12200000000000003          2.9649210628122091E-003
  0.12310000000000001          2.3579297121614218E-003
  0.12420000000000003          1.7549530602991581E-003
  0.12530000000000002          1.1999709531664848E-003
  0.12640000000000001          6.7798024974763393E-004
  0.12750000000000003          1.3863929780200124E-004
  0.12860000000000002         -4.4186372542753816E-004
  0.12970000000000001         -1.0231932392343879E-003
  0.13080000000000003         -1.5285299159586430E-003
  0.13190000000000002         -1.9117980264127254E-003
  0.13300000000000001         -2.1971766836941242E-003
  0.13410000000000000         -2.4470554199069738E-003
  0.13520000000000004         -2.6894165202975273E-003
  0.13630000000000003         -2.8779690619558096E-003
  0.13740000000000002         -2.9280504677444696E-003
  0.13850000000000001         -2.7966015040874481E-003
  0.13960000000000000         -2.5231542531400919E-003
  0.14070000000000005         -2.1895540412515402E-003
  0.14180000000000004         -1.8342182738706470E-003
  0.14290000000000003         -1.4089326141402125E-003
  0.14400000000000002         -8.2428014138713479E-004
  0.14510000000000001         -4.1428851545788348E-005
  0.14620000000000000          8.8121189037337899E-004
  0.14730000000000004          1.8375766230747104E-003
  0.14840000000000003          2.7705780230462551E-003
  0.14950000000000002          3.7207840941846371E-003
  0.15060000000000001          4.7740447334945202E-003
  0.15170000000000000          5.9588877484202385E-003
  0.15280000000000005          7.2004096582531929E-003
  0.15390000000000004          8.3755450323224068E-003
  0.15500000000000003          9.4208596274256706E-003
  0.15610000000000002          1.0379754938185215E-002
  0.15720000000000001          1.1339277960360050E-002
  0.15830000000000000          1.2317482382059097E-002
  0.15940000000000004          1.3214328326284885E-002
  0.16050000000000003          1.3882955536246300E-002
  0.16160000000000002          1.4248168095946312E-002
  0.16270000000000001          1.4358863234519958E-002
  0.16380000000000000          1.4314063824713230E-002
  0.16490000000000005          1.4136090874671936E-002
  0.16600000000000004          1.3720444403588772E-002
  0.16710000000000003          1.2911804020404816E-002
  0.16820000000000002          1.1637874878942966E-002
  0.16930000000000001          9.9584190174937248E-003
  0.17040000000000000          7.9872598871588707E-003
  0.17150000000000004          5.7587088085711002E-003
  0.17260000000000003          3.1762076541781425E-003
  0.17370000000000002          1.0174333147006109E-004
  0.17480000000000001         -3.5073563922196627E-003
  0.17590000000000000         -7.5475610792636871E-003
  0.17700000000000005         -1.1859080754220486E-002
  0.17810000000000004         -1.6373457387089729E-002
  0.17920000000000003         -2.1160114556550980E-002
  0.18030000000000002         -2.6327647268772125E-002
  0.18140000000000001         -3.1872227787971497E-002
  0.18250000000000000         -3.7627637386322021E-002
  0.18360000000000004         -4.3369945138692856E-002
  0.18470000000000003         -4.8969481140375137E-002
  0.18580000000000002         -5.4444361478090286E-002
  0.18690000000000001         -5.9858243912458420E-002
  0.18800000000000000         -6.5161764621734619E-002
  0.18910000000000005         -7.0142410695552826E-002
  0.19020000000000004         -7.4536062777042389E-002
  0.19130000000000003         -7.8180685639381409E-002
  0.19240000000000002         -8.1073269248008728E-002
  0.19350000000000001         -8.3259604871273041E-002
  0.19460000000000005         -8.4683753550052643E-002
  0.19570000000000004         -8.5135899484157562E-002
  0.19680000000000003         -8.4370926022529602E-002
  0.19790000000000002         -8.2271702587604523E-002
  0.19900000000000001         -7.8896544873714447E-002
  0.20010000000000000         -7.4366986751556396E-002
  0.20120000000000005         -6.8707212805747986E-002
  0.20230000000000004         -6.1797849833965302E-002
  0.20340000000000003         -5.3497459739446640E-002
  0.20450000000000002         -4.3806735426187515E-002
  0.20560000000000000         -3.2916661351919174E-002
  0.20670000000000005         -2.1091172471642494E-002
  0.20780000000000004         -8.5008665919303894E-003
  0.20890000000000003          4.8239575698971748E-003
