 -0.12000000000000000          0.0000000000000000
 -0.11889999999999999          0.0000000000000000
 -0.11780000000000000          0.0000000000000000
 -0.11670000000000000          0.0000000000000000
 -0.11559999999999999          0.0000000000000000
 -0.11449999999999999          0.0000000000000000
 -0.11340000000000000         -3.7952413936884731E-019
 -0.11230000000000000         -2.0405867423582186E-018
 -0.11119999999999999         -2.8669476189245255E-018
 -0.11009999999999999          9.2111284409069020E-018
 -0.10900000000000000          5.0189954598985515E-017
 -0.10790000000000000          1.0065899331920500E-016
 -0.10679999999999999          6.0571603990850659E-017
 -0.10569999999999999         -2.0278293012066244E-016
 -0.10460000000000000         -6.5069261590486581E-016
 -0.10349999999999999         -8.7464616839523300E-016
 -0.10239999999999999         -2.7209946107770570E-016
 -0.10130000000000000          1.2627417888108925E-015
 -0.10020000000000000          2.7166936421680001E-015
  -9.9099999999999994E-002     2.4501442321283933E-015
  -9.7999999999999990E-002     1.9640976819983364E-017
  -9.6899999999999986E-002    -2.3846488917892904E-015
  -9.5799999999999996E-002    -1.4760158969621554E-015
  -9.4699999999999993E-002     2.5005971143575522E-015
  -9.3599999999999989E-002     2.7083448619235289E-015
  -9.2499999999999999E-002    -9.4229560881017564E-015
  -9.1399999999999995E-002    -3.1471722607537701E-014
  -9.0299999999999991E-002    -4.1097056042560954E-014
  -8.9200000000000002E-002    -7.0820471306742076E-015
  -8.8099999999999984E-002     7.7398977255551785E-014
  -8.6999999999999994E-002     1.6405016993286009E-013
  -8.5899999999999990E-002     1.6064009660237506E-013
  -8.4799999999999986E-002     6.9891342069538972E-017
  -8.3699999999999997E-002    -2.7278092978866853E-013
  -8.2599999999999993E-002    -4.7884683414614856E-013
  -8.1499999999999989E-002    -4.0409060646228698E-013
  -8.0399999999999999E-002     2.0998519356722504E-014
  -7.9299999999999995E-002     6.0082863163892634E-013
  -7.8199999999999992E-002     9.4875886660907022E-013
  -7.7100000000000002E-002     7.5226457008081282E-013
  -7.5999999999999984E-002     4.4166927060077167E-014
  -7.4899999999999994E-002    -7.6210121113117598E-013
  -7.3799999999999991E-002    -1.1554706844108465E-012
  -7.2699999999999987E-002    -9.3232843320636922E-013
  -7.1599999999999997E-002    -3.7264394586559022E-013
  -7.0499999999999993E-002     1.4501510682971523E-014
  -6.9399999999999989E-002    -1.2775288391907452E-016
  -6.8300000000000000E-002    -6.5558127502934398E-014
  -6.7199999999999996E-002     4.8383703727541854E-013
  -6.6099999999999992E-002     1.9214840222409471E-012
  -6.5000000000000002E-002     3.5761634539082995E-012
  -6.3899999999999985E-002     4.0324497213583100E-012
  -6.2799999999999995E-002     2.1164717114300762E-012
  -6.1699999999999991E-002    -2.0164026698357233E-012
  -6.0599999999999994E-002    -6.6077386617904235E-012
  -5.9499999999999990E-002    -9.2107285340482519E-012
  -5.8399999999999994E-002    -8.2253188635194376E-012
  -5.7299999999999990E-002    -3.9216030596475366E-012
  -5.6199999999999986E-002     1.8378644960075629E-012
  -5.5099999999999996E-002     6.9414842797382235E-012
  -5.3999999999999992E-002     1.0336780910391897E-011
  -5.2899999999999989E-002     1.2247277844656924E-011
  -5.1799999999999985E-002     1.3186737292391750E-011
  -5.0699999999999995E-002     1.2705436529258242E-011
  -4.9599999999999991E-002     9.0429582225152894E-012
  -4.8499999999999988E-002     7.7558714116412751E-014
  -4.7399999999999998E-002    -1.5172170811372842E-011
  -4.6299999999999994E-002    -3.5742738629939907E-011
  -4.5199999999999990E-002    -5.9316100642358588E-011
  -4.4099999999999986E-002    -8.3781051540831247E-011
  -4.2999999999999997E-002    -1.0860357751996000E-010
  -4.1899999999999993E-002    -1.3507411855684211E-010
  -4.0799999999999989E-002    -1.6544363101722330E-010
  -3.9699999999999985E-002    -2.0180385140733041E-010
  -3.8599999999999995E-002    -2.4566618184173705E-010
  -3.7499999999999992E-002    -2.9857000205523749E-010
  -3.6399999999999988E-002    -3.6326561203558443E-010
  -3.5299999999999984E-002    -4.4463691062367946E-010
  -3.4199999999999994E-002    -5.4970678009524228E-010
  -3.3099999999999991E-002    -6.8659156138294582E-010
  -3.1999999999999987E-002    -8.6283485911663505E-010
  -3.0899999999999997E-002    -1.0839633635128933E-009
  -2.9799999999999993E-002    -1.3532056586384827E-009
  -2.8699999999999989E-002    -1.6729293506045668E-009
  -2.7599999999999986E-002    -2.0474684170323756E-009
  -2.6499999999999996E-002    -2.4860287162197983E-009
  -2.5399999999999992E-002    -3.0040441245659634E-009
  -2.4299999999999988E-002    -3.6221881050124156E-009
  -2.3199999999999985E-002    -4.3638745950146850E-009
  -2.2099999999999995E-002    -5.2532498351353429E-009
  -2.0999999999999991E-002    -6.3152931772946406E-009
  -1.9899999999999987E-002    -7.5778041619399829E-009
  -1.8799999999999983E-002    -9.0732896751431805E-009
  -1.7699999999999994E-002    -1.0838761888009981E-008
  -1.6599999999999990E-002    -1.2913491609367424E-008
  -1.5499999999999986E-002    -1.5337073833165735E-008
  -1.4399999999999996E-002    -1.8150544178751906E-008
  -1.3299999999999992E-002    -2.1401008964971562E-008
  -1.2199999999999989E-002    -2.5147031124106057E-008
  -1.1099999999999985E-002    -2.9460849759743280E-008
  -9.9999999999999950E-003    -3.4425589490182967E-008
  -8.8999999999999913E-003    -4.0129489065065480E-008
  -7.7999999999999875E-003    -4.6661490671339581E-008
  -6.6999999999999837E-003    -5.4111151115420494E-008
  -5.5999999999999939E-003    -6.2572055981035148E-008
  -4.4999999999999901E-003    -7.2144956675400674E-008
  -3.3999999999999864E-003    -8.2937496870271028E-008
  -2.2999999999999826E-003    -9.5060734395245539E-008
  -1.1999999999999927E-003    -1.0862570576364139E-007
  -9.9999999999988987E-005    -1.2374303537398913E-007
   1.0000000000000148E-003    -1.4052545793674436E-007
   2.1000000000000185E-003    -1.5909003536762365E-007
   3.2000000000000084E-003    -1.7955676412384213E-007
   4.3000000000000121E-003    -2.0204313955218507E-007
   5.4000000000000159E-003    -2.2665739152216350E-007
   6.5000000000000058E-003    -2.5349336851831658E-007
   7.6000000000000234E-003    -2.8262820706003837E-007
   8.7000000000000133E-003    -3.1412079692926871E-007
   9.8000000000000032E-003    -3.4800939374690092E-007
   1.0900000000000021E-002    -3.8430815152423133E-007
   1.2000000000000011E-002    -4.2300388258808440E-007
   1.3100000000000001E-002    -4.6405364173551053E-007
   1.4200000000000018E-002    -5.0738259460557950E-007
   1.5300000000000008E-002    -5.5287955547099975E-007
   1.6400000000000026E-002    -6.0039059235349615E-007
   1.7500000000000016E-002    -6.4971220581354689E-007
   1.8600000000000005E-002    -7.0058837309260302E-007
   1.9700000000000023E-002    -7.5271123023411438E-007
   2.0800000000000013E-002    -8.0572408478472932E-007
   2.1900000000000003E-002    -8.5922187054164591E-007
   2.3000000000000020E-002    -9.1274853275534368E-007
   2.4100000000000010E-002    -9.6579424280206037E-007
   2.5200000000000000E-002    -1.0177959666179791E-006
   2.6300000000000018E-002    -1.0681434332582109E-006
   2.7400000000000008E-002    -1.1161862403241500E-006
   2.8500000000000025E-002    -1.1612384014369844E-006
   2.9600000000000015E-002    -1.2025790283587211E-006
   3.0700000000000005E-002    -1.2394540362947529E-006
   3.1800000000000023E-002    -1.2710835335383094E-006
   3.2900000000000013E-002    -1.2966778513145762E-006
   3.4000000000000002E-002    -1.3154569842299457E-006
   3.5100000000000020E-002    -1.3266650285004062E-006
   3.6200000000000010E-002    -1.3295789358380490E-006
   3.7300000000000028E-002    -1.3235132882982499E-006
   3.8400000000000017E-002    -1.3078281426714739E-006
   3.9500000000000007E-002    -1.2819447192668809E-006
   4.0600000000000025E-002    -1.2453624549379818E-006
   4.1700000000000015E-002    -1.1976733276241944E-006
   4.2800000000000005E-002    -1.1385679954400779E-006
   4.3900000000000022E-002    -1.0678393209673037E-006
   4.5000000000000012E-002    -9.8538816928337835E-007
   4.6100000000000002E-002    -8.9123625457430681E-007
   4.7200000000000020E-002    -7.8553978255511854E-007
   4.8300000000000010E-002    -6.6859695380115722E-007
   4.9400000000000027E-002    -5.4084512157713803E-007
   5.0500000000000017E-002    -4.0285090108226561E-007
   5.1600000000000007E-002    -2.5530064817757451E-007
   5.2700000000000025E-002    -9.8994973996009872E-008
   5.3800000000000014E-002     6.5154551975866913E-008
   5.4900000000000004E-002     2.3613301891600562E-007
   5.6000000000000022E-002     4.1283649920841986E-007
   5.7100000000000012E-002     5.9409001096354755E-007
   5.8200000000000002E-002     7.7866292258476129E-007
   5.9300000000000019E-002     9.6527969617453424E-007
   6.0400000000000009E-002     1.1526304888320570E-006
   6.1500000000000027E-002     1.3393864719546199E-006
   6.2600000000000017E-002     1.5242227391354160E-006
   6.3700000000000007E-002     1.7058438288586066E-006
   6.4800000000000024E-002     1.8830044155037900E-006
   6.5900000000000014E-002     2.0545217012113100E-006
   6.7000000000000004E-002     2.2192837150214121E-006
   6.8100000000000022E-002     2.3762584078212590E-006
   6.9200000000000012E-002     2.5245037704734889E-006
   7.0300000000000029E-002     2.6631757918948574E-006
   7.1400000000000019E-002     2.7915298232982879E-006
   7.2500000000000009E-002     2.9089126201142311E-006
   7.3600000000000027E-002     3.0147557481540803E-006
   7.4700000000000016E-002     3.1085719456313601E-006
   7.5800000000000006E-002     3.1899555779090790E-006
   7.6900000000000024E-002     3.2585817280050295E-006
   7.8000000000000014E-002     3.3141984658868196E-006
   7.9100000000000004E-002     3.3566109323145961E-006
   8.0200000000000021E-002     3.3856642858153810E-006
   8.1300000000000011E-002     3.4012316518782769E-006
   8.2400000000000029E-002     3.4032084386125804E-006
   8.3500000000000019E-002     3.3915059702848677E-006
   8.4600000000000009E-002     3.3660412555036029E-006
   8.5700000000000026E-002     3.3267235721722846E-006
   8.6800000000000016E-002     3.2734458272897782E-006
   8.7900000000000006E-002     3.2060845569503172E-006
   8.9000000000000024E-002     3.1245097034115505E-006
   9.0100000000000013E-002     3.0285962111519823E-006
   9.1200000000000003E-002     2.9182322123232949E-006
   9.2300000000000021E-002     2.7933215278607763E-006
   9.3400000000000011E-002     2.6537923076829864E-006
   9.4500000000000028E-002     2.4996115826069856E-006
   9.5600000000000018E-002     2.3308091385842572E-006
   9.6700000000000008E-002     2.1475007088156015E-006
   9.7800000000000026E-002     1.9499068457661988E-006
   9.8900000000000016E-002     1.7383659951519462E-006
  0.10000000000000001          1.5133496162888753E-006
  0.10110000000000002          1.2754802583003497E-006
  0.10220000000000001          1.0255522511215300E-006
  0.10330000000000003          7.6454853115135761E-007
  0.10440000000000002          4.9364854248777529E-007
  0.10550000000000001          2.1422852114482208E-007
  0.10660000000000003         -7.2141602913694768E-008
  0.10770000000000002         -3.6370195743984469E-007
  0.10880000000000001         -6.5850872488226360E-007
  0.10990000000000003         -9.5444681846855949E-007
  0.11100000000000002         -1.2492516816564465E-006
  0.11210000000000001         -1.5405388467115513E-006
  0.11320000000000002         -1.8258342606713758E-006
  0.11430000000000001         -2.1026075955887503E-006
  0.11540000000000003         -2.3683064682699871E-006
  0.11650000000000002         -2.6203972538496219E-006
  0.11760000000000001         -2.8564095373439645E-006
  0.11870000000000003         -3.0739809062651587E-006
  0.11980000000000002         -3.2708976505090910E-006
  0.12090000000000001         -3.4451304600224288E-006
  0.12200000000000003         -3.5948683034802677E-006
  0.12310000000000001         -3.7185520795900937E-006
  0.12420000000000003         -3.8149087231430995E-006
  0.12530000000000002         -3.8829771256131873E-006
  0.12640000000000001         -3.9221272345457031E-006
  0.12750000000000003         -3.9320730138569401E-006
  0.12860000000000002         -3.9128794924180751E-006
  0.12970000000000001         -3.8649677662760281E-006
  0.13080000000000003         -3.7891179545112453E-006
  0.13190000000000002         -3.6864553294434957E-006
  0.13300000000000001         -3.5584296256274044E-006
  0.13410000000000000         -3.4067834349115688E-006
  0.13520000000000004         -3.2335203741239947E-006
  0.13630000000000003         -3.0408734801312104E-006
  0.13740000000000002         -2.8312717859079756E-006
  0.13850000000000001         -2.6073009848914304E-006
  0.13960000000000000         -2.3716570467513054E-006
  0.14070000000000005         -2.1271002879074813E-006
  0.14180000000000004         -1.8764129663395194E-006
  0.14290000000000003         -1.6223630154854275E-006
  0.14400000000000002         -1.3676673233930769E-006
  0.14510000000000001         -1.1149527381348631E-006
  0.14620000000000000         -8.6671394683433082E-007
  0.14730000000000004         -6.2527612953998084E-007
  0.14840000000000003         -3.9276667962438839E-007
  0.14950000000000002         -1.7109640282341427E-007
  0.15060000000000001          3.8055254947271601E-008
  0.15170000000000000          2.3325554820985525E-007
  0.15280000000000005          4.1333223066430708E-007
  0.15390000000000004          5.7737941006052445E-007
  0.15500000000000003          7.2475199885956551E-007
  0.15610000000000002          8.5505246261162725E-007
  0.15720000000000001          9.6811663752303945E-007
  0.15830000000000000          1.0640027312547161E-006
  0.15940000000000004          1.1429813184804340E-006
  0.16050000000000003          1.2055190836690409E-006
  0.16160000000000002          1.2522544921011812E-006
  0.16270000000000001          1.2839700502808925E-006
  0.16380000000000000          1.3015691138207112E-006
  0.16490000000000005          1.3060592891633637E-006
  0.16600000000000004          1.2985370858586751E-006
  0.16710000000000003          1.2801659750038885E-006
  0.16820000000000002          1.2521475127868833E-006
  0.16930000000000001          1.2156908724136667E-006
  0.17040000000000000          1.1719916983565572E-006
  0.17150000000000004          1.1222208513572490E-006
  0.17260000000000003          1.0675157682271479E-006
  0.17370000000000002          1.0089678426083806E-006
  0.17480000000000001          9.4760400770608652E-007
  0.17590000000000000          8.8437144540874371E-007
  0.17700000000000005          8.2013241353705133E-007
  0.17810000000000004          7.5567038493316789E-007
  0.17920000000000003          6.9169618654994812E-007
  0.18030000000000002          6.2884691942598363E-007
  0.18140000000000001          5.6767692058200514E-007
  0.18250000000000000          5.0865020284617351E-007
  0.18360000000000004          4.5214386545921104E-007
  0.18470000000000003          3.9845969013185007E-007
  0.18580000000000002          3.4783568025886054E-007
  0.18690000000000001          3.0044853360777144E-007
  0.18800000000000000          2.5640918011048951E-007
  0.18910000000000005          2.1576191500116216E-007
  0.19020000000000004          1.7849504274635869E-007
  0.19130000000000003          1.4455990537953428E-007
  0.19240000000000002          1.1388669207690047E-007
  0.19350000000000001          8.6388418196745557E-008
  0.19460000000000005          6.1955610419770951E-008
  0.19570000000000004          4.0452398764044608E-008
  0.19680000000000003          2.1721934473361186E-008
  0.19790000000000002          5.5979478830175476E-009
  0.19900000000000001         -8.0875786068193885E-009
  0.20010000000000000         -1.9506693149651315E-008
  0.20120000000000005         -2.8842972454867621E-008
  0.20230000000000004         -3.6293418048671480E-008
  0.20340000000000003         -4.2059266291971177E-008
  0.20450000000000002         -4.6331503966711660E-008
  0.20560000000000000         -4.9282640190994458E-008
  0.20670000000000005         -5.1070184525769172E-008
  0.20780000000000004         -5.1846054560655016E-008
  0.20890000000000003         -5.1760910224628843E-008
