 -0.12000000000000000          0.0000000000000000
 -0.11889999999999999          0.0000000000000000
 -0.11780000000000000          0.0000000000000000
 -0.11670000000000000          0.0000000000000000
 -0.11559999999999999          0.0000000000000000
 -0.11449999999999999          0.0000000000000000
 -0.11340000000000000          0.0000000000000000
 -0.11230000000000000          0.0000000000000000
 -0.11119999999999999          0.0000000000000000
 -0.11009999999999999          0.0000000000000000
 -0.10900000000000000         -2.5062942245364236E-044
 -0.10790000000000000         -2.8911019072332775E-032
 -0.10679999999999999          8.7528146314159193E-031
 -0.10569999999999999          8.8533698036081211E-030
 -0.10460000000000000          2.3763620763428128E-029
 -0.10349999999999999         -5.1165013237545844E-029
 -0.10239999999999999         -4.9930725662145544E-028
 -0.10130000000000000         -1.2343426569420682E-027
 -0.10020000000000000         -1.4267822269747598E-028
  -9.9099999999999994E-002     6.3877341576638860E-027
  -9.7999999999999990E-002     1.3644731403117479E-026
  -9.6899999999999986E-002    -2.5751869287033120E-027
  -9.5799999999999996E-002    -5.1093479288233475E-026
  -9.4699999999999993E-002    -1.8672847612776093E-026
  -9.3599999999999989E-002     3.1112861456379432E-025
  -9.2499999999999999E-002     6.8215351481227385E-025
  -9.1399999999999995E-002    -5.4952489461625033E-025
  -9.0299999999999991E-002    -5.3610722850409756E-024
  -8.9200000000000002E-002    -9.9354656541221579E-024
  -8.8099999999999984E-002     2.5750618896244780E-024
  -8.6999999999999994E-002     5.1039180660937662E-023
  -8.5899999999999990E-002     1.0682860401405385E-022
  -8.4799999999999986E-002     3.8665799543743804E-023
  -8.3699999999999997E-002    -3.1796670780373790E-022
  -8.2599999999999993E-002    -8.3905336045143215E-022
  -8.1499999999999989E-002    -7.2379065953530152E-022
  -8.0399999999999999E-002     1.2265696050002731E-021
  -7.9299999999999995E-002     4.8958275907271041E-021
  -7.8199999999999992E-002     6.4595580126914498E-021
  -7.7100000000000002E-002    -1.1773273169547946E-021
  -7.5999999999999984E-002    -2.0925677478654349E-020
  -7.4899999999999994E-002    -3.8977542101186086E-020
  -7.3799999999999991E-002    -2.1457178180711925E-020
  -7.2699999999999987E-002     5.9654404620950806E-020
  -7.1599999999999997E-002     1.7148264476728378E-019
  -7.0499999999999993E-002     1.8468924240621230E-019
  -6.9399999999999989E-002    -5.9398799349367826E-020
  -6.8300000000000000E-002    -5.4807968921631519E-019
  -6.7199999999999996E-002    -8.9737185061166658E-019
  -6.6099999999999992E-002    -4.4794870058474325E-019
  -6.5000000000000002E-002     1.1366302238776968E-018
  -6.3899999999999985E-002     3.0468190770991790E-018
  -6.2799999999999995E-002     3.1661837210319960E-018
  -6.1699999999999991E-002    -5.2722310555333150E-019
  -6.0599999999999994E-002    -7.2871807823643042E-018
  -5.9499999999999990E-002    -1.1882324595050089E-017
  -5.8399999999999994E-002    -6.8833594791197936E-018
  -5.7299999999999990E-002     1.0349498535807501E-017
  -5.6199999999999986E-002     3.0507804036937612E-017
  -5.5099999999999996E-002     3.3443004809741660E-017
  -5.3999999999999992E-002     2.7081223238630559E-018
  -5.2899999999999989E-002    -5.3250436838648461E-017
  -5.1799999999999985E-002    -9.2711832423032466E-017
  -5.0699999999999995E-002    -6.3479461481304774E-017
  -4.9599999999999991E-002     4.7785373645528269E-017
  -4.8499999999999988E-002     1.7714578390612689E-016
  -4.7399999999999998E-002     2.0462905166408503E-016
  -4.6299999999999994E-002     4.7549971278047687E-017
  -4.5199999999999990E-002    -2.3320103469200029E-016
  -4.4099999999999986E-002    -4.2039772478510774E-016
  -4.2999999999999997E-002    -2.8490824036642096E-016
  -4.1899999999999993E-002     1.8412312516494367E-016
  -4.0799999999999989E-002     6.6336137005958468E-016
  -3.9699999999999985E-002     6.7250514366470475E-016
  -3.8599999999999995E-002     4.3964769045919713E-020
  -3.7499999999999992E-002    -9.5200838738546623E-016
  -3.6399999999999988E-002    -1.3049276294741882E-015
  -3.5299999999999984E-002    -4.0267813963558418E-016
  -3.4199999999999994E-002     1.3970322980928496E-015
  -3.3099999999999991E-002     2.6199711616792431E-015
  -3.1999999999999987E-002     1.6768585260639585E-015
  -3.0899999999999997E-002    -1.5650079312585855E-015
  -2.9799999999999993E-002    -4.9807591353447901E-015
  -2.8699999999999989E-002    -5.2820364727050766E-015
  -2.7599999999999986E-002    -7.0423579196177307E-016
  -2.6499999999999996E-002     6.6911113558470234E-015
  -2.5399999999999992E-002     1.1439428133322289E-014
  -2.4299999999999988E-002     8.3928700035814729E-015
  -2.3199999999999985E-002    -2.6014933496941403E-015
  -2.2099999999999995E-002    -1.5030987590117424E-014
  -2.0999999999999991E-002    -1.9427215641308410E-014
  -1.9899999999999987E-002    -1.0584980259646990E-014
  -1.8799999999999983E-002     7.2283945186866616E-015
  -1.7699999999999994E-002     2.2087127794583706E-014
  -1.6599999999999990E-002     2.3051330809431016E-014
  -1.5499999999999986E-002     9.2726382331486526E-015
  -1.4399999999999996E-002    -8.4408205387270345E-015
  -1.3299999999999992E-002    -1.6200174272267374E-014
  -1.2199999999999989E-002    -9.4767723264059102E-015
  -1.1099999999999985E-002     1.6394450807819733E-015
  -9.9999999999999950E-003     7.6620445768385615E-016
  -8.8999999999999913E-003    -1.8108346378918307E-014
  -7.7999999999999875E-003    -4.0067765321974606E-014
  -6.6999999999999837E-003    -3.6889484251570468E-014
  -5.5999999999999939E-003     9.2482242025182202E-015
  -4.4999999999999901E-003     8.3525993467648616E-014
  -3.3999999999999864E-003     1.3831981621279069E-013
  -2.2999999999999826E-003     1.2127683568766803E-013
  -1.1999999999999927E-003     1.5223043840560336E-014
  -9.9999999999988987E-005    -1.3935632704223254E-013
   1.0000000000000148E-003    -2.5957830177870996E-013
   2.1000000000000185E-003    -2.6734848059330109E-013
   3.2000000000000084E-003    -1.3847172648966297E-013
   4.3000000000000121E-003     7.9466537245981320E-014
   5.4000000000000159E-003     2.9229033473093061E-013
   6.5000000000000058E-003     4.0933386237854520E-013
   7.6000000000000234E-003     3.8456710689178698E-013
   8.7000000000000133E-003     2.2527491753528156E-013
   9.8000000000000032E-003    -2.7649084939480464E-014
   1.0900000000000021E-002    -3.2207751548244433E-013
   1.2000000000000011E-002    -5.9674503836638205E-013
   1.3100000000000001E-002    -7.6586507318302421E-013
   1.4200000000000018E-002    -7.1606105376746729E-013
   1.5300000000000008E-002    -3.4753265803340847E-013
   1.6400000000000026E-002     3.4080363856525919E-013
   1.7500000000000016E-002     1.1707132659134584E-012
   1.8600000000000005E-002     1.7839613250179037E-012
   1.9700000000000023E-002     1.7707196386245692E-012
   2.0800000000000013E-002     8.9777409681740620E-013
   2.1900000000000003E-002    -6.8065382974006320E-013
   2.3000000000000020E-002    -2.3792161817084936E-012
   2.4100000000000010E-002    -3.3884583507116929E-012
   2.5200000000000000E-002    -3.0698640244435602E-012
   2.6300000000000018E-002    -1.3348762199768638E-012
   2.7400000000000008E-002     1.2281525622886180E-012
   2.8500000000000025E-002     3.5903200985153655E-012
   2.9600000000000015E-002     4.7719558339545749E-012
   3.0700000000000005E-002     4.3037843254489621E-012
   3.1800000000000023E-002     2.3868335693313295E-012
   3.2900000000000013E-002    -3.1815920883161926E-013
   3.4000000000000002E-002    -3.0812587724367121E-012
   3.5100000000000020E-002    -5.3656892297366069E-012
   3.6200000000000010E-002    -6.7849849003102299E-012
   3.7300000000000028E-002    -6.8697950973695229E-012
   3.8400000000000017E-002    -4.9768206049346026E-012
   3.9500000000000007E-002    -6.0949254540858903E-013
   4.0600000000000025E-002     5.9225025057795708E-012
   4.1700000000000015E-002     1.2960469503166030E-011
   4.2800000000000005E-002     1.7631528181906056E-011
   4.3900000000000022E-002     1.6897167692820309E-011
   4.5000000000000012E-002     9.1538243998654034E-012
   4.6100000000000002E-002    -4.4604975095464490E-012
   4.7200000000000020E-002    -1.9909802972952536E-011
   4.8300000000000010E-002    -3.1570208253175627E-011
   4.9400000000000027E-002    -3.4514387875497070E-011
   5.0500000000000017E-002    -2.6677606304593696E-011
   5.1600000000000007E-002    -9.7973374205137000E-012
   5.2700000000000025E-002     1.1368064475882487E-011
   5.3800000000000014E-002     3.1120630378248110E-011
   5.4900000000000004E-002     4.5080550403756630E-011
   5.6000000000000022E-002     5.1421047975178532E-011
   5.7100000000000012E-002     5.0499146531104823E-011
   5.8200000000000002E-002     4.3274599181854696E-011
   5.9300000000000019E-002     2.9661210987353958E-011
   6.0400000000000009E-002     7.9982791223456138E-012
   6.1500000000000027E-002    -2.3916934405178210E-011
   6.2600000000000017E-002    -6.6905939122289302E-011
   6.3700000000000007E-002    -1.1902723251467470E-010
   6.4800000000000024E-002    -1.7602093393965814E-010
   6.5900000000000014E-002    -2.3380372637939497E-010
   6.7000000000000004E-002    -2.9187316452630322E-010
   6.8100000000000022E-002    -3.5568711864722813E-010
   6.9200000000000012E-002    -4.3642858771346319E-010
   7.0300000000000029E-002    -5.4792759218718911E-010
   7.1400000000000019E-002    -7.0212602398818193E-010
   7.2500000000000009E-002    -9.0541324437873552E-010
   7.3600000000000027E-002    -1.1578948910796428E-009
   7.4700000000000016E-002    -1.4563156236492491E-009
   7.5800000000000006E-002    -1.7996287793310893E-009
   7.6900000000000024E-002    -2.1949244644050260E-009
   7.8000000000000014E-002    -2.6611761683173010E-009
   7.9100000000000004E-002    -3.2291731510983342E-009
   8.0200000000000021E-002    -3.9376968352659161E-009
   8.1300000000000011E-002    -4.8277382092014450E-009
   8.2400000000000029E-002    -5.9375353522744587E-009
   8.3500000000000019E-002    -7.3008536993774879E-009
   8.4600000000000009E-002    -8.9493701338491407E-009
   8.5700000000000026E-002    -1.0918010495687288E-008
   8.6800000000000016E-002    -1.3250789798747802E-008
   8.7900000000000006E-002    -1.6004822356309504E-008
   8.9000000000000024E-002    -1.9251672256361325E-008
   9.0100000000000013E-002    -2.3076879074326165E-008
   9.1200000000000003E-002    -2.7579353911735523E-008
   9.2300000000000021E-002    -3.2871742661203132E-008
   9.3400000000000011E-002    -3.9081548663947484E-008
   9.4500000000000028E-002    -4.6351846805241236E-008
   9.5600000000000018E-002    -5.4840661789517454E-008
   9.6700000000000008E-002    -6.4719372971927808E-008
   9.7800000000000026E-002    -7.6171509988405467E-008
   9.8900000000000016E-002    -8.9393346058849463E-008
  0.10000000000000001         -1.0459655896967011E-007
  0.10110000000000002         -1.2201162746806592E-007
  0.10220000000000001         -1.4188992736309415E-007
  0.10330000000000003         -1.6450327677831983E-007
  0.10440000000000002         -1.9014082397463319E-007
  0.10550000000000001         -2.1910521752490396E-007
  0.10660000000000003         -2.5170947992594390E-007
  0.10770000000000002         -2.8827582809756548E-007
  0.10880000000000001         -3.2913504810497457E-007
  0.10990000000000003         -3.7462444879569120E-007
  0.11100000000000002         -4.2508185060800515E-007
  0.11210000000000001         -4.8083467163455473E-007
  0.11320000000000002         -5.4218719469650196E-007
  0.11430000000000001         -6.0940880075582803E-007
  0.11540000000000003         -6.8272788666951589E-007
  0.11650000000000002         -7.6233044410407800E-007
  0.11760000000000001         -8.4836017322239459E-007
  0.11870000000000003         -9.4091336677601586E-007
  0.11980000000000002         -1.0400241308162582E-006
  0.12090000000000001         -1.1456418178569166E-006
  0.12200000000000003         -1.2576048220581699E-006
  0.12310000000000001         -1.3756218777417754E-006
  0.12420000000000003         -1.4992644992163600E-006
  0.12530000000000002         -1.6279678902721230E-006
  0.12640000000000001         -1.7610353779675059E-006
  0.12750000000000003         -1.8976353430845752E-006
  0.12860000000000002         -2.0367888282637100E-006
  0.12970000000000001         -2.1773532807858082E-006
  0.13080000000000003         -2.3180093648991095E-006
  0.13190000000000002         -2.4572602796981718E-006
  0.13300000000000001         -2.5934425593734521E-006
  0.13410000000000000         -2.7247410798738868E-006
  0.13520000000000004         -2.8492047476904972E-006
  0.13630000000000003         -2.9647583232875127E-006
  0.13740000000000002         -3.0692094696863098E-006
  0.13850000000000001         -3.1602619401385869E-006
  0.13960000000000000         -3.2355383154939095E-006
  0.14070000000000005         -3.2926175208561577E-006
  0.14180000000000004         -3.3290839382974225E-006
  0.14290000000000003         -3.3425812944190853E-006
  0.14400000000000002         -3.3308592719552841E-006
  0.14510000000000001         -3.2918069337032038E-006
  0.14620000000000000         -3.2234775062537000E-006
  0.14730000000000004         -3.1241165743270513E-006
  0.14840000000000003         -2.9922055091449734E-006
  0.14950000000000002         -2.8265230866966597E-006
  0.15060000000000001         -2.6262152914571454E-006
  0.15170000000000000         -2.3908573894007035E-006
  0.15280000000000005         -2.1204930362730178E-006
  0.15390000000000004         -1.8156447367802576E-006
  0.15500000000000003         -1.4773141856495880E-006
  0.15610000000000002         -1.1069807897002807E-006
  0.15720000000000001         -7.0661315021432304E-007
  0.15830000000000000         -2.7868878760276380E-007
  0.15940000000000004          1.7379005612384444E-007
  0.16050000000000003          6.4729704263305220E-007
  0.16160000000000002          1.1378078852431894E-006
  0.16270000000000001          1.6408488363596535E-006
  0.16380000000000000          2.1515620574065993E-006
  0.16490000000000005          2.6647767299439340E-006
  0.16600000000000004          3.1750805646882445E-006
  0.16710000000000003          3.6768890367969686E-006
  0.16820000000000002          4.1645130295368413E-006
  0.16930000000000001          4.6322297748706305E-006
  0.17040000000000000          5.0743683459591063E-006
  0.17150000000000004          5.4854021982469454E-006
  0.17260000000000003          5.8600498960009524E-006
  0.17370000000000002          6.1933715187484460E-006
  0.17480000000000001          6.4808564275159825E-006
  0.17590000000000000          6.7184932959213940E-006
  0.17700000000000005          6.9028383222764158E-006
  0.17810000000000004          7.0310807132052184E-006
  0.17920000000000003          7.1011099862523371E-006
  0.18030000000000002          7.1115700848174293E-006
  0.18140000000000001          7.0618948484486412E-006
  0.18250000000000000          6.9523116508214153E-006
  0.18360000000000004          6.7838295763073687E-006
  0.18470000000000003          6.5582153183646968E-006
  0.18580000000000002          6.2779649852024140E-006
  0.18690000000000001          5.9462749959499027E-006
  0.18800000000000000          5.5670052461214865E-006
  0.18910000000000005          5.1446227189449248E-006
  0.19020000000000004          4.6841314542693723E-006
  0.19130000000000003          4.1909856918213611E-006
  0.19240000000000002          3.6709996038556507E-006
  0.19350000000000001          3.1302513434641907E-006
  0.19460000000000005          2.5749832275326001E-006
  0.19570000000000004          2.0114978269704902E-006
  0.19680000000000003          1.4460548527496516E-006
  0.19790000000000002          8.8477560211694856E-007
  0.19900000000000001          3.3355183859388563E-007
  0.20010000000000000         -2.0203407302689223E-007
  0.20120000000000005         -7.1678101676303938E-007
  0.20230000000000004         -1.2059297205270154E-006
  0.20340000000000003         -1.6652112435623733E-006
  0.20450000000000002         -2.0908855731251659E-006
  0.20560000000000000         -2.4797786863930427E-006
  0.20670000000000005         -2.8293193281572542E-006
  0.20780000000000004         -3.1375770959132869E-006
  0.20890000000000003         -3.4032800613207113E-006
