 -0.12000000000000000          0.0000000000000000
 -0.11889999999999999          0.0000000000000000
 -0.11780000000000000          0.0000000000000000
 -0.11670000000000000          0.0000000000000000
 -0.11559999999999999          0.0000000000000000
 -0.11449999999999999          0.0000000000000000
 -0.11340000000000000          0.0000000000000000
 -0.11230000000000000          0.0000000000000000
 -0.11119999999999999          0.0000000000000000
 -0.11009999999999999          0.0000000000000000
 -0.10900000000000000         -4.4459666722945564E-034
 -0.10790000000000000         -3.4403495855311225E-032
 -0.10679999999999999         -6.5760506494887308E-031
 -0.10569999999999999         -5.9839448350642861E-030
 -0.10460000000000000         -3.2291992145902331E-029
 -0.10349999999999999         -1.1121024870734032E-028
 -0.10239999999999999         -2.3314766238955018E-028
 -0.10130000000000000         -1.7172178792789633E-028
 -0.10020000000000000          6.2751328338330315E-028
  -9.9099999999999994E-002     2.4028483617018359E-027
  -9.7999999999999990E-002     3.1728840720884403E-027
  -9.6899999999999986E-002    -2.3651361496818062E-027
  -9.5799999999999996E-002    -1.7328508452305489E-026
  -9.4699999999999993E-002    -2.8150184009556971E-026
  -9.3599999999999989E-002     2.2834615051932267E-027
  -9.2499999999999999E-002     9.8460053022519392E-026
  -9.1399999999999995E-002     1.8779676943878641E-025
  -9.0299999999999991E-002     6.0905195641921870E-026
  -8.9200000000000002E-002    -4.6639833160143196E-025
  -8.8099999999999984E-002    -1.1586894486032295E-024
  -8.6999999999999994E-002    -9.8794523883357279E-025
  -8.5899999999999990E-002     1.6834309466786759E-024
  -8.4799999999999986E-002     7.3765444502739601E-024
  -8.3699999999999997E-002     1.0966243377707691E-023
  -8.2599999999999993E-002    -3.0712492853307139E-024
  -8.1499999999999989E-002    -5.0218273070307160E-023
  -8.0399999999999999E-002    -9.7878800339510887E-023
  -7.9299999999999995E-002    -8.0665784390106940E-024
  -7.8199999999999992E-002     3.7065128191901339E-022
  -7.7100000000000002E-002     7.8039936858144501E-022
  -7.5999999999999984E-002     1.0889077477275515E-022
  -7.4899999999999994E-002    -2.8058939769046869E-021
  -7.3799999999999991E-002    -5.9867095859329510E-021
  -7.2699999999999987E-002    -1.3421964693533623E-021
  -7.1599999999999997E-002     1.9457850328441565E-020
  -7.0499999999999993E-002     4.3820358239091202E-020
  -6.9399999999999989E-002     1.9163797314201767E-020
  -6.8300000000000000E-002    -1.1239223515245351E-019
  -6.7199999999999996E-002    -2.8928475744813020E-019
  -6.6099999999999992E-002    -2.1103676729836692E-019
  -6.5000000000000002E-002     4.9883798924258033E-019
  -6.3899999999999985E-002     1.6406168954454508E-018
  -6.2799999999999995E-002     1.7297692844930739E-018
  -6.1699999999999991E-002    -1.4294894872465240E-018
  -6.0599999999999994E-002    -7.7417148746011819E-018
  -5.9499999999999990E-002    -1.0992071460791551E-017
  -5.8399999999999994E-002     5.7189647925814606E-021
  -5.7299999999999990E-002     2.9386894897591692E-017
  -5.6199999999999986E-002     5.5847396841538183E-017
  -5.5099999999999996E-002     3.0279912469459040E-017
  -5.3999999999999992E-002    -8.3208096285068982E-017
  -5.2899999999999989E-002    -2.2975215475879221E-016
  -5.1799999999999985E-002    -2.2562930129737071E-016
  -5.0699999999999995E-002     1.2754304482400034E-016
  -4.9599999999999991E-002     7.5821354886124724E-016
  -4.8499999999999988E-002     1.0915441481931863E-015
  -4.7399999999999998E-002     2.7849159521410713E-016
  -4.6299999999999994E-002    -1.9053713922118683E-015
  -4.5199999999999990E-002    -4.0221622080584100E-015
  -4.4099999999999986E-002    -3.1096735192556128E-015
  -4.2999999999999997E-002     2.9310931394695150E-015
  -4.1899999999999993E-002     1.1609214193534102E-014
  -4.0799999999999989E-002     1.4425655494362116E-014
  -3.9699999999999985E-002     1.9177298146705454E-015
  -3.8599999999999995E-002    -2.5195999597154607E-014
  -3.7499999999999992E-002    -4.7355931567620579E-014
  -3.6399999999999988E-002    -3.3159757627460387E-014
  -3.5299999999999984E-002     3.2888879879060251E-014
  -3.4199999999999994E-002     1.1809543414790374E-013
  -3.3099999999999991E-002     1.3993455916586073E-013
  -3.1999999999999987E-002     2.1757921663369609E-014
  -3.0899999999999997E-002    -2.1450876285748072E-013
  -2.9799999999999993E-002    -3.9775924524573791E-013
  -2.8699999999999989E-002    -2.8811832477118604E-013
  -2.7599999999999986E-002     2.0811323042484176E-013
  -2.6499999999999996E-002     8.3427275504588394E-013
  -2.5399999999999992E-002     1.0214550559550784E-012
  -2.4299999999999988E-002     2.8662461943815276E-013
  -2.3199999999999985E-002    -1.2067920447667024E-012
  -2.2099999999999995E-002    -2.4191501666465109E-012
  -2.0999999999999991E-002    -1.9738574923849894E-012
  -1.9899999999999987E-002     6.4705407915380264E-013
  -1.8799999999999983E-002     4.1061347030857398E-012
  -1.7699999999999994E-002     5.5286396120901582E-012
  -1.6599999999999990E-002     2.5064117448181378E-012
  -1.5499999999999986E-002    -4.3428012921897796E-012
  -1.4399999999999996E-002    -1.0497273189580270E-011
  -1.3299999999999992E-002    -9.9804765146815910E-012
  -1.2199999999999989E-002    -2.9922749391134151E-013
  -1.1099999999999985E-002     1.3737913584499495E-011
  -9.9999999999999950E-003     2.1398828889407362E-011
  -8.8999999999999913E-003     1.3429822358357324E-011
  -7.7999999999999875E-003    -9.0254748119633632E-012
  -6.6999999999999837E-003    -3.1630115193692632E-011
  -5.5999999999999939E-003    -3.4956013778009165E-011
  -4.4999999999999901E-003    -9.9280037316185066E-012
  -3.3999999999999864E-003     3.0862177397006363E-011
  -2.2999999999999826E-003     5.7451411683562270E-011
  -1.1999999999999927E-003     4.3419358386476148E-011
  -9.9999999999988987E-005    -1.0188270366251473E-011
   1.0000000000000148E-003    -6.8222094640191244E-011
   2.1000000000000185E-003    -8.2745039986509283E-011
   3.2000000000000084E-003    -3.1123322669079911E-011
   4.3000000000000121E-003     5.8077116033006249E-011
   5.4000000000000159E-003     1.1713306713456717E-010
   6.5000000000000058E-003     8.8142215748376884E-011
   7.6000000000000234E-003    -2.4548751920150380E-011
   8.7000000000000133E-003    -1.4301804185379297E-010
   9.8000000000000032E-003    -1.6507782640839963E-010
   1.0900000000000021E-002    -4.6160204131284743E-011
   1.2000000000000011E-002     1.4844075968412085E-010
   1.3100000000000001E-002     2.7185656503725397E-010
   1.4200000000000018E-002     1.9875448509232285E-010
   1.5300000000000008E-002    -6.5778930913307221E-011
   1.6400000000000026E-002    -3.5932321007514645E-010
   1.7500000000000016E-002    -4.5547154936542711E-010
   1.8600000000000005E-002    -2.2664874144151526E-010
   1.9700000000000023E-002     2.3780025171227237E-010
   2.0800000000000013E-002     6.5584737640733692E-010
   2.1900000000000003E-002     7.2244599191861880E-010
   2.3000000000000020E-002     3.1943653278077022E-010
   2.4100000000000010E-002    -3.7957997855997405E-010
   2.5200000000000000E-002    -9.9004082709797103E-010
   2.6300000000000018E-002    -1.1366381169608530E-009
   2.7400000000000008E-002    -6.7117239543890150E-010
   2.8500000000000025E-002     2.4515089958043745E-010
   2.9600000000000015E-002     1.2250197523044903E-009
   3.0700000000000005E-002     1.8239307841838581E-009
   3.1800000000000023E-002     1.6908633382328730E-009
   3.2900000000000013E-002     6.7012112525688394E-010
   3.4000000000000002E-002    -1.0963049357215482E-009
   3.5100000000000020E-002    -3.0430122865965359E-009
   3.6200000000000010E-002    -4.1522678628780341E-009
   3.7300000000000028E-002    -3.2552316397982395E-009
   3.8400000000000017E-002     2.2396171028837841E-010
   3.9500000000000007E-002     5.3724136250821175E-009
   4.0600000000000025E-002     9.4671781525335064E-009
   4.1700000000000015E-002     8.9636200684140022E-009
   4.2800000000000005E-002     1.8123731404529053E-009
   4.3900000000000022E-002    -1.0071170564174281E-008
   4.5000000000000012E-002    -2.0188659632935924E-008
   4.6100000000000002E-002    -2.0204014461455699E-008
   4.7200000000000020E-002    -5.5137099330693218E-009
   4.8300000000000010E-002     1.9488991753746632E-008
   4.9400000000000027E-002     4.0778608934033400E-008
   5.0500000000000017E-002     4.1206078549294034E-008
   5.1600000000000007E-002     1.2084949041479831E-008
   5.2700000000000025E-002    -3.6994006080703912E-008
   5.3800000000000014E-002    -7.8246500834211474E-008
   5.4900000000000004E-002    -7.9290686016975087E-008
   5.6000000000000022E-002    -2.4997566683282457E-008
   5.7100000000000012E-002     6.5629173207071290E-008
   5.8200000000000002E-002     1.4152800531519460E-007
   5.9300000000000019E-002     1.4527684299991961E-007
   6.0400000000000009E-002     5.1438888704069541E-008
   6.1500000000000027E-002    -1.0585761600623300E-007
   6.2600000000000017E-002    -2.3880053845459770E-007
   6.3700000000000007E-002    -2.5081175181185245E-007
   6.4800000000000024E-002    -1.0020539065180856E-007
   6.5900000000000014E-002     1.5638117645266902E-007
   6.7000000000000004E-002     3.7615077985719836E-007
   6.8100000000000022E-002     4.0413453916698927E-007
   6.9200000000000012E-002     1.7433237076147634E-007
   7.0300000000000029E-002    -2.2392787002445402E-007
   7.1400000000000019E-002    -5.6784523394526332E-007
   7.2500000000000009E-002    -6.1767008219248964E-007
   7.3600000000000027E-002    -2.7196963969799981E-007
   7.4700000000000016E-002     3.3319000181109004E-007
   7.5800000000000006E-002     8.5979172581573948E-007
   7.6900000000000024E-002     9.4438382802763954E-007
   7.8000000000000014E-002     4.2973371705556929E-007
   7.9100000000000004E-002    -4.8855309842110728E-007
   8.0200000000000021E-002    -1.3134382470525452E-006
   8.1300000000000011E-002    -1.5020574437585310E-006
   8.2400000000000029E-002    -8.0032816640596138E-007
   8.3500000000000019E-002     5.4293104767566547E-007
   8.4600000000000009E-002     1.8401893839836703E-006
   8.5700000000000026E-002     2.3145842078520218E-006
   8.6800000000000016E-002     1.5605679664076888E-006
   8.7900000000000006E-002    -1.5664021191241773E-007
   8.9000000000000024E-002    -1.9744645669561578E-006
   9.0100000000000013E-002    -2.8850470243924065E-006
   9.1200000000000003E-002    -2.3315285488934023E-006
   9.2300000000000021E-002    -5.8964781146642053E-007
   9.3400000000000011E-002     1.3349826986086555E-006
   9.4500000000000028E-002     2.2871222427056637E-006
   9.5600000000000018E-002     1.7018476228258805E-006
   9.6700000000000008E-002     3.8793455559016365E-008
   9.7800000000000026E-002    -1.4180644711814239E-006
   9.8900000000000016E-002    -1.3507784615285345E-006
  0.10000000000000001          6.5532753978914116E-007
  0.10110000000000002          3.6360493140819017E-006
  0.10220000000000001          5.6296485126949847E-006
  0.10330000000000003          4.8021861402958166E-006
  0.10440000000000002          6.9128088853176450E-007
  0.10550000000000001         -5.2353038881847169E-006
  0.10660000000000003         -1.0184934581047855E-005
  0.10770000000000002         -1.1597179764066823E-005
  0.10880000000000001         -8.7837570390547626E-006
  0.10990000000000003         -3.5975488117401255E-006
  0.11100000000000002          4.4520953679239028E-007
  0.11210000000000001          2.3796246750862338E-007
  0.11320000000000002         -4.8336428335460369E-006
  0.11430000000000001         -1.2166576198069379E-005
  0.11540000000000003         -1.7253254554816522E-005
  0.11650000000000002         -1.6480724298162386E-005
  0.11760000000000001         -9.8086875368608162E-006
  0.11870000000000003         -1.5543554354735534E-006
  0.11980000000000002          1.5285644394680276E-006
  0.12090000000000001         -5.9363019317970611E-006
  0.12200000000000003         -2.4390179532929324E-005
  0.12310000000000001         -4.8332880396628752E-005
  0.12420000000000003         -6.8868343078065664E-005
  0.12530000000000002         -7.8700824815314263E-005
  0.12640000000000001         -7.6800693932455033E-005
  0.12750000000000003         -6.9827743573114276E-005
  0.12860000000000002         -6.9075009378138930E-005
  0.12970000000000001         -8.4336090367287397E-005
  0.13080000000000003         -1.1814835306722671E-004
  0.13190000000000002         -1.6396741557400674E-004
  0.13300000000000001         -2.0973836944904178E-004
  0.13410000000000000         -2.4512753589078784E-004
  0.13520000000000004         -2.6825693203136325E-004
  0.13630000000000003         -2.8777931584045291E-004
  0.13740000000000002         -3.1866854988038540E-004
  0.13850000000000001         -3.7385136238299310E-004
  0.13960000000000000         -4.5656698057428002E-004
  0.14070000000000005         -5.5815657833591104E-004
  0.14180000000000004         -6.6300301114097238E-004
  0.14290000000000003         -7.5799110345542431E-004
  0.14400000000000002         -8.4088690346106887E-004
  0.14510000000000001         -9.2244712868705392E-004
  0.14620000000000000         -1.0206213919445872E-003
  0.14730000000000004         -1.1500174878165126E-003
  0.14840000000000003         -1.3130736770108342E-003
  0.14950000000000002         -1.4983136206865311E-003
  0.15060000000000001         -1.6871372936293483E-003
  0.15170000000000000         -1.8652413273230195E-003
  0.15280000000000005         -2.0314450375735760E-003
  0.15390000000000004         -2.1982470061630011E-003
  0.15500000000000003         -2.3834705352783203E-003
  0.15610000000000002         -2.5976311881095171E-003
  0.15720000000000001         -2.8351852670311928E-003
  0.15830000000000000         -3.0753437895327806E-003
  0.15940000000000004         -3.2924595288932323E-003
  0.16050000000000003         -3.4698012750595808E-003
  0.16160000000000002         -3.6086353939026594E-003
  0.16270000000000001         -3.7255089264363050E-003
  0.16380000000000000         -3.8396695163100958E-003
  0.16490000000000005         -3.9575742557644844E-003
  0.16600000000000004         -4.0635978803038597E-003
  0.16710000000000003         -4.1239410638809204E-003
  0.16820000000000002         -4.1015357710421085E-003
  0.16930000000000001         -3.9739925414323807E-003
  0.17040000000000000         -3.7433819379657507E-003
  0.17150000000000004         -3.4318536054342985E-003
  0.17260000000000003         -3.0649804975837469E-003
  0.17370000000000002         -2.6526548899710178E-003
  0.17480000000000001         -2.1792787592858076E-003
  0.17590000000000000         -1.6081838402897120E-003
  0.17700000000000005         -9.0017035836353898E-004
  0.17810000000000004         -3.3199052268173546E-005
  0.17920000000000003          9.8581600468605757E-004
  0.18030000000000002          2.1250559948384762E-003
  0.18140000000000001          3.3454282674938440E-003
  0.18250000000000000          4.6201981604099274E-003
  0.18360000000000004          5.9456415474414825E-003
  0.18470000000000003          7.3367711156606674E-003
  0.18580000000000002          8.8100917637348175E-003
  0.18690000000000001          1.0368268005549908E-002
  0.18800000000000000          1.1987215839326382E-002
  0.18910000000000005          1.3622109778225422E-002
  0.19020000000000004          1.5221652574837208E-002
  0.19130000000000003          1.6743715852499008E-002
  0.19240000000000002          1.8164226785302162E-002
  0.19350000000000001          1.9471138715744019E-002
  0.19460000000000005          2.0653473213315010E-002
  0.19570000000000004          2.1686730906367302E-002
  0.19680000000000003          2.2528935223817825E-002
  0.19790000000000002          2.3129029199481010E-002
  0.19900000000000001          2.3440523073077202E-002
  0.20010000000000000          2.3435639217495918E-002
  0.20120000000000005          2.3107260465621948E-002
  0.20230000000000004          2.2460574284195900E-002
  0.20340000000000003          2.1497728303074837E-002
  0.20450000000000002          2.0208584144711494E-002
  0.20560000000000000          1.8570320680737495E-002
  0.20670000000000005          1.6559118404984474E-002
  0.20780000000000004          1.4165417291224003E-002
  0.20890000000000003          1.1405013501644135E-002
