 -0.12000000000000000          0.0000000000000000
 -0.11889999999999999          0.0000000000000000
 -0.11780000000000000          0.0000000000000000
 -0.11670000000000000          0.0000000000000000
 -0.11559999999999999          0.0000000000000000
 -0.11449999999999999          0.0000000000000000
 -0.11340000000000000          0.0000000000000000
 -0.11230000000000000          0.0000000000000000
 -0.11119999999999999          6.7609873388309278E-015
 -0.11009999999999999          4.3296814159106904E-014
 -0.10900000000000000          2.9947761257620913E-014
 -0.10790000000000000         -6.4559425513868922E-013
 -0.10679999999999999         -2.9860144305088438E-012
 -0.10569999999999999         -4.5616266840239867E-012
 -0.10460000000000000          8.3456505595167925E-012
 -0.10349999999999999          5.5815036620333048E-011
 -0.10239999999999999          1.1251832798819348E-010
 -0.10130000000000000          2.0712287787645332E-011
 -0.10020000000000000         -4.6860498814639828E-010
  -9.9099999999999994E-002    -1.2672984883721169E-009
  -9.7999999999999990E-002    -1.2440949381796359E-009
  -9.6899999999999986E-002     1.6884784681539057E-009
  -9.5799999999999996E-002     8.1179098998518186E-009
  -9.4699999999999993E-002     1.2721375952650373E-008
  -9.3599999999999989E-002     3.1351676810213795E-009
  -9.2499999999999999E-002    -2.9927736733271939E-008
  -9.1399999999999995E-002    -7.1256557987451047E-008
  -9.0299999999999991E-002    -6.8238335870765080E-008
  -8.9200000000000002E-002     4.0091482134141458E-008
  -8.8099999999999984E-002     2.4229322548308119E-007
  -8.6999999999999994E-002     3.8047113548597748E-007
  -8.5899999999999990E-002     1.9843065501840349E-007
  -8.4799999999999986E-002    -4.2447533132875933E-007
  -8.3699999999999997E-002    -1.1851639101223122E-006
  -8.2599999999999993E-002    -1.3409980965660256E-006
  -8.1499999999999989E-002    -2.1855341003610080E-007
  -8.0399999999999999E-002     1.9681488083734063E-006
  -7.9299999999999995E-002     3.7502400118680018E-006
  -7.8199999999999992E-002     3.2142420423036849E-006
  -7.7100000000000002E-002    -2.5112365165155272E-007
  -7.5999999999999984E-002    -4.7798139348739664E-006
  -7.4899999999999994E-002    -7.0563264671352670E-006
  -7.3799999999999991E-002    -5.3068665692977678E-006
  -7.2699999999999987E-002    -1.4131612715572004E-006
  -7.1599999999999997E-002     9.9885164672572535E-007
  -7.0499999999999993E-002     1.8365753930968141E-006
  -6.9399999999999989E-002     7.2253105827249278E-006
  -6.8300000000000000E-002     2.3227124984262404E-005
  -6.7199999999999996E-002     4.2662242776719165E-005
  -6.6099999999999992E-002     3.9031223423082653E-005
  -6.5000000000000002E-002    -1.6760568541945770E-005
  -6.3899999999999985E-002    -1.1927691230085928E-004
  -6.2799999999999995E-002    -2.0181800937280877E-004
  -6.1699999999999991E-002    -1.6096445324364234E-004
  -6.0599999999999994E-002     5.9005229559288640E-005
  -5.9499999999999990E-002     3.7582710501740896E-004
  -5.8399999999999994E-002     5.6585401762277224E-004
  -5.7299999999999990E-002     3.9902867865744453E-004
  -5.6199999999999986E-002    -1.5329991583719701E-004
  -5.5099999999999996E-002    -8.0700393300508664E-004
  -5.3999999999999992E-002    -1.0953993769362324E-003
  -5.2899999999999989E-002    -7.0661440258834736E-004
  -5.1799999999999985E-002     2.1731319429831687E-004
  -5.0699999999999995E-002     1.1047581210732980E-003
  -4.9599999999999991E-002     1.3590217567979407E-003
  -4.8499999999999988E-002     8.4986392175760315E-004
  -4.7399999999999998E-002     4.4916614569811438E-005
  -4.6299999999999994E-002    -4.1177263483403270E-004
  -4.5199999999999990E-002    -3.5056911292468047E-004
  -4.4099999999999986E-002    -3.1560313072968459E-004
  -4.2999999999999997E-002    -1.0207764571532583E-003
  -4.1899999999999993E-002    -2.3935486096890992E-003
  -4.0799999999999989E-002    -3.1534614972772786E-003
  -3.9699999999999985E-002    -1.6245032893493735E-003
  -3.8599999999999995E-002     2.5872238911692352E-003
  -3.7499999999999992E-002     7.4581671506172313E-003
  -3.6399999999999988E-002     9.3092266470196673E-003
  -3.5299999999999984E-002     5.4108644835646766E-003
  -3.4199999999999994E-002    -3.3835817594091455E-003
  -3.3099999999999991E-002    -1.2307386845351284E-002
  -3.1999999999999987E-002    -1.5478901565075153E-002
  -3.0899999999999997E-002    -1.0094764642416546E-002
  -2.9799999999999993E-002     1.1978948023185704E-003
  -2.8699999999999989E-002     1.1860309168697618E-002
  -2.7599999999999986E-002     1.5994338318705621E-002
  -2.6499999999999996E-002     1.2352513149379586E-002
  -2.5399999999999992E-002     4.6227481216178107E-003
  -2.4299999999999988E-002    -2.1246299147612766E-003
  -2.3199999999999985E-002    -5.6297318078573286E-003
  -2.2099999999999995E-002    -7.5285588391116034E-003
  -2.0999999999999991E-002    -1.0446997359394724E-002
  -1.9899999999999987E-002    -1.4024841599167301E-002
  -1.8799999999999983E-002    -1.4017871581019506E-002
  -1.7699999999999994E-002    -5.9286304749555409E-003
  -1.6599999999999990E-002     9.7499955445541561E-003
  -1.5499999999999986E-002     2.5633895769718522E-002
  -1.4399999999999996E-002     3.1436517834666680E-002
  -1.3299999999999992E-002     2.1380754187704177E-002
  -1.2199999999999989E-002    -7.1953929728138890E-004
  -1.1099999999999985E-002    -2.3025993257765949E-002
  -9.9999999999999950E-003    -3.3110041171317120E-002
  -8.8999999999999913E-003    -2.5938365608455624E-002
  -7.7999999999999875E-003    -6.7951884120682213E-003
  -6.6999999999999837E-003     1.2525985948745997E-002
  -5.5999999999999939E-003     2.1162938326601436E-002
  -4.4999999999999901E-003     1.5239042229952064E-002
  -3.3999999999999864E-003    -7.0974754635347477E-004
  -2.2999999999999826E-003    -1.6836227849127531E-002
  -1.1999999999999927E-003    -2.3290274664759563E-002
  -9.9999999999988987E-005    -1.5158679336307044E-002
   1.0000000000000148E-003     4.8233987763550458E-003
   2.1000000000000185E-003     2.6969319209455989E-002
   3.2000000000000084E-003     3.9021164178842868E-002
   4.3000000000000121E-003     3.2681852579108280E-002
   5.4000000000000159E-003     8.7281372398071589E-003
   6.5000000000000058E-003    -2.3001726716756408E-002
   7.6000000000000234E-003    -4.9340642988672863E-002
   8.7000000000000133E-003    -6.1265517026172479E-002
   9.8000000000000032E-003    -5.7245150208462381E-002
   1.0900000000000021E-002    -4.0005270391700432E-002
   1.2000000000000011E-002    -1.0582283139235777E-002
   1.3100000000000001E-002     3.3259555697429902E-002
   1.4200000000000018E-002     9.1166540980330085E-002
   1.5300000000000008E-002    0.15218271315097409
   1.6400000000000026E-002    0.19447766244411227
   1.7500000000000016E-002    0.19755990803240953
   1.8600000000000005E-002    0.15985642373560066
   1.9700000000000023E-002    0.10666461288926357
   2.0800000000000013E-002     7.8498788177940163E-002
   2.1900000000000003E-002    0.10553704202173179
   2.3000000000000020E-002    0.18720555305479888
   2.4100000000000010E-002    0.29413399100302767
   2.5200000000000000E-002    0.39249610900877024
   2.6300000000000018E-002    0.47200947999950432
   2.7400000000000008E-002    0.55504918098443878
   2.8500000000000025E-002    0.67961364984505046
   2.9600000000000015E-002    0.87057334184638513
   3.0700000000000005E-002     1.1231499910353719
   3.1800000000000023E-002     1.4117187261580340
   3.2900000000000013E-002     1.7156016826628224
   3.4000000000000002E-002     2.0400414466856041
   3.5100000000000020E-002     2.4159612655637299
   3.6200000000000010E-002     2.8806369304654198
   3.7300000000000028E-002     3.4563035964962654
   3.8400000000000017E-002     4.1435194015499350
   3.9500000000000007E-002     4.9330019950862534
   4.0600000000000025E-002     5.8254733085627315
   4.1700000000000015E-002     6.8455162048333724
   4.2800000000000005E-002     8.0410861968986751
   4.3900000000000022E-002     9.4692335128775422
   4.5000000000000012E-002     11.174673080443320
   4.6100000000000002E-002     13.170792579649707
   4.7200000000000020E-002     15.433863639830188
   4.8300000000000010E-002     17.919841766355841
   4.9400000000000027E-002     20.601242065427844
   5.0500000000000017E-002     23.507078170774225
   5.1600000000000007E-002     26.736204147336409
   5.2700000000000025E-002     30.425928115841931
   5.3800000000000014E-002     34.686203002926526
   5.4900000000000004E-002     39.540225982662442
   5.6000000000000022E-002     44.916397094722520
   5.7100000000000012E-002     50.703376770014948
   5.8200000000000002E-002     56.832599639887412
   5.9300000000000019E-002     63.328224182123115
   6.0400000000000009E-002     70.285308837884187
   6.1500000000000027E-002     77.794631958000679
   6.2600000000000017E-002     85.869506835929627
   6.3700000000000007E-002     94.431076049796033
   6.4800000000000024E-002     103.35679626463894
   6.5900000000000014E-002     112.54719543455994
   6.7000000000000004E-002     121.95710754393404
   6.8100000000000022E-002     131.56552124022221
   6.9200000000000012E-002     141.32070922850255
   7.0300000000000029E-002     151.09954833982977
   7.1400000000000019E-002     160.71633911131323
   7.2500000000000009E-002     169.96131896971076
   7.3600000000000027E-002     178.63726806638957
   7.4700000000000016E-002     186.56370544431846
   7.5800000000000006E-002     193.56025695798965
   7.6900000000000024E-002     199.42359924314533
   7.8000000000000014E-002     203.91944885251988
   7.9100000000000004E-002     206.78884887693360
   8.0200000000000021E-002     207.76036071775374
   8.1300000000000011E-002     206.56631469724596
   8.2400000000000029E-002     202.95281982419931
   8.3500000000000019E-002     196.70159912107482
   8.4600000000000009E-002     187.63154602048965
   8.5700000000000026E-002     175.57211303709227
   8.6800000000000016E-002     160.33369445799207
   8.7900000000000006E-002     141.68540954588434
   8.9000000000000024E-002     119.38799285887463
   9.0100000000000013E-002     93.269004821767595
   9.1200000000000003E-002     63.293209075920693
   9.2300000000000021E-002     29.582893371578059
   9.3400000000000011E-002    -7.6386866569524567
   9.4500000000000028E-002    -48.135921478268301
   9.5600000000000018E-002    -91.701530456535750
   9.6700000000000008E-002    -138.13378906248849
   9.7800000000000026E-002    -187.15507507322610
   9.8900000000000016E-002    -238.35896301267442
  0.10000000000000001         -291.21002197263039
  0.10110000000000002         -345.11059570309402
  0.10220000000000001         -399.44146728512010
  0.10330000000000003         -453.56375122066186
  0.10440000000000002         -506.76638793940680
  0.10550000000000001         -558.23382568354248
  0.10660000000000003         -607.07061767572520
  0.10770000000000002         -652.38256835931452
  0.10880000000000001         -693.34667968743554
  0.10990000000000003         -729.23352050774440
  0.11100000000000002         -759.36840820305383
  0.11210000000000001         -783.08215332023883
  0.11320000000000002         -799.70892333976826
  0.11430000000000001         -808.61853027336099
  0.11540000000000003         -809.26391601554815
  0.11650000000000002         -801.21643066398610
  0.11760000000000001         -784.16534423820622
  0.11870000000000003         -757.94244384758338
  0.11980000000000002         -722.55541992180520
  0.12090000000000001         -678.22705078118406
  0.12200000000000003         -625.37261962884497
  0.12310000000000001         -564.52410888666304
  0.12420000000000003         -496.23916625971611
  0.12530000000000002         -421.07241821284811
  0.12640000000000001         -339.64718627926192
  0.12750000000000003         -252.76409912106686
  0.12860000000000002         -161.48062133787229
  0.12970000000000001         -67.073738098135053
  0.13080000000000003          29.078310012817806
  0.13190000000000002          125.62632751463971
  0.13300000000000001          221.32478332517746
  0.13410000000000000          315.01449584958254
  0.13520000000000004          405.55657958980817
  0.13630000000000003          491.81533813472169
  0.13740000000000002          572.67059326166691
  0.13850000000000001          647.06378173822213
  0.13960000000000000          714.03228759759054
  0.14070000000000005          772.72143554680349
  0.14180000000000004          822.39703369132974
  0.14290000000000003          862.47277832023178
  0.14400000000000002          892.53460693350985
  0.14510000000000001          912.35565185538269
  0.14620000000000000          921.88970947256894
  0.14730000000000004          921.24792480459985
  0.14840000000000003          910.68841552725678
  0.14950000000000002          890.61785888663337
  0.15060000000000001          861.59460449210451
  0.15170000000000000          824.30322265617031
  0.15280000000000005          779.51019287101815
  0.15390000000000004          728.02862548821031
  0.15500000000000003          670.71795654290315
  0.15610000000000002          608.51202392572134
  0.15720000000000001          542.44488525385248
  0.15830000000000000          473.63446044917146
  0.15940000000000004          403.22427368159993
  0.16050000000000003          332.31369018551294
  0.16160000000000002          261.91256713864465
  0.16270000000000001          192.93592834470596
  0.16380000000000000          126.21544647215381
  0.16490000000000005          62.507545471183441
  0.16600000000000004          2.5045943260171746
  0.16710000000000003         -53.179111480709558
  0.16820000000000002         -104.01889038085105
  0.16930000000000001         -149.60005187986999
  0.17040000000000000         -189.62493896482692
  0.17150000000000004         -223.92016601560471
  0.17260000000000003         -252.43234252927365
  0.17370000000000002         -275.21469116208380
  0.17480000000000001         -292.42758178708198
  0.17590000000000000         -304.32446289059629
  0.17700000000000005         -311.27807617184544
  0.17810000000000004         -313.74224853512629
  0.17920000000000003         -312.19519042965760
  0.18030000000000002         -307.09429931637675
  0.18140000000000001         -298.85839843747124
  0.18250000000000000         -287.93347167965970
  0.18360000000000004         -274.87039184567652
  0.18470000000000003         -260.31414794919345
  0.18580000000000002         -244.92288208005431
  0.18690000000000001         -229.23046874997775
  0.18800000000000000         -213.59356689451056
  0.18910000000000005         -198.27516174314493
  0.19020000000000004         -183.56898498533386
  0.19130000000000003         -169.87196350096019
  0.19240000000000002         -157.57202148435982
  0.19350000000000001         -146.89074707029840
  0.19460000000000005         -137.81773376463534
  0.19570000000000004         -130.17800903319085
  0.19680000000000003         -123.84983062742978
  0.19790000000000002         -118.81578063963732
  0.19900000000000001         -115.09403228758691
  0.20010000000000000         -112.55169677733329
  0.20120000000000005         -110.83877563475536
  0.20230000000000004         -109.52108001707970
  0.20340000000000003         -108.28773498534147
  0.20450000000000002         -107.02468109129850
  0.20560000000000000         -105.68955230711884
  0.20670000000000005         -104.08282470702127
  0.20780000000000004         -101.76782226561519
  0.20890000000000003         -98.249710082998263
