 -0.12000000000000000          0.0000000000000000
 -0.11889999999999999          0.0000000000000000
 -0.11780000000000000          0.0000000000000000
 -0.11670000000000000          0.0000000000000000
 -0.11559999999999999          0.0000000000000000
 -0.11449999999999999          0.0000000000000000
 -0.11340000000000000          0.0000000000000000
 -0.11230000000000000         -2.9425049452336739E-022
 -0.11119999999999999         -2.4335564764017710E-021
 -0.11009999999999999         -6.6546159253040396E-021
 -0.10900000000000000          5.4523904921084755E-021
 -0.10790000000000000          8.7971575798506544E-020
 -0.10679999999999999          2.4479903580381665E-019
 -0.10569999999999999          1.4135827782177351E-019
 -0.10460000000000000         -1.0573471335135110E-018
 -0.10349999999999999         -3.6911797461836600E-018
 -0.10239999999999999         -4.9175407651522215E-018
 -0.10130000000000000          2.8468977948515579E-018
 -0.10020000000000000          2.5568326441942722E-017
  -9.9099999999999994E-002     5.0347625149905811E-017
  -9.7999999999999990E-002     3.2252212143528427E-017
  -9.6899999999999986E-002    -8.0669922353952068E-017
  -9.5799999999999996E-002    -2.6581320605960476E-016
  -9.4699999999999993E-002    -3.4319067164290996E-016
  -9.3599999999999989E-002    -2.8631556575600120E-017
  -9.2499999999999999E-002     7.7736152272731875E-016
  -9.1399999999999995E-002     1.6074368703775880E-015
  -9.0299999999999991E-002     1.3984426079500221E-015
  -8.9200000000000002E-002    -7.5769733521945494E-016
  -8.8099999999999984E-002    -4.2958851401283735E-015
  -8.6999999999999994E-002    -6.4584508869939584E-015
  -8.5899999999999990E-002    -3.6054651966896042E-015
  -8.4799999999999986E-002     5.3512826866930745E-015
  -8.3699999999999997E-002     1.5787975852880887E-014
  -8.2599999999999993E-002     1.8294122727108286E-014
  -8.1499999999999989E-002     5.3883437662672392E-015
  -8.0399999999999999E-002    -1.9692362364788323E-014
  -7.9299999999999995E-002    -4.0328773442477664E-014
  -7.8199999999999992E-002    -3.6082045012410247E-014
  -7.7100000000000002E-002    -6.8388926647587936E-016
  -7.5999999999999984E-002     4.6101038703736177E-014
  -7.4899999999999994E-002     6.7547028625818128E-014
  -7.3799999999999991E-002     3.9361939543295504E-014
  -7.2699999999999987E-002    -2.2658200795754209E-014
  -7.1599999999999997E-002    -6.5855022715437250E-014
  -7.0499999999999993E-002    -4.3140336680562441E-014
  -6.9399999999999989E-002     3.4908199649050925E-014
  -6.8300000000000000E-002     8.9478907139631247E-014
  -6.7199999999999996E-002     3.2126706080593675E-014
  -6.6099999999999992E-002    -1.4108119783095424E-013
  -6.5000000000000002E-002    -3.0318678340482408E-013
  -6.3899999999999985E-002    -2.6439795990616799E-013
  -6.2799999999999995E-002     6.7885502991540947E-014
  -6.1699999999999991E-002     5.5694446450538226E-013
  -6.0599999999999994E-002     8.6591015390977133E-013
  -5.9499999999999990E-002     6.7369829333252529E-013
  -5.8399999999999994E-002    -5.8004667150175770E-014
  -5.7299999999999990E-002    -9.8126411510190970E-013
  -5.6199999999999986E-002    -1.5424580016021316E-012
  -5.5099999999999996E-002    -1.3495157682313907E-012
  -5.3999999999999992E-002    -4.5777455177226090E-013
  -5.2899999999999989E-002     6.5896940681930971E-013
  -5.1799999999999985E-002     1.4469810983089304E-012
  -5.0699999999999995E-002     1.6566190693539928E-012
  -4.9599999999999991E-002     1.4542260624861303E-012
  -4.8499999999999988E-002     1.1646764282169375E-012
  -4.7399999999999998E-002     8.7352954730723908E-013
  -4.6299999999999994E-002     2.6877268856709269E-013
  -4.5199999999999990E-002    -1.0758725724549500E-012
  -4.4099999999999986E-002    -3.1588280168665106E-012
  -4.2999999999999997E-002    -5.2075175768773185E-012
  -4.1899999999999993E-002    -5.9061002616322966E-012
  -4.0799999999999989E-002    -4.1534223976791296E-012
  -3.9699999999999985E-002     1.1976425168432059E-013
  -3.8599999999999995E-002     5.6516766093472892E-012
  -3.7499999999999992E-002     1.0328861030362013E-011
  -3.6399999999999988E-002     1.2187816728070899E-011
  -3.5299999999999984E-002     1.0338742882642915E-011
  -3.4199999999999994E-002     5.2779191607454923E-012
  -3.3099999999999991E-002    -1.5304228153864563E-012
  -3.1999999999999987E-002    -8.4583633500057154E-012
  -3.0899999999999997E-002    -1.4357202059167573E-011
  -2.9799999999999993E-002    -1.8662628734067432E-011
  -2.8699999999999989E-002    -2.0994039839905554E-011
  -2.7599999999999986E-002    -2.0642968237560844E-011
  -2.6499999999999996E-002    -1.6416252038298218E-011
  -2.5399999999999992E-002    -7.0174174630899255E-012
  -2.4299999999999988E-002     8.3083800256344986E-012
  -2.3199999999999985E-002     2.9445917926196330E-011
  -2.2099999999999995E-002     5.5853804220573622E-011
  -2.0999999999999991E-002     8.7682729132954051E-011
  -1.9899999999999987E-002     1.2684113481764570E-010
  -1.8799999999999983E-002     1.7709395061515920E-010
  -1.7699999999999994E-002     2.4281740507170468E-010
  -1.6599999999999990E-002     3.2703359464925086E-010
  -1.5499999999999986E-002     4.3009099059965195E-010
  -1.4399999999999996E-002     5.5017673750157314E-010
  -1.3299999999999992E-002     6.8572070244243832E-010
  -1.2199999999999989E-002     8.3843726406129804E-010
  -1.1099999999999985E-002     1.0152625407044980E-009
  -9.9999999999999950E-003     1.2282198591506699E-009
  -8.8999999999999913E-003     1.4927170610690155E-009
  -7.7999999999999875E-003     1.8257858558357043E-009
  -6.6999999999999837E-003     2.2454960113549305E-009
  -5.5999999999999939E-003     2.7715063577460342E-009
  -4.4999999999999901E-003     3.4256029124435372E-009
  -3.3999999999999864E-003     4.2311563142050090E-009
  -2.2999999999999826E-003     5.2117128390705147E-009
  -1.1999999999999927E-003     6.3902687585937201E-009
  -9.9999999999988987E-005     7.7908994811082266E-009
   1.0000000000000148E-003     9.4430179231608236E-009
   2.1000000000000185E-003     1.1386609877206411E-008
   3.2000000000000084E-003     1.3675853338668276E-008
   4.3000000000000121E-003     1.6379374301322969E-008
   5.4000000000000159E-003     1.9577411691784619E-008
   6.5000000000000058E-003     2.3357999978657062E-008
   7.6000000000000234E-003     2.7814584413476950E-008
   8.7000000000000133E-003     3.3046330116803802E-008
   9.8000000000000032E-003     3.9160628517720397E-008
   1.0900000000000021E-002     4.6276159793023908E-008
   1.2000000000000011E-002     5.4525017390005814E-008
   1.3100000000000001E-002     6.4053367054839327E-008
   1.4200000000000018E-002     7.5021304724032234E-008
   1.5300000000000008E-002     8.7602913367845758E-008
   1.6400000000000026E-002     1.0198726840826566E-007
   1.7500000000000016E-002     1.1837987301532849E-007
   1.8600000000000005E-002     1.3700341128242144E-007
   1.9700000000000023E-002     1.5809639819508448E-007
   2.0800000000000013E-002     1.8190938533280132E-007
   2.1900000000000003E-002     2.0869980232873786E-007
   2.3000000000000020E-002     2.3872746623965213E-007
   2.4100000000000010E-002     2.7225246412854176E-007
   2.5200000000000000E-002     3.0953515306464396E-007
   2.6300000000000018E-002     3.5083627381027327E-007
   2.7400000000000008E-002     3.9641454918637464E-007
   2.8500000000000025E-002     4.4652040287473937E-007
   2.9600000000000015E-002     5.0138692131440621E-007
   3.0700000000000005E-002     5.6122081559806247E-007
   3.1800000000000023E-002     6.2619494656246388E-007
   3.2900000000000013E-002     6.9644306677218992E-007
   3.4000000000000002E-002     7.7205334036989370E-007
   3.5100000000000020E-002     8.5305958918979741E-007
   3.6200000000000010E-002     9.3943003776075784E-007
   3.7300000000000028E-002     1.0310552625014680E-006
   3.8400000000000017E-002     1.1277392104602768E-006
   3.9500000000000007E-002     1.2291932307562092E-006
   4.0600000000000025E-002     1.3350313565752003E-006
   4.1700000000000015E-002     1.4447647345150472E-006
   4.2800000000000005E-002     1.5577934391330928E-006
   4.3900000000000022E-002     1.6733969232518575E-006
   4.5000000000000012E-002     1.7907273104356136E-006
   4.6100000000000002E-002     1.9088074623141438E-006
   4.7200000000000020E-002     2.0265338207536843E-006
   4.8300000000000010E-002     2.1426822058856487E-006
   4.9400000000000027E-002     2.2559161152457818E-006
   5.0500000000000017E-002     2.3647926354897209E-006
   5.1600000000000007E-002     2.4677710825926624E-006
   5.2700000000000025E-002     2.5632220967963804E-006
   5.3800000000000014E-002     2.6494421945244540E-006
   5.4900000000000004E-002     2.7246728677710053E-006
   5.6000000000000022E-002     2.7871228667208925E-006
   5.7100000000000012E-002     2.8349948024697369E-006
   5.8200000000000002E-002     2.8665133413596777E-006
   5.9300000000000019E-002     2.8799561277992325E-006
   6.0400000000000009E-002     2.8736842523358064E-006
   6.1500000000000027E-002     2.8461761303333333E-006
   6.2600000000000017E-002     2.7960600164078642E-006
   6.3700000000000007E-002     2.7221487925999099E-006
   6.4800000000000024E-002     2.6234720280626789E-006
   6.5900000000000014E-002     2.4993059923872352E-006
   6.7000000000000004E-002     2.3491998035751749E-006
   6.8100000000000022E-002     2.1729993022745475E-006
   6.9200000000000012E-002     1.9708702438947512E-006
   7.0300000000000029E-002     1.7433192169846734E-006
   7.1400000000000019E-002     1.4912111510057002E-006
   7.2500000000000009E-002     1.2157784112787340E-006
   7.3600000000000027E-002     9.1862159479205729E-007
   7.4700000000000016E-002     6.0170009419380222E-007
   7.5800000000000006E-002     2.6731615321295976E-007
   7.6900000000000024E-002    -8.1905945137350500E-008
   7.8000000000000014E-002    -4.4304621837909508E-007
   7.9100000000000004E-002    -8.1292205322824884E-007
   8.0200000000000021E-002    -1.1881290902238106E-006
   8.1300000000000011E-002    -1.5650891782570397E-006
   8.2400000000000029E-002    -1.9401029476284748E-006
   8.3500000000000019E-002    -2.3094037260307232E-006
   8.4600000000000009E-002    -2.6692141545936465E-006
   8.5700000000000026E-002    -3.0158055324136512E-006
   8.6800000000000016E-002    -3.3455603443144355E-006
   8.7900000000000006E-002    -3.6550370623444906E-006
   8.9000000000000024E-002    -3.9410351746482775E-006
   9.0100000000000013E-002    -4.2006554394902196E-006
   9.1200000000000003E-002    -4.4313574107945897E-006
   9.2300000000000021E-002    -4.6310083234857302E-006
   9.3400000000000011E-002    -4.7979297050915193E-006
   9.4500000000000028E-002    -4.9309301175526343E-006
   9.5600000000000018E-002    -5.0293333515583072E-006
   9.6700000000000008E-002    -5.0929934332089033E-006
   9.7800000000000026E-002    -5.1222991714894306E-006
   9.8900000000000016E-002    -5.1181700655433815E-006
  0.10000000000000001         -5.0820435717469081E-006
  0.10110000000000002         -5.0158528210886288E-006
  0.10220000000000001         -4.9219920583709609E-006
  0.10330000000000003         -4.8032766244432423E-006
  0.10440000000000002         -4.6628920244984329E-006
  0.10550000000000001         -4.5043348109174985E-006
  0.10660000000000003         -4.3313498281349894E-006
  0.10770000000000002         -4.1478529055893887E-006
  0.10880000000000001         -3.9578521864314098E-006
  0.10990000000000003         -3.7653624076483538E-006
  0.11100000000000002         -3.5743264561460819E-006
  0.11210000000000001         -3.3885366974573117E-006
  0.11320000000000002         -3.2115626709128264E-006
  0.11430000000000001         -3.0466765110759297E-006
  0.11540000000000003         -2.8967820071557071E-006
  0.11650000000000002         -2.7643457087833667E-006
  0.11760000000000001         -2.6513419015827822E-006
  0.11870000000000003         -2.5592096335458336E-006
  0.11980000000000002         -2.4888215648388723E-006
  0.12090000000000001         -2.4404605483141495E-006
  0.12200000000000003         -2.4138021217368077E-006
  0.12310000000000001         -2.4079104150587227E-006
  0.12420000000000003         -2.4212463358708192E-006
  0.12530000000000002         -2.4516957637388259E-006
  0.12640000000000001         -2.4966070668597240E-006
  0.12750000000000003         -2.5528388505335897E-006
  0.12860000000000002         -2.6168106614932185E-006
  0.12970000000000001         -2.6845636966754682E-006
  0.13080000000000003         -2.7518342449184274E-006
  0.13190000000000002         -2.8141419079474872E-006
  0.13300000000000001         -2.8668835057032993E-006
  0.13410000000000000         -2.9054292554064887E-006
  0.13520000000000004         -2.9252134936541552E-006
  0.13630000000000003         -2.9218265353847528E-006
  0.13740000000000002         -2.8911065328429686E-006
  0.13850000000000001         -2.8292354272707598E-006
  0.13960000000000000         -2.7328289888828294E-006
  0.14070000000000005         -2.5990198082581628E-006
  0.14180000000000004         -2.4255257358163362E-006
  0.14290000000000003         -2.2107105905888602E-006
  0.14400000000000002         -1.9536366835382069E-006
  0.14510000000000001         -1.6541108607270871E-006
  0.14620000000000000         -1.3127148577041226E-006
  0.14730000000000004         -9.3081808927308884E-007
  0.14840000000000003         -5.1057122618658468E-007
  0.14950000000000002         -5.4885195055476288E-008
  0.15060000000000001          4.3259984749965952E-007
  0.15170000000000000          9.4755597501716693E-007
  0.15280000000000005          1.4850241996100522E-006
  0.15390000000000004          2.0394900275277905E-006
  0.15500000000000003          2.6049740426969947E-006
  0.15610000000000002          3.1751324058859609E-006
  0.15720000000000001          3.7433585475810105E-006
  0.15830000000000000          4.3028899199271109E-006
  0.15940000000000004          4.8469182729604654E-006
  0.16050000000000003          5.3687103900301736E-006
  0.16160000000000002          5.8617301874619443E-006
  0.16270000000000001          6.3197526287694927E-006
  0.16380000000000000          6.7369714997767005E-006
  0.16490000000000005          7.1080917223298457E-006
  0.16600000000000004          7.4284203037677798E-006
  0.16710000000000003          7.6939513746765442E-006
  0.16820000000000002          7.9014416769496165E-006
  0.16930000000000001          8.0484669524594210E-006
  0.17040000000000000          8.1334583228453994E-006
  0.17150000000000004          8.1557109297136776E-006
  0.17260000000000003          8.1153912105946802E-006
  0.17370000000000002          8.0135278039961122E-006
  0.17480000000000001          7.8519951784983277E-006
  0.17590000000000000          7.6334699770086445E-006
  0.17700000000000005          7.3613737185951322E-006
  0.17810000000000004          7.0397973104263656E-006
  0.17920000000000003          6.6734155552694574E-006
  0.18030000000000002          6.2674025684827939E-006
  0.18140000000000001          5.8273399190511554E-006
  0.18250000000000000          5.3591174946632236E-006
  0.18360000000000004          4.8688243623473682E-006
  0.18470000000000003          4.3626369006233290E-006
  0.18580000000000002          3.8467146623588633E-006
  0.18690000000000001          3.3271048778260592E-006
  0.18800000000000000          2.8096537789679132E-006
  0.18910000000000005          2.2999201974016614E-006
  0.19020000000000004          1.8030906403510016E-006
  0.19130000000000003          1.3239016425359296E-006
  0.19240000000000002          8.6657951214874629E-007
  0.19350000000000001          4.3479744249452779E-007
  0.19460000000000005          3.1646216314129560E-008
  0.19570000000000004         -3.4038640706057777E-007
  0.19680000000000003         -6.7942789883090882E-007
  0.19790000000000002         -9.8422071914683329E-007
  0.19900000000000001         -1.2541056548798224E-006
  0.20010000000000000         -1.4889920976202120E-006
  0.20120000000000005         -1.6893202428036602E-006
  0.20230000000000004         -1.8560210719442694E-006
  0.20340000000000003         -1.9904741748177912E-006
  0.20450000000000002         -2.0944569314451655E-006
  0.20560000000000000         -2.1700845991290407E-006
  0.20670000000000005         -2.2197407361090882E-006
  0.20780000000000004         -2.2460112631961238E-006
  0.20890000000000003         -2.2516226181323873E-006
