 -0.12000000000000000          0.0000000000000000
 -0.11889999999999999          0.0000000000000000
 -0.11780000000000000          0.0000000000000000
 -0.11670000000000000          0.0000000000000000
 -0.11559999999999999          0.0000000000000000
 -0.11449999999999999          0.0000000000000000
 -0.11340000000000000          0.0000000000000000
 -0.11230000000000000          0.0000000000000000
 -0.11119999999999999         -1.0134528392671453E-023
 -0.11009999999999999         -6.5571311199659195E-023
 -0.10900000000000000         -8.8587438825636766E-023
 -0.10790000000000000          5.9031665654974043E-022
 -0.10679999999999999          3.1391041784570323E-021
 -0.10569999999999999          5.7653018510654187E-021
 -0.10460000000000000         -3.0149638767274646E-021
 -0.10349999999999999         -4.0848379077544868E-020
 -0.10239999999999999         -9.4875528921255285E-020
 -0.10130000000000000         -6.5730214241210025E-020
 -0.10020000000000000          2.0314159977018676E-019
  -9.9099999999999994E-002     6.8564820028761468E-019
  -9.7999999999999990E-002     8.4655726670329406E-019
  -9.6899999999999986E-002    -2.1118184702299048E-019
  -9.5799999999999996E-002    -2.6057944986270516E-018
  -9.4699999999999993E-002    -4.2450818046353999E-018
  -9.3599999999999989E-002    -1.4762820605228831E-018
  -9.2499999999999999E-002     6.4409340702824497E-018
  -9.1399999999999995E-002     1.2229054719596212E-017
  -9.0299999999999991E-002     3.5600331551955214E-018
  -8.9200000000000002E-002    -2.0792589249200466E-017
  -8.8099999999999984E-002    -3.4128793785835628E-017
  -8.6999999999999994E-002     6.1208263401626974E-018
  -8.5899999999999990E-002     1.0229604330844874E-016
  -8.4799999999999986E-002     1.5873897710380060E-016
  -8.3699999999999997E-002     1.7199121453645551E-017
  -8.2599999999999993E-002    -3.6372846775674817E-016
  -8.1499999999999989E-002    -7.0568173014283800E-016
  -8.0399999999999999E-002    -4.6623652738236160E-016
  -7.9299999999999995E-002     6.6616880782372737E-016
  -7.8199999999999992E-002     2.1167446525509163E-015
  -7.7100000000000002E-002     2.3632579217397563E-015
  -7.5999999999999984E-002     6.5440217022760545E-017
  -7.4899999999999994E-002    -4.1122860901297940E-015
  -7.3799999999999991E-002    -6.7714935119919401E-015
  -7.2699999999999987E-002    -3.8664360477386542E-015
  -7.1599999999999997E-002     4.9742369816511370E-015
  -7.0499999999999993E-002     1.3623550021663131E-014
  -6.9399999999999989E-002     1.2474000951362852E-014
  -6.8300000000000000E-002    -2.6574549106942770E-015
  -6.7199999999999996E-002    -2.2659550966272132E-014
  -6.6099999999999992E-002    -2.8024125717489995E-014
  -6.5000000000000002E-002    -5.1708862682680636E-015
  -6.3899999999999985E-002     3.5198782771935985E-014
  -6.2799999999999995E-002     5.7461569953187047E-014
  -6.1699999999999991E-002     2.7900275948074260E-014
  -6.0599999999999994E-002    -4.7306542770532076E-014
  -5.9499999999999990E-002    -1.0957493999609255E-013
  -5.8399999999999994E-002    -8.6531442547357201E-014
  -5.7299999999999990E-002     3.6978199094341718E-014
  -5.6199999999999986E-002     1.7767280431190552E-013
  -5.5099999999999996E-002     1.9907194653574073E-013
  -5.3999999999999992E-002     3.0993287905740907E-014
  -5.2899999999999989E-002    -2.3228855362648904E-013
  -5.1799999999999985E-002    -3.6528069523138196E-013
  -5.0699999999999995E-002    -1.9026449795019051E-013
  -4.9599999999999991E-002     2.2870716280022629E-013
  -4.8499999999999988E-002     5.6788026971815730E-013
  -4.7399999999999998E-002     4.7754302682362360E-013
  -4.6299999999999994E-002    -8.6364678700701775E-014
  -4.5199999999999990E-002    -7.3109552266303890E-013
  -4.4099999999999986E-002    -8.8229309925733079E-013
  -4.2999999999999997E-002    -2.8173532842616644E-013
  -4.1899999999999993E-002     6.9235822587263018E-013
  -4.0799999999999989E-002     1.2353908044118733E-012
  -3.9699999999999985E-002     7.7911630055535475E-013
  -3.8599999999999995E-002    -4.2752601589132744E-013
  -3.7499999999999992E-002    -1.3933279443406610E-012
  -3.6399999999999988E-002    -1.1790934981853463E-012
  -3.5299999999999984E-002     2.0417716996290469E-013
  -3.4199999999999994E-002     1.6298886068924490E-012
  -3.3099999999999991E-002     1.7179666977201746E-012
  -3.1999999999999987E-002     9.3474768127644464E-014
  -3.0899999999999997E-002    -2.0767320155212765E-012
  -2.9799999999999993E-002    -2.8936453927430605E-012
  -2.8699999999999989E-002    -1.3417004052912462E-012
  -2.7599999999999986E-002     1.6619116022589808E-012
  -2.6499999999999996E-002     3.8203134232472902E-012
  -2.5399999999999992E-002     3.3035345292642404E-012
  -2.4299999999999988E-002     3.6194831853908482E-013
  -2.3199999999999985E-002    -2.7585282148800960E-012
  -2.2099999999999995E-002    -3.6492206825777807E-012
  -2.0999999999999991E-002    -1.7902570701930354E-012
  -1.9899999999999987E-002     9.9962475363229997E-013
  -1.8799999999999983E-002     2.1763986012696135E-012
  -1.7699999999999994E-002     7.5488703829562631E-013
  -1.6599999999999990E-002    -1.7856266595547843E-012
  -1.5499999999999986E-002    -2.8215604765818858E-012
  -1.4399999999999996E-002    -9.6553917205283168E-013
  -1.3299999999999992E-002     2.6353014822427800E-012
  -1.2199999999999989E-002     5.2425915171572246E-012
  -1.1099999999999985E-002     4.8288638712645771E-012
  -9.9999999999999950E-003     1.6614794392730281E-012
  -8.8999999999999913E-003    -2.1542021638731867E-012
  -7.7999999999999875E-003    -4.5580973891123922E-012
  -6.6999999999999837E-003    -4.9975908827937232E-012
  -5.5999999999999939E-003    -4.2409795293629760E-012
  -4.4999999999999901E-003    -3.0704687924154594E-012
  -3.3999999999999864E-003    -1.4393692401165614E-012
  -2.2999999999999826E-003     1.0249130103640036E-012
  -1.1999999999999927E-003     3.9304085160118962E-012
  -9.9999999999988987E-005     5.9365767510199952E-012
   1.0000000000000148E-003     5.9281832914814814E-012
   2.1000000000000185E-003     4.2916781239910051E-012
   3.2000000000000084E-003     2.6504421487411056E-012
   4.3000000000000121E-003     2.0092042179314928E-012
   5.4000000000000159E-003     1.2543178301571700E-012
   6.5000000000000058E-003    -1.9617643013530861E-012
   7.6000000000000234E-003    -8.2646398405494814E-012
   8.7000000000000133E-003    -1.4422669655789200E-011
   9.8000000000000032E-003    -1.4852209739846245E-011
   1.0900000000000021E-002    -6.3511500746071814E-012
   1.2000000000000011E-002     7.9013106821235191E-012
   1.3100000000000001E-002     1.9208148960281335E-011
   1.4200000000000018E-002     1.9219683136673105E-011
   1.5300000000000008E-002     6.1783976372520311E-012
   1.6400000000000026E-002    -1.3974663440330382E-011
   1.7500000000000016E-002    -3.2860183324379122E-011
   1.8600000000000005E-002    -4.6719447754917098E-011
   1.9700000000000023E-002    -5.8890108067810587E-011
   2.0800000000000013E-002    -7.5493528095549323E-011
   2.1900000000000003E-002    -9.8581545704412576E-011
   2.3000000000000020E-002    -1.2357906364890425E-010
   2.4100000000000010E-002    -1.4391098035471117E-010
   2.5200000000000000E-002    -1.5879780823624401E-010
   2.6300000000000018E-002    -1.7692157461279834E-010
   2.7400000000000008E-002    -2.1224781654449743E-010
   2.8500000000000025E-002    -2.7542249037004751E-010
   2.9600000000000015E-002    -3.6809943981808146E-010
   3.0700000000000005E-002    -4.8466625157672638E-010
   3.1800000000000023E-002    -6.1909383175517974E-010
   3.2900000000000013E-002    -7.7057960012894000E-010
   3.4000000000000002E-002    -9.4387819782326687E-010
   3.5100000000000020E-002    -1.1459412307956995E-009
   3.6200000000000010E-002    -1.3836715107018449E-009
   3.7300000000000028E-002    -1.6652577095044307E-009
   3.8400000000000017E-002    -2.0027539626710222E-009
   3.9500000000000007E-002    -2.4119142238987479E-009
   4.0600000000000025E-002    -2.9086861808025333E-009
   4.1700000000000015E-002    -3.5062786007955538E-009
   4.2800000000000005E-002    -4.2168224467786786E-009
   4.3900000000000022E-002    -5.0566484333103290E-009
   4.5000000000000012E-002    -6.0494582676540176E-009
   4.6100000000000002E-002    -7.2229733305562149E-009
   4.7200000000000020E-002    -8.6016136435773660E-009
   4.8300000000000010E-002    -1.0203268452357861E-008
   4.9400000000000027E-002    -1.2045646258229681E-008
   5.0500000000000017E-002    -1.4158419325838167E-008
   5.1600000000000007E-002    -1.6590332663213303E-008
   5.2700000000000025E-002    -1.9403657347538683E-008
   5.3800000000000014E-002    -2.2659799370217115E-008
   5.4900000000000004E-002    -2.6408901732111190E-008
   5.6000000000000022E-002    -3.0693303898488011E-008
   5.7100000000000012E-002    -3.5561857458787927E-008
   5.8200000000000002E-002    -4.1081396062736530E-008
   5.9300000000000019E-002    -4.7333998054455151E-008
   6.0400000000000009E-002    -5.4402406135523051E-008
   6.1500000000000027E-002    -6.2357734975648782E-008
   6.2600000000000017E-002    -7.1261752054851968E-008
   6.3700000000000007E-002    -8.1181795508200594E-008
   6.4800000000000024E-002    -9.2203684687319765E-008
   6.5900000000000014E-002    -1.0442970221902215E-007
   6.7000000000000004E-002    -1.1796278442943731E-007
   6.8100000000000022E-002    -1.3289114519920986E-007
   6.9200000000000012E-002    -1.4928615144071955E-007
   7.0300000000000029E-002    -1.6721263307317713E-007
   7.1400000000000019E-002    -1.8673904378374573E-007
   7.2500000000000009E-002    -2.0793585520095803E-007
   7.3600000000000027E-002    -2.3086445821718371E-007
   7.4700000000000016E-002    -2.5556786908964568E-007
   7.5800000000000006E-002    -2.8207190894136147E-007
   7.6900000000000024E-002    -3.1039209602568008E-007
   7.8000000000000014E-002    -3.4053437047987245E-007
   7.9100000000000004E-002    -3.7248432249725738E-007
   8.0200000000000021E-002    -4.0619357832838432E-007
   8.1300000000000011E-002    -4.4157698653179978E-007
   8.2400000000000029E-002    -4.7852461193542695E-007
   8.3500000000000019E-002    -5.1691500857486972E-007
   8.4600000000000009E-002    -5.5661354281255626E-007
   8.5700000000000026E-002    -5.9745349290096783E-007
   8.6800000000000016E-002    -6.3921652326826006E-007
   8.7900000000000006E-002    -6.8163279820510070E-007
   8.9000000000000024E-002    -7.2440218445990467E-007
   9.0100000000000013E-002    -7.6721624964193325E-007
   9.1200000000000003E-002    -8.0975871696864488E-007
   9.2300000000000021E-002    -8.5168215946396231E-007
   9.3400000000000011E-002    -8.9258560365124140E-007
   9.4500000000000028E-002    -9.3201788331498392E-007
   9.5600000000000018E-002    -9.6950816441676579E-007
   9.6700000000000008E-002    -1.0045971521321917E-006
   9.7800000000000026E-002    -1.0368401035520947E-006
   9.8900000000000016E-002    -1.0657844313755049E-006
  0.10000000000000001         -1.0909484444709960E-006
  0.10110000000000002         -1.1118316933789174E-006
  0.10220000000000001         -1.1279551017651102E-006
  0.10330000000000003         -1.1388959819669253E-006
  0.10440000000000002         -1.1442881486800616E-006
  0.10550000000000001         -1.1437913371992181E-006
  0.10660000000000003         -1.1370647143849055E-006
  0.10770000000000002         -1.1237805210839724E-006
  0.10880000000000001         -1.1036710247935844E-006
  0.10990000000000003         -1.0765692195491283E-006
  0.11100000000000002         -1.0424055290059187E-006
  0.11210000000000001         -1.0011716540248017E-006
  0.11320000000000002         -9.5289209411930642E-007
  0.11430000000000001         -8.9763892674454837E-007
  0.11540000000000003         -8.3557836205727654E-007
  0.11650000000000002         -7.6700035833709990E-007
  0.11760000000000001         -6.9229582777552423E-007
  0.11870000000000003         -6.1189797406768776E-007
  0.11980000000000002         -5.2624460522565641E-007
  0.12090000000000001         -4.3579890984801750E-007
  0.12200000000000003         -3.4110669844267250E-007
  0.12310000000000001         -2.4282692834276531E-007
  0.12420000000000003         -1.4169407336339646E-007
  0.12530000000000002         -3.8437732996499108E-008
  0.12640000000000001          6.6270573029214574E-008
  0.12750000000000003          1.7179924327592744E-007
  0.12860000000000002          2.7749564424084383E-007
  0.12970000000000001          3.8265739021881018E-007
  0.13080000000000003          4.8658108653398813E-007
  0.13190000000000002          5.8865521168627311E-007
  0.13300000000000001          6.8841609390801750E-007
  0.13410000000000000          7.8551840942964191E-007
  0.13520000000000004          8.7965975126280682E-007
  0.13630000000000003          9.7054692105302820E-007
  0.13740000000000002          1.0579516356301610E-006
  0.13850000000000001          1.1418135272833752E-006
  0.13960000000000000          1.2222915302118054E-006
  0.14070000000000005          1.2997165868000593E-006
  0.14180000000000004          1.3744921716352110E-006
  0.14290000000000003          1.4470483620243613E-006
  0.14400000000000002          1.5178997045950382E-006
  0.14510000000000001          1.5877536725383834E-006
  0.14620000000000000          1.6575576182731311E-006
  0.14730000000000004          1.7284277191720321E-006
  0.14840000000000003          1.8015213072430925E-006
  0.14950000000000002          1.8779672927848878E-006
  0.15060000000000001          1.9589153907872969E-006
  0.15170000000000000          2.0456402580748545E-006
  0.15280000000000005          2.1395753719843924E-006
  0.15390000000000004          2.2422227630158886E-006
  0.15500000000000003          2.3550046535092406E-006
  0.15610000000000002          2.4791856958472636E-006
  0.15720000000000001          2.6159264052694198E-006
  0.15830000000000000          2.7663875243888469E-006
  0.15940000000000004          2.9317529879335780E-006
  0.16050000000000003          3.1131075957091525E-006
  0.16160000000000002          3.3112605706264731E-006
  0.16270000000000001          3.5266539271106012E-006
  0.16380000000000000          3.7594213608826976E-006
  0.16490000000000005          4.0095092117553577E-006
  0.16600000000000004          4.2767014747369103E-006
  0.16710000000000003          4.5604956540046260E-006
  0.16820000000000002          4.8599126785120461E-006
  0.16930000000000001          5.1734118642343674E-006
  0.17040000000000000          5.4989604905131273E-006
  0.17150000000000004          5.8341738622402772E-006
  0.17260000000000003          6.1763548728777096E-006
  0.17370000000000002          6.5223794081248343E-006
  0.17480000000000001          6.8685267251566984E-006
  0.17590000000000000          7.2104307946574409E-006
  0.17700000000000005          7.5432021731103305E-006
  0.17810000000000004          7.8616239989059977E-006
  0.17920000000000003          8.1602338468655944E-006
  0.18030000000000002          8.4332395999808796E-006
  0.18140000000000001          8.6743893916718662E-006
  0.18250000000000000          8.8769729700288735E-006
  0.18360000000000004          9.0340281531098299E-006
  0.18470000000000003          9.1386054918984883E-006
  0.18580000000000002          9.1839292508666404E-006
  0.18690000000000001          9.1633755801012740E-006
  0.18800000000000000          9.0703933892655186E-006
  0.18910000000000005          8.8985652837436646E-006
  0.19020000000000004          8.6418649516417645E-006
  0.19130000000000003          8.2949763964279555E-006
  0.19240000000000002          7.8534894782933407E-006
  0.19350000000000001          7.3139030973834451E-006
  0.19460000000000005          6.6735733526002150E-006
  0.19570000000000004          5.9307758419890888E-006
  0.19680000000000003          5.0849635044869501E-006
  0.19790000000000002          4.1370626604475547E-006
  0.19900000000000001          3.0896130738256034E-006
  0.20010000000000000          1.9466988305794075E-006
  0.20120000000000005          7.1380048893843195E-007
  0.20230000000000004         -6.0223362652322976E-007
  0.20340000000000003         -1.9930432699766243E-006
  0.20450000000000002         -3.4485847208998166E-006
  0.20560000000000000         -4.9571326599107124E-006
  0.20670000000000005         -6.5055096456489991E-006
  0.20780000000000004         -8.0794070527190343E-006
  0.20890000000000003         -9.6635903901187703E-006
