 -0.12000000000000000          0.0000000000000000
 -0.11889999999999999          0.0000000000000000
 -0.11780000000000000          0.0000000000000000
 -0.11670000000000000          0.0000000000000000
 -0.11559999999999999          0.0000000000000000
 -0.11449999999999999          0.0000000000000000
 -0.11340000000000000          0.0000000000000000
 -0.11230000000000000          0.0000000000000000
 -0.11119999999999999          0.0000000000000000
 -0.11009999999999999          0.0000000000000000
 -0.10900000000000000          0.0000000000000000
 -0.10790000000000000         -5.3796128305122592E-040
 -0.10679999999999999         -4.2704153113356431E-038
 -0.10569999999999999         -8.8057245734074809E-037
 -0.10460000000000000         -8.9590132626224601E-036
 -0.10349999999999999         -5.6110764948000386E-035
 -0.10239999999999999         -2.3782691245445275E-034
 -0.10130000000000000         -7.0165170556860991E-034
 -0.10020000000000000         -1.3732598877466138E-033
  -9.9099999999999994E-002    -1.2855770090538946E-033
  -9.7999999999999990E-002     1.7095522911275618E-033
  -9.6899999999999986E-002     8.5438713040205565E-033
  -9.5799999999999996E-002     1.2516375851439766E-032
  -9.4699999999999993E-002    -4.4786147421916992E-033
  -9.3599999999999989E-002    -5.5535325473948840E-032
  -9.2499999999999999E-002    -1.0382904150954399E-031
  -9.1399999999999995E-002    -3.2986105338240850E-032
  -9.0299999999999991E-002     2.6509092673896469E-031
  -8.9200000000000002E-002     6.3686327904951769E-031
  -8.8099999999999984E-002     4.4429365343848845E-031
  -8.6999999999999994E-002    -1.1502901532683405E-030
  -8.5899999999999990E-002    -3.9402875327698810E-030
  -8.4799999999999986E-002    -4.6933336641891355E-030
  -8.3699999999999997E-002     3.4792383358349977E-030
  -8.2599999999999993E-002     2.4920966233816899E-029
  -8.1499999999999989E-002     4.2646480648736337E-029
  -8.0399999999999999E-002    -3.9211350622526114E-031
  -7.9299999999999995E-002    -1.6186405995229609E-028
  -7.8199999999999992E-002    -3.3309654130369654E-028
  -7.7100000000000002E-002    -5.5840990586546832E-029
  -7.5999999999999984E-002     1.1656977951965459E-027
  -7.4899999999999994E-002     2.5189944558930248E-027
  -7.3799999999999991E-002     4.7715944744714015E-028
  -7.2699999999999987E-002    -8.8085942013928127E-027
  -7.1599999999999997E-002    -1.9718405705503299E-026
  -7.0499999999999993E-002    -7.0842189886615231E-027
  -6.9399999999999989E-002     5.8572601737917381E-026
  -6.8300000000000000E-002     1.4741761745417465E-025
  -6.7199999999999996E-002     1.0026803593562444E-025
  -6.6099999999999992E-002    -2.9691610206490260E-025
  -6.5000000000000002E-002    -9.4945474311557657E-025
  -6.3899999999999985E-002    -9.9839942076478795E-025
  -6.2799999999999995E-002     9.3780228146933070E-025
  -6.1699999999999991E-002     4.9670248244006502E-024
  -6.0599999999999994E-002     7.2665654071725727E-024
  -5.9499999999999990E-002     1.9863096045918850E-025
  -5.8399999999999994E-002    -2.0169710798382992E-023
  -5.7299999999999990E-002    -4.0531130573952795E-023
  -5.6199999999999986E-002    -2.5334408388413923E-023
  -5.5099999999999996E-002     5.7437663017625706E-023
  -5.3999999999999992E-002     1.7684841545425687E-022
  -5.2899999999999989E-002     1.9557738698294584E-022
  -5.1799999999999985E-002    -6.3693752825473528E-023
  -5.0699999999999995E-002    -5.9597631071525599E-022
  -4.9599999999999991E-002    -9.7393176304079384E-022
  -4.8499999999999988E-002    -4.3444889932671194E-022
  -4.7399999999999998E-002     1.4258022957387390E-021
  -4.6299999999999994E-002     3.6230284647623867E-021
  -4.5199999999999990E-002     3.5147550462231703E-021
  -4.4099999999999986E-002    -1.4603345619579312E-021
  -4.2999999999999997E-002    -1.0198128826407282E-020
  -4.1899999999999993E-002    -1.5389301093288410E-020
  -4.0799999999999989E-002    -6.5333249134334833E-021
  -3.9699999999999985E-002     1.9777694575686825E-020
  -3.8599999999999995E-002     4.8409168536623265E-020
  -3.7499999999999992E-002     4.6553482536414314E-020
  -3.6399999999999988E-002    -1.2602877768624614E-020
  -3.5299999999999984E-002    -1.1188254972345307E-019
  -3.4199999999999994E-002    -1.7136667146048689E-019
  -3.3099999999999991E-002    -8.7955322991939584E-020
  -3.1999999999999987E-002     1.6477684663770370E-019
  -3.0899999999999997E-002     4.4383611367572701E-019
  -2.9799999999999993E-002     4.6333974005002029E-019
  -2.8699999999999989E-002     1.5547213022619694E-021
  -2.7599999999999986E-002    -8.0885344380493794E-019
  -2.6499999999999996E-002    -1.3674447374504528E-018
  -2.5399999999999992E-002    -9.1656605973823755E-019
  -2.4299999999999988E-002     7.7027327474637017E-019
  -2.3199999999999985E-002     2.8039284503664189E-018
  -2.2099999999999995E-002     3.3773654129593643E-018
  -2.0999999999999991E-002     1.0236307347579667E-018
  -1.9899999999999987E-002    -3.7184717433142346E-018
  -1.8799999999999983E-002    -7.6776389828109868E-018
  -1.7699999999999994E-002    -6.6683830961355431E-018
  -1.6599999999999990E-002     1.0305264225369385E-018
  -1.5499999999999986E-002     1.1762194809051896E-017
  -1.4399999999999996E-002     1.7239072622870637E-017
  -1.3299999999999992E-002     1.0014252159705879E-017
  -1.2199999999999989E-002    -9.2869461614931163E-018
  -1.1099999999999985E-002    -2.8950209708612697E-017
  -9.9999999999999950E-003    -3.1990598076835056E-017
  -8.8999999999999913E-003    -9.1384043758132939E-018
  -7.7999999999999875E-003     2.9963873227182130E-017
  -6.6999999999999837E-003     5.8145331052990095E-017
  -5.5999999999999939E-003     4.8054352928386248E-017
  -4.4999999999999901E-003    -4.3334069096728934E-018
  -3.3999999999999864E-003    -6.8734050221946701E-017
  -2.2999999999999826E-003    -9.5791465548246158E-017
  -1.1999999999999927E-003    -5.3332668517703472E-017
  -9.9999999999988987E-005     4.1663545589634205E-017
   1.0000000000000148E-003     1.2433195615584909E-016
   2.1000000000000185E-003     1.2445162602942836E-016
   3.2000000000000084E-003     2.4449796274036266E-017
   4.3000000000000121E-003    -1.1321124735645758E-016
   5.4000000000000159E-003    -1.8059899164830277E-016
   6.5000000000000058E-003    -1.0625573043096049E-016
   7.6000000000000234E-003     7.4739626314542998E-017
   8.7000000000000133E-003     2.2603100667260606E-016
   9.8000000000000032E-003     2.0427053173429607E-016
   1.0900000000000021E-002    -1.7234102921750418E-017
   1.2000000000000011E-002    -2.9459257981066811E-016
   1.3100000000000001E-002    -3.9233779964365021E-016
   1.4200000000000018E-002    -1.6113654356567330E-016
   1.5300000000000008E-002     3.1055764208897437E-016
   1.6400000000000026E-002     7.0265930482879785E-016
   1.7500000000000016E-002     6.5997990865505462E-016
   1.8600000000000005E-002     6.6179934866064666E-017
   1.9700000000000023E-002    -8.0186502122108318E-016
   2.0800000000000013E-002    -1.3821716344288590E-015
   2.1900000000000003E-002    -1.1689030319912111E-015
   2.3000000000000020E-002    -8.1474775707411065E-017
   2.4100000000000010E-002     1.3924716609465897E-015
   2.5200000000000000E-002     2.4071261815945301E-015
   2.6300000000000018E-002     2.2238314281822517E-015
   2.7400000000000008E-002     6.6520451375283755E-016
   2.8500000000000025E-002    -1.7055408616032915E-015
   2.9600000000000015E-002    -3.7796537106441885E-015
   3.0700000000000005E-002    -4.3714929950661868E-015
   3.1800000000000023E-002    -2.7563760769558441E-015
   3.2900000000000013E-002     9.0468550365533544E-016
   3.4000000000000002E-002     5.3765941487394012E-015
   3.5100000000000020E-002     8.5219739183700453E-015
   3.6200000000000010E-002     7.9853082425498240E-015
   3.7300000000000028E-002     2.4243988774549398E-015
   3.8400000000000017E-002    -7.0753407473145291E-015
   3.9500000000000007E-002    -1.6304086580170088E-014
   4.0600000000000025E-002    -1.9032213684818527E-014
   4.1700000000000015E-002    -1.0305052811239706E-014
   4.2800000000000005E-002     9.2680879721566793E-015
   4.3900000000000022E-002     3.1034199597093290E-014
   4.5000000000000012E-002     4.0614196440648051E-014
   4.6100000000000002E-002     2.5765913857253402E-014
   4.7200000000000020E-002    -1.3529225279689840E-014
   4.8300000000000010E-002    -5.9495953357111692E-014
   4.9400000000000027E-002    -8.1881001273969439E-014
   5.0500000000000017E-002    -5.4923930393980733E-014
   5.1600000000000007E-002     2.1892489787699899E-014
   5.2700000000000025E-002     1.1333170052375482E-013
   5.3800000000000014E-002     1.6000816936614232E-013
   5.4900000000000004E-002     1.1200637178810854E-013
   5.6000000000000022E-002    -3.1937153659525319E-014
   5.7100000000000012E-002    -2.0612773098636905E-013
   5.8200000000000002E-002    -3.0090700439168450E-013
   5.9300000000000019E-002    -2.2443741201465250E-013
   6.0400000000000009E-002     2.7817168463421457E-014
   6.1500000000000027E-002     3.4231282088417747E-013
   6.2600000000000017E-002     5.2872073039167411E-013
   6.3700000000000007E-002     4.2617997889418668E-013
   6.4800000000000024E-002     2.0157037863388454E-014
   6.5900000000000014E-002    -5.0711442423773123E-013
   6.7000000000000004E-002    -8.4516465007067332E-013
   6.8100000000000022E-002    -7.2807244174549757E-013
   6.9200000000000012E-002    -1.2197743357901525E-013
   7.0300000000000029E-002     6.9505973242581232E-013
   7.1400000000000019E-002     1.2411442316603849E-012
   7.2500000000000009E-002     1.1001359328730032E-012
   7.3600000000000027E-002     2.1174686624329114E-013
   7.4700000000000016E-002    -1.0057254508366587E-012
   7.5800000000000006E-002    -1.8200380438870845E-012
   7.6900000000000024E-002    -1.5940024907651340E-012
   7.8000000000000014E-002    -2.2526254407802260E-013
   7.9100000000000004E-002     1.6634551808919484E-012
   8.0200000000000021E-002     2.9610237872734757E-012
   8.1300000000000011E-002     2.6693319863518861E-012
   8.2400000000000029E-002     5.6015072137996502E-013
   8.3500000000000019E-002    -2.5174278894118940E-012
   8.4600000000000009E-002    -4.9380599435877581E-012
   8.5700000000000026E-002    -5.1320627435236243E-012
   8.6800000000000016E-002    -2.5254186762635467E-012
   8.7900000000000006E-002     1.9695122269181020E-012
   8.9000000000000024E-002     6.2749085441571317E-012
   9.0100000000000013E-002     8.1912029242792173E-012
   9.1200000000000003E-002     6.6165905220072485E-012
   9.2300000000000021E-002     2.2208285557767660E-012
   9.3400000000000011E-002    -2.8884076120477831E-012
   9.4500000000000028E-002    -6.3823143818531047E-012
   9.5600000000000018E-002    -7.1088035631661217E-012
   9.6700000000000008E-002    -5.7760567162556953E-012
   9.7800000000000026E-002    -4.3963699868088124E-012
   9.8900000000000016E-002    -4.7325407481757509E-012
  0.10000000000000001         -6.7031536571393602E-012
  0.10110000000000002         -7.8808209957870190E-012
  0.10220000000000001         -4.6588683431936229E-012
  0.10330000000000003          5.3749587246298969E-012
  0.10440000000000002          2.1219428991692268E-011
  0.10550000000000001          3.7900349525443744E-011
  0.10660000000000003          4.8246552586395097E-011
  0.10770000000000002          4.6268988640463249E-011
  0.10880000000000001          3.0258833633167725E-011
  0.10990000000000003          3.6203340672558149E-012
  0.11100000000000002         -2.7371200791992401E-011
  0.11210000000000001         -5.7824033755649040E-011
  0.11320000000000002         -8.7988928643145670E-011
  0.11430000000000001         -1.2400253046607190E-010
  0.11540000000000003         -1.7473769653442162E-010
  0.11650000000000002         -2.4634927431321785E-010
  0.11760000000000001         -3.3790253928245306E-010
  0.11870000000000003         -4.4132433818511174E-010
  0.11980000000000002         -5.4662685489148544E-010
  0.12090000000000001         -6.5007987881671170E-010
  0.12200000000000003         -7.6071582366665780E-010
  0.12310000000000001         -9.0086388349064350E-010
  0.12420000000000003         -1.0994947174935987E-009
  0.12530000000000002         -1.3814561716785079E-009
  0.12640000000000001         -1.7586456735330103E-009
  0.12750000000000003         -2.2287640621954097E-009
  0.12860000000000002         -2.7833739757454623E-009
  0.12970000000000001         -3.4215645872137657E-009
  0.13080000000000003         -4.1618015700350952E-009
  0.13190000000000002         -5.0449981969791224E-009
  0.13300000000000001         -6.1265952311373439E-009
  0.13410000000000000         -7.4619759260485807E-009
  0.13520000000000004         -9.0939611396834152E-009
  0.13630000000000003         -1.1050536485868179E-008
  0.13740000000000002         -1.3355324846031635E-008
  0.13850000000000001         -1.6045703432610026E-008
  0.13960000000000000         -1.9188441058304306E-008
  0.14070000000000005         -2.2883625661052065E-008
  0.14180000000000004         -2.7254181134139799E-008
  0.14290000000000003         -3.2426967777610116E-008
  0.14400000000000002         -3.8516922984399571E-008
  0.14510000000000001         -4.5624354072515416E-008
  0.14620000000000000         -5.3847944769813694E-008
  0.14730000000000004         -6.3306487163572456E-008
  0.14840000000000003         -7.4156552898330119E-008
  0.14950000000000002         -8.6595434822811512E-008
  0.15060000000000001         -1.0084728074843952E-007
  0.15170000000000000         -1.1714055858647043E-007
  0.15280000000000005         -1.3569078305408766E-007
  0.15390000000000004         -1.5669905906179338E-007
  0.15500000000000003         -1.8036719495739817E-007
  0.15610000000000002         -2.0691933855232492E-007
  0.15720000000000001         -2.3661461057145061E-007
  0.15830000000000000         -2.6974046818395436E-007
  0.15940000000000004         -3.0658748073619790E-007
  0.16050000000000003         -3.4741836429930117E-007
  0.16160000000000002         -3.9244770277946373E-007
  0.16270000000000001         -4.4184349690112867E-007
  0.16380000000000000         -4.9574720151213114E-007
  0.16490000000000005         -5.5429688927688403E-007
  0.16600000000000004         -6.1763523717672797E-007
  0.16710000000000003         -6.8589054080803180E-007
  0.16820000000000002         -7.5913578712061280E-007
  0.16930000000000001         -8.3734391864709323E-007
  0.17040000000000000         -9.2036054866184713E-007
  0.17150000000000004         -1.0079066896651057E-006
  0.17260000000000003         -1.0996053561029839E-006
  0.17370000000000002         -1.1950127145610168E-006
  0.17480000000000001         -1.2936296798216063E-006
  0.17590000000000000         -1.3948836112831486E-006
  0.17700000000000005         -1.4980834066591342E-006
  0.17810000000000004         -1.6023724356273306E-006
  0.17920000000000003         -1.7067017097360804E-006
  0.18030000000000002         -1.8098381815434550E-006
  0.18140000000000001         -1.9104033981420798E-006
  0.18250000000000000         -2.0069203401362756E-006
  0.18360000000000004         -2.0978468455723487E-006
  0.18470000000000003         -2.1815794752910733E-006
  0.18580000000000002         -2.2564342998521170E-006
  0.18690000000000001         -2.3206291643873556E-006
  0.18800000000000000         -2.3722782316326629E-006
  0.18910000000000005         -2.4094229047477711E-006
  0.19020000000000004         -2.4300848053826485E-006
  0.19130000000000003         -2.4323285288119223E-006
  0.19240000000000002         -2.4143123482645024E-006
  0.19350000000000001         -2.3743173187540378E-006
  0.19460000000000005         -2.3107622837414965E-006
  0.19570000000000004         -2.2222166080609895E-006
  0.19680000000000003         -2.1074299638712546E-006
  0.19790000000000002         -1.9653834897326306E-006
  0.19900000000000001         -1.7953507267520763E-006
  0.20010000000000000         -1.5969549167493824E-006
  0.20120000000000005         -1.3702019714401104E-006
  0.20230000000000004         -1.1154893400089350E-006
  0.20340000000000003         -8.3359935842963750E-007
  0.20450000000000002         -5.2569708941518911E-007
  0.20560000000000000         -1.9334243006596807E-007
  0.20670000000000005          1.6148230486123794E-007
  0.20780000000000004          5.3634357755072415E-007
  0.20890000000000003          9.2834500264871167E-007
