 -0.12000000000000000          0.0000000000000000
 -0.11889999999999999          0.0000000000000000
 -0.11780000000000000          0.0000000000000000
 -0.11670000000000000          0.0000000000000000
 -0.11559999999999999          0.0000000000000000
 -0.11449999999999999          0.0000000000000000
 -0.11340000000000000          0.0000000000000000
 -0.11230000000000000         -5.6826313486563699E-022
 -0.11119999999999999         -2.9052285537804671E-021
 -0.11009999999999999         -3.4336108697588666E-022
 -0.10900000000000000          3.8420526431519305E-020
 -0.10790000000000000          1.3595500481360642E-019
 -0.10679999999999999          1.3000442258326480E-019
 -0.10569999999999999         -4.9996254128534617E-019
 -0.10460000000000000         -2.1303472125535160E-018
 -0.10349999999999999         -3.2478704948593409E-018
 -0.10239999999999999          9.8016849402532270E-019
 -0.10130000000000000          1.5128774407209028E-017
 -0.10020000000000000          3.1906463882371063E-017
  -9.9099999999999994E-002     2.1697177423476206E-017
  -9.7999999999999990E-002    -5.2275597869309707E-017
  -9.6899999999999986E-002    -1.7682696864572216E-016
  -9.5799999999999996E-002    -2.2626870529342930E-016
  -9.4699999999999993E-002     3.4615451023570483E-018
  -9.3599999999999989E-002     5.8196568605365100E-016
  -9.2499999999999999E-002     1.1528338640697314E-015
  -9.1399999999999995E-002     9.0892797405077701E-016
  -9.0299999999999991E-002    -8.1868598382281031E-016
  -8.9200000000000002E-002    -3.5138882295972056E-015
  -8.8099999999999984E-002    -4.9117356910226631E-015
  -8.6999999999999994E-002    -2.1040832040553591E-015
  -8.5899999999999990E-002     5.5902006114438851E-015
  -8.4799999999999986E-002     1.3997397330296237E-014
  -8.3699999999999997E-002     1.4952284676790321E-014
  -8.2599999999999993E-002     2.1528593845647611E-015
  -8.1499999999999989E-002    -2.1140883572283269E-014
  -8.0399999999999999E-002    -3.9658241832640426E-014
  -7.9299999999999995E-002    -3.4369686594372742E-014
  -7.8199999999999992E-002     1.5222048153348345E-015
  -7.7100000000000002E-002     5.1175264113162422E-014
  -7.5999999999999984E-002     8.0268630013157621E-014
  -7.4899999999999994E-002     6.1225879238475250E-014
  -7.3799999999999991E-002    -1.7373422900914806E-015
  -7.2699999999999987E-002    -7.0291672872938027E-014
  -7.1599999999999997E-002    -1.0019425339315852E-013
  -7.0499999999999993E-002    -7.9138511878667356E-014
  -6.9399999999999989E-002    -3.7927685758764110E-014
  -6.8300000000000000E-002    -1.7155222555020888E-014
  -6.7199999999999996E-002    -1.5176587471552733E-014
  -6.6099999999999992E-002     2.7040422310130319E-014
  -6.5000000000000002E-002     1.6975224665597560E-013
  -6.3899999999999985E-002     3.7984640931763847E-013
  -6.2799999999999995E-002     4.8882713198430960E-013
  -6.1699999999999991E-002     2.7891583357156358E-013
  -6.0599999999999994E-002    -3.2651152289710217E-013
  -5.9499999999999990E-002    -1.1048264083116099E-012
  -5.8399999999999994E-002    -1.5673433688065397E-012
  -5.7299999999999990E-002    -1.2274926084257509E-012
  -5.6199999999999986E-002     3.7461861683487502E-014
  -5.5099999999999996E-002     1.7832398968922747E-012
  -5.3999999999999992E-002     3.1361868397389303E-012
  -5.2899999999999989E-002     3.2341377839695262E-012
  -5.1799999999999985E-002     1.7194284190891196E-012
  -5.0699999999999995E-002    -1.0120333390761793E-012
  -4.9599999999999991E-002    -3.9442164811998026E-012
  -4.8499999999999988E-002    -5.8590077234299542E-012
  -4.7399999999999998E-002    -5.8028954905142704E-012
  -4.6299999999999994E-002    -3.4095419629981416E-012
  -4.5199999999999990E-002     9.6511394796078287E-013
  -4.4099999999999986E-002     6.2383271291766018E-012
  -4.2999999999999997E-002     1.0706635231172434E-011
  -4.1899999999999993E-002     1.2353649353480378E-011
  -4.0799999999999989E-002     9.4764907726530012E-012
  -3.9699999999999985E-002     1.5817655345251591E-012
  -3.8599999999999995E-002    -9.7947318658531124E-012
  -3.7499999999999992E-002    -2.0903414416073574E-011
  -3.6399999999999988E-002    -2.6692861462840334E-011
  -3.5299999999999984E-002    -2.2803984395247667E-011
  -3.4199999999999994E-002    -7.9582694600954795E-012
  -3.3099999999999991E-002     1.4445424023623588E-011
  -3.1999999999999987E-002     3.6651959245403987E-011
  -3.0899999999999997E-002     4.9156380355075413E-011
  -2.9799999999999993E-002     4.4766967910447875E-011
  -2.8699999999999989E-002     2.2287133943921233E-011
  -2.7599999999999986E-002    -1.2164521993873745E-011
  -2.6499999999999996E-002    -4.7170718719957705E-011
  -2.5399999999999992E-002    -7.0604397328644097E-011
  -2.4299999999999988E-002    -7.4539686922836523E-011
  -2.3199999999999985E-002    -5.7973920802867340E-011
  -2.2099999999999995E-002    -2.6081985529669005E-011
  -2.0999999999999991E-002     1.3269036910901200E-011
  -1.9899999999999987E-002     5.3521239523623976E-011
  -1.8799999999999983E-002     9.1704678573112375E-011
  -1.7699999999999994E-002     1.2816754602074099E-010
  -1.6599999999999990E-002     1.6472689878810343E-010
  -1.5499999999999986E-002     2.0312017345869293E-010
  -1.4399999999999996E-002     2.4510257712329064E-010
  -1.3299999999999992E-002     2.9405933243964455E-010
  -1.2199999999999989E-002     3.5671859910380022E-010
  -1.1099999999999985E-002     4.4335135562789674E-010
  -9.9999999999999950E-003     5.6579613216811708E-010
  -8.8999999999999913E-003     7.3405564959827529E-010
  -7.7999999999999875E-003     9.5320962234524131E-010
  -6.6999999999999837E-003     1.2224689038831116E-009
  -5.5999999999999939E-003     1.5373888828662530E-009
  -4.4999999999999901E-003     1.8949477542662407E-009
  -3.3999999999999864E-003     2.2998687398967377E-009
  -2.2999999999999826E-003     2.7697295568174241E-009
  -1.1999999999999927E-003     3.3364768725618887E-009
  -9.9999999999988987E-005     4.0431658021589101E-009
   1.0000000000000148E-003     4.9367581134163174E-009
   2.1000000000000185E-003     6.0598290829716461E-009
   3.2000000000000084E-003     7.4449673093113233E-009
   4.3000000000000121E-003     9.1148946168573275E-009
   5.4000000000000159E-003     1.1089023033150625E-008
   6.5000000000000058E-003     1.3394346076722741E-008
   7.6000000000000234E-003     1.6076537434628335E-008
   8.7000000000000133E-003     1.9206796153525829E-008
   9.8000000000000032E-003     2.2881614825109864E-008
   1.0900000000000021E-002     2.7215609321729062E-008
   1.2000000000000011E-002     3.2330703447769338E-008
   1.3100000000000001E-002     3.8346808395317566E-008
   1.4200000000000018E-002     4.5378733659617865E-008
   1.5300000000000008E-002     5.3541267419632277E-008
   1.6400000000000026E-002     6.2960296531855420E-008
   1.7500000000000016E-002     7.3784796938980435E-008
   1.8600000000000005E-002     8.6193992387961771E-008
   1.9700000000000023E-002     1.0039664033456575E-007
   2.0800000000000013E-002     1.1662330479111915E-007
   2.1900000000000003E-002     1.3511559870948986E-007
   2.3000000000000020E-002     1.5611706771778699E-007
   2.4100000000000010E-002     1.7986860711971531E-007
   2.5200000000000000E-002     2.0660894506363547E-007
   2.6300000000000018E-002     2.3657919712150033E-007
   2.7400000000000008E-002     2.7002928959518613E-007
   2.8500000000000025E-002     3.0722375754521636E-007
   2.9600000000000015E-002     3.4844390484067844E-007
   3.0700000000000005E-002     3.9398295825776586E-007
   3.1800000000000023E-002     4.4413238242668740E-007
   3.2900000000000013E-002     4.9916172883968102E-007
   3.4000000000000002E-002     5.5929774589458248E-007
   3.5100000000000020E-002     6.2470996908814413E-007
   3.6200000000000010E-002     6.9550787884509191E-007
   3.7300000000000028E-002     7.7174843227112433E-007
   3.8400000000000017E-002     8.5344697708933381E-007
   3.9500000000000007E-002     9.4058304966893047E-007
   4.0600000000000025E-002     1.0330930990676279E-006
   4.1700000000000015E-002     1.1308490002193139E-006
   4.2800000000000005E-002     1.2336288364167558E-006
   4.3900000000000022E-002     1.3410860901785782E-006
   4.5000000000000012E-002     1.4527296343658236E-006
   4.6100000000000002E-002     1.5679190710216062E-006
   4.7200000000000020E-002     1.6858748494996689E-006
   4.8300000000000010E-002     1.8056977069136337E-006
   4.9400000000000027E-002     1.9263870854047127E-006
   5.0500000000000017E-002     2.0468489765335107E-006
   5.1600000000000007E-002     2.1658916011801921E-006
   5.2700000000000025E-002     2.2822136998001952E-006
   5.3800000000000014E-002     2.3943896394484909E-006
   5.4900000000000004E-002     2.5008625925693195E-006
   5.6000000000000022E-002     2.5999497665907256E-006
   5.7100000000000012E-002     2.6898596843238920E-006
   5.8200000000000002E-002     2.7687228794093244E-006
   5.9300000000000019E-002     2.8346314593363786E-006
   6.0400000000000009E-002     2.8856854896730511E-006
   6.1500000000000027E-002     2.9200368771853391E-006
   6.2600000000000017E-002     2.9359234758885577E-006
   6.3700000000000007E-002     2.9316890959307784E-006
   6.4800000000000024E-002     2.9057914616714697E-006
   6.5900000000000014E-002     2.8568097150127869E-006
   6.7000000000000004E-002     2.7834648790303618E-006
   6.8100000000000022E-002     2.6846587388718035E-006
   6.9200000000000012E-002     2.5595250008336734E-006
   7.0300000000000029E-002     2.4074852262856439E-006
   7.1400000000000019E-002     2.2282938516582362E-006
   7.2500000000000009E-002     2.0220675196469529E-006
   7.3600000000000027E-002     1.7893011090563959E-006
   7.4700000000000016E-002     1.5308733054553159E-006
   7.5800000000000006E-002     1.2480447821872076E-006
   7.6900000000000024E-002     9.4245098125611548E-007
   7.8000000000000014E-002     6.1609028989551007E-007
   7.9100000000000004E-002     2.7130937496622209E-007
   8.0200000000000021E-002    -8.9211710019299062E-008
   8.1300000000000011E-002    -4.6247578211477958E-007
   8.2400000000000029E-002    -8.4519052734322031E-007
   8.3500000000000019E-002    -1.2338010719759041E-006
   8.4600000000000009E-002    -1.6245360257016728E-006
   8.5700000000000026E-002    -2.0134630176471546E-006
   8.6800000000000016E-002    -2.3965505988599034E-006
   8.7900000000000006E-002    -2.7697328732756432E-006
   8.9000000000000024E-002    -3.1289778235077392E-006
   9.0100000000000013E-002    -3.4703607525443658E-006
   9.1200000000000003E-002    -3.7901377254456747E-006
   9.2300000000000021E-002    -4.0848144635674544E-006
   9.3400000000000011E-002    -4.3512063712114468E-006
   9.4500000000000028E-002    -4.5864853746024892E-006
   9.5600000000000018E-002    -4.7882253966236021E-006
   9.6700000000000008E-002    -4.9544455578143243E-006
   9.7800000000000026E-002    -5.0836574700952042E-006
   9.8900000000000016E-002    -5.1749052545346785E-006
  0.10000000000000001         -5.2277923714427743E-006
  0.10110000000000002         -5.2424970817810390E-006
  0.10220000000000001         -5.2197747208992951E-006
  0.10330000000000003         -5.1609508773253765E-006
  0.10440000000000002         -5.0679113883234095E-006
  0.10550000000000001         -4.9430750550527591E-006
  0.10660000000000003         -4.7893504415696952E-006
  0.10770000000000002         -4.6100776671664789E-006
  0.10880000000000001         -4.4089615585107822E-006
  0.10990000000000003         -4.1900034375430550E-006
  0.11100000000000002         -3.9574365473526996E-006
  0.11210000000000001         -3.7156576127017615E-006
  0.11320000000000002         -3.4691493056016043E-006
  0.11430000000000001         -3.2223963444266701E-006
  0.11540000000000003         -2.9798009109072154E-006
  0.11650000000000002         -2.7456051157059846E-006
  0.11760000000000001         -2.5238200578314718E-006
  0.11870000000000003         -2.3181569304142613E-006
  0.11980000000000002         -2.1319519873941317E-006
  0.12090000000000001         -1.9680890090967296E-006
  0.12200000000000003         -1.8289292711415328E-006
  0.12310000000000001         -1.7162602716780384E-006
  0.12420000000000003         -1.6312675370500074E-006
  0.12530000000000002         -1.5745229120511794E-006
  0.12640000000000001         -1.5459789892702247E-006
  0.12750000000000003         -1.5449670627276646E-006
  0.12860000000000002         -1.5702006521678413E-006
  0.12970000000000001         -1.6197922150240629E-006
  0.13080000000000003         -1.6912831597437616E-006
  0.13190000000000002         -1.7816845456763986E-006
  0.13300000000000001         -1.8875217620006879E-006
  0.13410000000000000         -2.0048823898832779E-006
  0.13520000000000004         -2.1294740690791514E-006
  0.13630000000000003         -2.2566987354366574E-006
  0.13740000000000002         -2.3817433429940138E-006
  0.13850000000000001         -2.4996804768306902E-006
  0.13960000000000000         -2.6055677153635770E-006
  0.14070000000000005         -2.6945363060804084E-006
  0.14180000000000004         -2.7618746116786497E-006
  0.14290000000000003         -2.8031099645886570E-006
  0.14400000000000002         -2.8140927952335915E-006
  0.14510000000000001         -2.7910823519050609E-006
  0.14620000000000000         -2.7308269636705518E-006
  0.14730000000000004         -2.6306317977287108E-006
  0.14840000000000003         -2.4884166123229079E-006
  0.14950000000000002         -2.3027637325867545E-006
  0.15060000000000001         -2.0729623884108150E-006
  0.15170000000000000         -1.7990448668570025E-006
  0.15280000000000005         -1.4818105000813375E-006
  0.15390000000000004         -1.1228313496758346E-006
  0.15500000000000003         -7.2443856424797559E-007
  0.15610000000000002         -2.8969196819161880E-007
  0.15720000000000001          1.7765974291705788E-007
  0.15830000000000000          6.7322775976208504E-007
  0.15940000000000004          1.1920426459255395E-006
  0.16050000000000003          1.7286281490669353E-006
  0.16160000000000002          2.2770902887714328E-006
  0.16270000000000001          2.8312153972365195E-006
  0.16380000000000000          3.3845731195469853E-006
  0.16490000000000005          3.9306164580921177E-006
  0.16600000000000004          4.4627827264775988E-006
  0.16710000000000003          4.9745976866688579E-006
  0.16820000000000002          5.4597862799710128E-006
  0.16930000000000001          5.9123799474036787E-006
  0.17040000000000000          6.3268221310863737E-006
  0.17150000000000004          6.6980578594666440E-006
  0.17260000000000003          7.0216146923485212E-006
  0.17370000000000002          7.2936741162266117E-006
  0.17480000000000001          7.5111438491148874E-006
  0.17590000000000000          7.6717133197234944E-006
  0.17700000000000005          7.7738914114888757E-006
  0.17810000000000004          7.8170151027734391E-006
  0.17920000000000003          7.8012380981817842E-006
  0.18030000000000002          7.7275035437196493E-006
  0.18140000000000001          7.5975140134687535E-006
  0.18250000000000000          7.4137010415142868E-006
  0.18360000000000004          7.1791823756939266E-006
  0.18470000000000003          6.8976983129687142E-006
  0.18580000000000002          6.5735280259104911E-006
  0.18690000000000001          6.2113999774737749E-006
  0.18800000000000000          5.8164050642517395E-006
  0.18910000000000005          5.3939097597321961E-006
  0.19020000000000004          4.9494669838168193E-006
  0.19130000000000003          4.4887096919410396E-006
  0.19240000000000002          4.0172362787416205E-006
  0.19350000000000001          3.5405071230343310E-006
  0.19460000000000005          3.0637602321803570E-006
  0.19570000000000004          2.5919478048308520E-006
  0.19680000000000003          2.1296814338711556E-006
  0.19790000000000002          1.6811738987598801E-006
  0.19900000000000001          1.2501766377681633E-006
  0.20010000000000000          8.3992995314474683E-007
  0.20120000000000005          4.5313609575714509E-007
  0.20230000000000004          9.1956735559506342E-008
  0.20340000000000003         -2.4197871084652434E-007
  0.20450000000000002         -5.4756611689299461E-007
  0.20560000000000000         -8.2422116065572482E-007
  0.20670000000000005         -1.0718623570937780E-006
  0.20780000000000004         -1.2908740245620720E-006
  0.20890000000000003         -1.4820518572378205E-006
