 -0.12000000000000000          0.0000000000000000
 -0.11889999999999999          0.0000000000000000
 -0.11780000000000000          0.0000000000000000
 -0.11670000000000000          0.0000000000000000
 -0.11559999999999999          0.0000000000000000
 -0.11449999999999999          0.0000000000000000
 -0.11340000000000000         -2.4404316229596876E-016
 -0.11230000000000000         -1.5229932971296098E-015
 -0.11119999999999999         -2.1175770741798305E-015
 -0.11009999999999999          1.0951172084504128E-014
 -0.10900000000000000          5.4840877119436554E-014
 -0.10790000000000000          8.2397528741468690E-014
 -0.10679999999999999         -1.0726186242373051E-013
 -0.10569999999999999         -7.1000914566091144E-013
 -0.10460000000000000         -1.2468857326849991E-012
 -0.10349999999999999          4.0683642977927537E-014
 -0.10239999999999999          4.9022201228932083E-012
 -0.10130000000000000          1.0778438905290066E-011
 -0.10020000000000000          7.1549758305644584E-012
  -9.9099999999999994E-002    -1.8347783362071546E-011
  -9.7999999999999990E-002    -5.9308495614640577E-011
  -9.6899999999999986E-002    -7.0646079264324868E-011
  -9.5799999999999996E-002     1.3962952322144062E-011
  -9.4699999999999993E-002     2.0509292875114937E-010
  -9.3599999999999989E-002     3.6737857200819235E-010
  -9.2499999999999999E-002     2.3748669697454261E-010
  -9.1399999999999995E-002    -3.5579619805936602E-010
  -9.0299999999999991E-002    -1.1666979604640915E-009
  -8.9200000000000002E-002    -1.4356914546098665E-009
  -8.8099999999999984E-002    -3.4837868700954289E-010
  -8.6999999999999994E-002     2.0576953474460424E-009
  -8.5899999999999990E-002     4.2776941988620365E-009
  -8.4799999999999986E-002     3.9318659439402381E-009
  -8.3699999999999997E-002    -3.1275484979609303E-010
  -8.2599999999999993E-002    -6.7894876387697423E-009
  -8.1499999999999989E-002    -1.0896604507593111E-008
  -8.0399999999999999E-002    -8.0952631265063246E-009
  -7.9299999999999995E-002     1.9162131881245159E-009
  -7.8199999999999992E-002     1.3558025813154018E-008
  -7.7100000000000002E-002     1.8727208228597192E-008
  -7.5999999999999984E-002     1.3293469436348460E-008
  -7.4899999999999994E-002     1.0230853941806117E-009
  -7.3799999999999991E-002    -9.6879952948825121E-009
  -7.2699999999999987E-002    -1.4311042129122598E-008
  -7.1599999999999997E-002    -1.7363847248930142E-008
  -7.0499999999999993E-002    -2.6713008693945994E-008
  -6.9399999999999989E-002    -3.9815688523958670E-008
  -6.8300000000000000E-002    -3.6203068987106235E-008
  -6.7199999999999996E-002     9.8057864050815624E-009
  -6.6099999999999992E-002     9.9087046123713662E-008
  -6.5000000000000002E-002     1.8504209720049403E-007
  -6.3899999999999985E-002     1.8767104847938754E-007
  -6.2799999999999995E-002     4.9503427135277889E-008
  -6.1699999999999991E-002    -2.0103286146877508E-007
  -6.0599999999999994E-002    -4.3400507365731755E-007
  -5.9499999999999990E-002    -4.8112474360095803E-007
  -5.8399999999999994E-002    -2.4904784368118271E-007
  -5.7299999999999990E-002     1.9533612771738262E-007
  -5.6199999999999986E-002     6.3885562440191279E-007
  -5.5099999999999996E-002     8.3880354395660106E-007
  -5.3999999999999992E-002     6.6700067691272125E-007
  -5.2899999999999989E-002     1.8132361390144069E-007
  -5.1799999999999985E-002    -4.2016102952402434E-007
  -5.0699999999999995E-002    -9.1646245437004836E-007
  -4.9599999999999991E-002    -1.1575924645512714E-006
  -4.8499999999999988E-002    -1.0769240361696575E-006
  -4.7399999999999998E-002    -6.5100948631879874E-007
  -4.6299999999999994E-002     1.1088745566212310E-007
  -4.5199999999999990E-002     1.1030030009351321E-006
  -4.4099999999999986E-002     2.0397287698870059E-006
  -4.2999999999999997E-002     2.4717492124182172E-006
  -4.1899999999999993E-002     1.9730621261260239E-006
  -4.0799999999999989E-002     4.3038281205554085E-007
  -3.9699999999999985E-002    -1.7546498156661983E-006
  -3.8599999999999995E-002    -3.7299632822396234E-006
  -3.7499999999999992E-002    -4.5481911001843400E-006
  -3.6399999999999988E-002    -3.6395979350345442E-006
  -3.5299999999999984E-002    -1.1356718232491403E-006
  -3.4199999999999994E-002     2.1444029698614031E-006
  -3.3099999999999991E-002     5.0344801820756402E-006
  -3.1999999999999987E-002     6.4984524215105921E-006
  -3.0899999999999997E-002     6.0012366702721920E-006
  -2.9799999999999993E-002     3.6256906241760589E-006
  -2.8699999999999989E-002    -5.1596256156472009E-008
  -2.7599999999999986E-002    -4.1935923036362510E-006
  -2.6499999999999996E-002    -7.9025103332241997E-006
  -2.5399999999999992E-002    -1.0331277735531330E-005
  -2.4299999999999988E-002    -1.0764993930933997E-005
  -2.3199999999999985E-002    -8.7764610725571401E-006
  -2.2099999999999995E-002    -4.4874295781482942E-006
  -2.0999999999999991E-002     1.1876385315190419E-006
  -1.9899999999999987E-002     6.5548902057344094E-006
  -1.8799999999999983E-002     9.5951518233050592E-006
  -1.7699999999999994E-002     8.7848056864459068E-006
  -1.6599999999999990E-002     3.8938610487093683E-006
  -1.5499999999999986E-002    -3.7503850762732327E-006
  -1.4399999999999996E-002    -1.1807486771431286E-005
  -1.3299999999999992E-002    -1.8046273908112198E-005
  -1.2199999999999989E-002    -2.1392432245193049E-005
  -1.1099999999999985E-002    -2.2254025680013001E-005
  -9.9999999999999950E-003    -2.1963171093375422E-005
  -8.8999999999999913E-003    -2.1799905880470760E-005
  -7.7999999999999875E-003    -2.2341937437886372E-005
  -6.6999999999999837E-003    -2.3579272237839177E-005
  -5.5999999999999939E-003    -2.5581473892088979E-005
  -4.4999999999999901E-003    -2.9049186196061783E-005
  -3.3999999999999864E-003    -3.5201508580939844E-005
  -2.2999999999999826E-003    -4.5043070713290945E-005
  -1.1999999999999927E-003    -5.8605408412404358E-005
  -9.9999999999988987E-005    -7.4798779678530991E-005
   1.0000000000000148E-003    -9.2015652626287192E-005
   2.1000000000000185E-003    -1.0903666407102719E-004
   3.2000000000000084E-003    -1.2559077003970742E-004
   4.3000000000000121E-003    -1.4225767517928034E-004
   5.4000000000000159E-003    -1.5992971020750701E-004
   6.5000000000000058E-003    -1.7932876653503627E-004
   7.6000000000000234E-003    -2.0090663747396320E-004
   8.7000000000000133E-003    -2.2506339882966131E-004
   9.8000000000000032E-003    -2.5235873181372881E-004
   1.0900000000000021E-002    -2.8345870668999851E-004
   1.2000000000000011E-002    -3.1882559414952993E-004
   1.3100000000000001E-002    -3.5837420728057623E-004
   1.4200000000000018E-002    -4.0134674054570496E-004
   1.5300000000000008E-002    -4.4651265488937497E-004
   1.6400000000000026E-002    -4.9264205154031515E-004
   1.7500000000000016E-002    -5.3904327796772122E-004
   1.8600000000000005E-002    -5.8584538055583835E-004
   1.9700000000000023E-002    -6.3376501202583313E-004
   2.0800000000000013E-002    -6.8329781061038375E-004
   2.1900000000000003E-002    -7.3371292091906071E-004
   2.3000000000000020E-002    -7.8252959065139294E-004
   2.4100000000000010E-002    -8.2601711619645357E-004
   2.5200000000000000E-002    -8.6059159366413951E-004
   2.6300000000000018E-002    -8.8428915478289127E-004
   2.7400000000000008E-002    -8.9724769350141287E-004
   2.8500000000000025E-002    -9.0078997891396284E-004
   2.9600000000000015E-002    -8.9571374701336026E-004
   3.0700000000000005E-002    -8.8098627747967839E-004
   3.1800000000000023E-002    -8.5361098172143102E-004
   3.2900000000000013E-002    -8.0952240386977792E-004
   3.4000000000000002E-002    -7.4462301563471556E-004
   3.5100000000000020E-002    -6.5523840021342039E-004
   3.6200000000000010E-002    -5.3806987125426531E-004
   3.7300000000000028E-002    -3.9036633097566664E-004
   3.8400000000000017E-002    -2.1067232592031360E-004
   3.9500000000000007E-002     3.5765879147220403E-007
   4.0600000000000025E-002     2.4006752937566489E-004
   4.1700000000000015E-002     5.0534156616777182E-004
   4.2800000000000005E-002     7.9470657510682940E-004
   4.3900000000000022E-002     1.1095508234575391E-003
   4.5000000000000012E-002     1.4533207286149263E-003
   4.6100000000000002E-002     1.8290119478479028E-003
   4.7200000000000020E-002     2.2367183119058609E-003
   4.8300000000000010E-002     2.6724997442215681E-003
   4.9400000000000027E-002     3.1290883198380470E-003
   5.0500000000000017E-002     3.5972744226455688E-003
   5.1600000000000007E-002     4.0671769529581070E-003
   5.2700000000000025E-002     4.5287390239536762E-003
   5.3800000000000014E-002     4.9722348339855671E-003
   5.4900000000000004E-002     5.3890035487711430E-003
   5.6000000000000022E-002     5.7719391770660877E-003
   5.7100000000000012E-002     6.1151883564889431E-003
   5.8200000000000002E-002     6.4126667566597462E-003
   5.9300000000000019E-002     6.6561740823090076E-003
   6.0400000000000009E-002     6.8346844054758549E-003
   6.1500000000000027E-002     6.9350684061646461E-003
   6.2600000000000017E-002     6.9441655650734901E-003
   6.3700000000000007E-002     6.8505019880831242E-003
   6.4800000000000024E-002     6.6450298763811588E-003
   6.5900000000000014E-002     6.3210991211235523E-003
   6.7000000000000004E-002     5.8744745329022408E-003
   6.8100000000000022E-002     5.3036026656627655E-003
   6.9200000000000012E-002     4.6097082085907459E-003
   7.0300000000000029E-002     3.7960798945277929E-003
   7.1400000000000019E-002     2.8666278813034296E-003
   7.2500000000000009E-002     1.8250648863613605E-003
   7.3600000000000027E-002     6.7531515378504992E-004
   7.4700000000000016E-002    -5.7655590353533626E-004
   7.5800000000000006E-002    -1.9208552548661828E-003
   7.6900000000000024E-002    -3.3441509585827589E-003
   7.8000000000000014E-002    -4.8306770622730255E-003
   7.9100000000000004E-002    -6.3636242412030697E-003
   8.0200000000000021E-002    -7.9252645373344421E-003
   8.1300000000000011E-002    -9.4960043206810951E-003
   8.2400000000000029E-002    -1.1053713969886303E-002
   8.3500000000000019E-002    -1.2574862688779831E-002
   8.4600000000000009E-002    -1.4037129469215870E-002
   8.5700000000000026E-002    -1.5421011485159397E-002
   8.6800000000000016E-002    -1.6709750518202782E-002
   8.7900000000000006E-002    -1.7887676134705544E-002
   8.9000000000000024E-002    -1.8938332796096802E-002
   9.0100000000000013E-002    -1.9845033064484596E-002
   9.1200000000000003E-002    -2.0592667162418365E-002
   9.2300000000000021E-002    -2.1169461309909821E-002
   9.3400000000000011E-002    -2.1566798910498619E-002
   9.4500000000000028E-002    -2.1777510643005371E-002
   9.5600000000000018E-002    -2.1794974803924561E-002
   9.6700000000000008E-002    -2.1613880991935730E-002
   9.7800000000000026E-002    -2.1232467144727707E-002
   9.8900000000000016E-002    -2.0653817802667618E-002
  0.10000000000000001         -1.9884597510099411E-002
  0.10110000000000002         -1.8931828439235687E-002
  0.10220000000000001         -1.7800712957978249E-002
  0.10330000000000003         -1.6494423151016235E-002
  0.10440000000000002         -1.5016252174973488E-002
  0.10550000000000001         -1.3371228240430355E-002
  0.10660000000000003         -1.1565979570150375E-002
  0.10770000000000002         -9.6066519618034363E-003
  0.10880000000000001         -7.4973097071051598E-003
  0.10990000000000003         -5.2402233704924583E-003
  0.11100000000000002         -2.8374502435326576E-003
  0.11210000000000001         -2.9185123275965452E-004
  0.11320000000000002          2.3931041359901428E-003
  0.11430000000000001          5.2147982642054558E-003
  0.11540000000000003          8.1716710701584816E-003
  0.11650000000000002          1.1262479238212109E-002
  0.11760000000000001          1.4483179897069931E-002
  0.11870000000000003          1.7825841903686523E-002
  0.11980000000000002          2.1278627216815948E-002
  0.12090000000000001          2.4826442822813988E-002
  0.12200000000000003          2.8451558202505112E-002
  0.12310000000000001          3.2132145017385483E-002
  0.12420000000000003          3.5841003060340881E-002
  0.12530000000000002          3.9544437080621719E-002
  0.12640000000000001          4.3202679604291916E-002
  0.12750000000000003          4.6769946813583374E-002
  0.12860000000000002          5.0195060670375824E-002
  0.12970000000000001          5.3420506417751312E-002
  0.13080000000000003          5.6382481008768082E-002
  0.13190000000000002          5.9013009071350098E-002
  0.13300000000000001          6.1241101473569870E-002
  0.13410000000000000          6.2995597720146179E-002
  0.13520000000000004          6.4205676317214966E-002
  0.13630000000000003          6.4801216125488281E-002
  0.13740000000000002          6.4714536070823669E-002
  0.13850000000000001          6.3883394002914429E-002
  0.13960000000000000          6.2254283577203751E-002
  0.14070000000000005          5.9784177690744400E-002
  0.14180000000000004          5.6441344320774078E-002
  0.14290000000000003          5.2204962819814682E-002
  0.14400000000000002          4.7066997736692429E-002
  0.14510000000000001          4.1035667061805725E-002
  0.14620000000000000          3.4138683229684830E-002
  0.14730000000000004          2.6424493640661240E-002
  0.14840000000000003          1.7960859462618828E-002
  0.14950000000000002          8.8327210396528244E-003
  0.15060000000000001         -8.5911015048623085E-004
  0.15170000000000000         -1.0997342877089977E-002
  0.15280000000000005         -2.1448066458106041E-002
  0.15390000000000004         -3.2063234597444534E-002
  0.15500000000000003         -4.2684469372034073E-002
  0.15610000000000002         -5.3149078041315079E-002
  0.15720000000000001         -6.3292026519775391E-002
  0.15830000000000000         -7.2947427630424500E-002
  0.15940000000000004         -8.1949003040790558E-002
  0.16050000000000003         -9.0134486556053162E-002
  0.16160000000000002         -9.7350053489208221E-002
  0.16270000000000001        -0.10345657169818878
  0.16380000000000000        -0.10833427309989929
  0.16490000000000005        -0.11188448965549469
  0.16600000000000004        -0.11403010040521622
  0.16710000000000003        -0.11471875011920929
  0.16820000000000002        -0.11392333358526230
  0.16930000000000001        -0.11164388060569763
  0.17040000000000000        -0.10790714621543884
  0.17150000000000004        -0.10276536643505096
  0.17260000000000003         -9.6295118331909180E-002
  0.17370000000000002         -8.8596805930137634E-002
  0.17480000000000001         -7.9793684184551239E-002
  0.17590000000000000         -7.0029437541961670E-002
  0.17700000000000005         -5.9464652091264725E-002
  0.17810000000000004         -4.8272348940372467E-002
  0.17920000000000003         -3.6634262651205063E-002
  0.18030000000000002         -2.4737630039453506E-002
  0.18140000000000001         -1.2771769426763058E-002
  0.18250000000000000         -9.2316418886184692E-004
  0.18360000000000004          1.0629774071276188E-002
  0.18470000000000003          2.1720318123698235E-002
  0.18580000000000002          3.2195150852203369E-002
  0.18690000000000001          4.1914932429790497E-002
  0.18800000000000000          5.0755769014358521E-002
  0.18910000000000005          5.8612979948520660E-002
  0.19020000000000004          6.5404683351516724E-002
  0.19130000000000003          7.1073450148105621E-002
  0.19240000000000002          7.5584828853607178E-002
  0.19350000000000001          7.8924566507339478E-002
  0.19460000000000005          8.1097185611724854E-002
  0.19570000000000004          8.2126721739768982E-002
  0.19680000000000003          8.2058012485504150E-002
  0.19790000000000002          8.0956257879734039E-002
  0.19900000000000001          7.8901834785938263E-002
  0.20010000000000000          7.5985312461853027E-002
  0.20120000000000005          7.2303161025047302E-002
  0.20230000000000004          6.7957356572151184E-002
  0.20340000000000003          6.3054867088794708E-002
  0.20450000000000002          5.7708073407411575E-002
  0.20560000000000000          5.2029069513082504E-002
  0.20670000000000005          4.6126637607812881E-002
  0.20780000000000004          4.0104117244482040E-002
  0.20890000000000003          3.4058444201946259E-002
