 -0.12000000000000000          0.0000000000000000
 -0.11889999999999999          0.0000000000000000
 -0.11780000000000000          0.0000000000000000
 -0.11670000000000000          0.0000000000000000
 -0.11559999999999999          0.0000000000000000
 -0.11449999999999999          0.0000000000000000
 -0.11340000000000000         -2.2405170632102001E-023
 -0.11230000000000000         -2.7727163300101657E-022
 -0.11119999999999999         -1.4786449197140993E-021
 -0.11009999999999999         -4.5163463678155771E-021
 -0.10900000000000000         -8.2554911188586620E-021
 -0.10790000000000000         -7.0319754784126607E-021
 -0.10679999999999999          5.5832235654885851E-021
 -0.10569999999999999          2.3109860810798851E-020
 -0.10460000000000000          1.7686056921334256E-020
 -0.10349999999999999         -3.3107894323912129E-020
 -0.10239999999999999         -8.6756925692457779E-020
 -0.10130000000000000         -2.8283205073657474E-020
 -0.10020000000000000          1.7968916824793019E-019
  -9.9099999999999994E-002     2.6871016482512803E-019
  -9.7999999999999990E-002    -2.5413260579374117E-019
  -9.6899999999999986E-002    -1.3649225603652020E-018
  -9.5799999999999996E-002    -1.6050614673930480E-018
  -9.4699999999999993E-002     1.3888171199248682E-018
  -9.3599999999999989E-002     7.6161993156329981E-018
  -9.2499999999999999E-002     1.0694781921459380E-017
  -9.1399999999999995E-002    -6.2126377012893722E-019
  -9.0299999999999991E-002    -3.0048775045254573E-017
  -8.9200000000000002E-002    -5.6507559762249403E-017
  -8.8099999999999984E-002    -3.3770217607738791E-017
  -8.6999999999999994E-002     7.1045000947517748E-017
  -8.5899999999999990E-002     2.1189378855491537E-016
  -8.4799999999999986E-002     2.3641377772137167E-016
  -8.3699999999999997E-002    -2.2631193375224132E-017
  -8.2599999999999993E-002    -5.3950053627600390E-016
  -8.1499999999999989E-002    -9.3380162594249158E-016
  -8.0399999999999999E-002    -6.0806981211993004E-016
  -7.9299999999999995E-002     7.2179314383256205E-016
  -7.8199999999999992E-002     2.4210632617086524E-015
  -7.7100000000000002E-002     2.9184405848199039E-015
  -7.5999999999999984E-002     7.4336289077395201E-016
  -7.4899999999999994E-002    -3.8002759982945153E-015
  -7.3799999999999991E-002    -7.7452057422222782E-015
  -7.2699999999999987E-002    -6.8188049607773027E-015
  -7.1599999999999997E-002     1.0376821701102326E-015
  -7.0499999999999993E-002     1.2407340305446886E-014
  -6.9399999999999989E-002     1.8822830528389053E-014
  -6.8300000000000000E-002     1.2256439691827638E-014
  -6.7199999999999996E-002    -7.3587283253126641E-015
  -6.6099999999999992E-002    -2.8877060790320763E-014
  -6.5000000000000002E-002    -3.5601140362540723E-014
  -6.3899999999999985E-002    -1.7711775717409693E-014
  -6.2799999999999995E-002     1.7668571954902040E-014
  -6.1699999999999991E-002     4.8339316490592088E-014
  -6.0599999999999994E-002     5.1902936565621435E-014
  -5.9499999999999990E-002     2.3212782065441806E-014
  -5.8399999999999994E-002    -2.0301224893867764E-014
  -5.7299999999999990E-002    -5.1388973913886471E-014
  -5.6199999999999986E-002    -5.4001328555304193E-014
  -5.5099999999999996E-002    -3.4106039119210368E-014
  -5.3999999999999992E-002    -1.0103050699912606E-014
  -5.2899999999999989E-002     7.7375951511911983E-015
  -5.1799999999999985E-002     2.6865269449165285E-014
  -5.0699999999999995E-002     5.8366621269196478E-014
  -4.9599999999999991E-002     9.2026036855978599E-014
  -4.8499999999999988E-002     9.0583980203937098E-014
  -4.7399999999999998E-002     2.0440849804893163E-014
  -4.6299999999999994E-002    -1.0153515398250712E-013
  -4.5199999999999990E-002    -1.9376004706944672E-013
  -4.4099999999999986E-002    -1.6139509433771293E-013
  -4.2999999999999997E-002     1.1393963639878997E-014
  -4.1899999999999993E-002     2.0763490753139546E-013
  -4.0799999999999989E-002     2.3489408118235189E-013
  -3.9699999999999985E-002    -1.5394217340756675E-014
  -3.8599999999999995E-002    -4.1869326473757684E-013
  -3.7499999999999992E-002    -6.2427786464563928E-013
  -3.6399999999999988E-002    -2.7678518656724937E-013
  -3.5299999999999984E-002     6.5775271514134648E-013
  -3.4199999999999994E-002     1.7010482649196246E-012
  -3.3099999999999991E-002     2.0190908407019537E-012
  -3.1999999999999987E-002     9.3285849964847012E-013
  -3.0899999999999997E-002    -1.4826488561187068E-012
  -2.9799999999999993E-002    -4.1310349238599109E-012
  -2.8699999999999989E-002    -5.2717678312996785E-012
  -2.7599999999999986E-002    -3.4939091550501011E-012
  -2.6499999999999996E-002     1.1949326077231870E-012
  -2.5399999999999992E-002     6.8748748013880423E-012
  -2.4299999999999988E-002     1.0338946712651342E-011
  -2.3199999999999985E-002     8.7652003710747550E-012
  -2.2099999999999995E-002     1.6421516924047808E-012
  -2.0999999999999991E-002    -8.2435681544867911E-012
  -1.9899999999999987E-002    -1.5661248339848832E-011
  -1.8799999999999983E-002    -1.5568315733793803E-011
  -1.7699999999999994E-002    -6.2822806852491642E-012
  -1.6599999999999990E-002     8.6896410206316332E-012
  -1.5499999999999986E-002     2.1602709204815440E-011
  -1.4399999999999996E-002     2.4180666149953289E-011
  -1.3299999999999992E-002     1.2324132166174895E-011
  -1.2199999999999989E-002    -1.0828113579386400E-011
  -1.1099999999999985E-002    -3.5499984896159020E-011
  -9.9999999999999950E-003    -4.9591195733222904E-011
  -8.8999999999999913E-003    -4.4549534200521990E-011
  -7.7999999999999875E-003    -1.9564093400870064E-011
  -6.6999999999999837E-003     1.8367472473523883E-011
  -5.5999999999999939E-003     5.8645581446636896E-011
  -4.4999999999999901E-003     9.3218502361658295E-011
  -3.3999999999999864E-003     1.2118110681580418E-010
  -2.2999999999999826E-003     1.4922070523670783E-010
  -1.1999999999999927E-003     1.8776516452767567E-010
  -9.9999999999988987E-005     2.4525720343504531E-010
   1.0000000000000148E-003     3.2410440997665546E-010
   2.1000000000000185E-003     4.2082459739134492E-010
   3.2000000000000084E-003     5.3031012914317444E-010
   4.3000000000000121E-003     6.5155747464018532E-010
   5.4000000000000159E-003     7.9127437935255784E-010
   6.5000000000000058E-003     9.6313690356453208E-010
   7.6000000000000234E-003     1.1833197754995695E-009
   8.7000000000000133E-003     1.4654319979712227E-009
   9.8000000000000032E-003     1.8184700412149368E-009
   1.0900000000000021E-002     2.2494022200447716E-009
   1.2000000000000011E-002     2.7687818704436040E-009
   1.3100000000000001E-002     3.3955034339783197E-009
   1.4200000000000018E-002     4.1571617259705818E-009
   1.5300000000000008E-002     5.0854103150754781E-009
   1.6400000000000026E-002     6.2094307473614663E-009
   1.7500000000000016E-002     7.5525541376464389E-009
   1.8600000000000005E-002     9.1357108544798393E-009
   1.9700000000000023E-002     1.0987227128111954E-008
   2.0800000000000013E-002     1.3154034306239737E-008
   2.1900000000000003E-002     1.5707508183027130E-008
   2.3000000000000020E-002     1.8739486407071126E-008
   2.4100000000000010E-002     2.2349489370299125E-008
   2.5200000000000000E-002     2.6629814797729523E-008
   2.6300000000000018E-002     3.1657396704076746E-008
   2.7400000000000008E-002     3.7498480764952546E-008
   2.8500000000000025E-002     4.4225359374649997E-008
   2.9600000000000015E-002     5.1937192324658099E-008
   3.0700000000000005E-002     6.0773928112212161E-008
   3.1800000000000023E-002     7.0915312733177416E-008
   3.2900000000000013E-002     8.2564532988271822E-008
   3.4000000000000002E-002     9.5924796994495409E-008
   3.5100000000000020E-002     1.1118081744143637E-007
   3.6200000000000010E-002     1.2849473307596782E-007
   3.7300000000000028E-002     1.4801840109157638E-007
   3.8400000000000017E-002     1.6991492657325580E-007
   3.9500000000000007E-002     1.9437783294051769E-007
   4.0600000000000025E-002     2.2163739288316719E-007
   4.1700000000000015E-002     2.5195029706992500E-007
   4.2800000000000005E-002     2.8557735731737921E-007
   4.3900000000000022E-002     3.2275875128107145E-007
   4.5000000000000012E-002     3.6369686995385564E-007
   4.6100000000000002E-002     4.0855229599401355E-007
   4.7200000000000020E-002     4.5745053967038984E-007
   4.8300000000000010E-002     5.1049255489488132E-007
   4.9400000000000027E-002     5.6775979828671552E-007
   5.0500000000000017E-002     6.2930917010817211E-007
   5.1600000000000007E-002     6.9515965606115060E-007
   5.2700000000000025E-002     7.6527555847860640E-007
   5.3800000000000014E-002     8.3955308127769968E-007
   5.4900000000000004E-002     9.1781339506269433E-007
   5.6000000000000022E-002     9.9979922651982633E-007
   5.7100000000000012E-002     1.0851691740754177E-006
   5.8200000000000002E-002     1.1734886129488586E-006
   5.9300000000000019E-002     1.2642159390452434E-006
   6.0400000000000009E-002     1.3566938150688657E-006
   6.1500000000000027E-002     1.4501466694127885E-006
   6.2600000000000017E-002     1.5436893363585114E-006
   6.3700000000000007E-002     1.6363401300623082E-006
   6.4800000000000024E-002     1.7270308489969466E-006
   6.5900000000000014E-002     1.8146120055462234E-006
   6.7000000000000004E-002     1.8978497564603458E-006
   6.8100000000000022E-002     1.9754222648771247E-006
   6.9200000000000012E-002     2.0459206098166760E-006
   7.0300000000000029E-002     2.1078587906231405E-006
   7.1400000000000019E-002     2.1596938495349605E-006
   7.2500000000000009E-002     2.1998521333443932E-006
   7.3600000000000027E-002     2.2267618078330997E-006
   7.4700000000000016E-002     2.2388858269550838E-006
   7.5800000000000006E-002     2.2347521735355258E-006
   7.6900000000000024E-002     2.2129834178485908E-006
   7.8000000000000014E-002     2.1723215013480512E-006
   7.9100000000000004E-002     2.1116511561558582E-006
   8.0200000000000021E-002     2.0300244614190888E-006
   8.1300000000000011E-002     1.9266844901721925E-006
   8.2400000000000029E-002     1.8010915709965047E-006
   8.3500000000000019E-002     1.6529487538718968E-006
   8.4600000000000009E-002     1.4822270486547495E-006
   8.5700000000000026E-002     1.2891888445665245E-006
   8.6800000000000016E-002     1.0744112159954966E-006
   8.7900000000000006E-002     8.3880621559728752E-007
   8.9000000000000024E-002     5.8363423249829793E-007
   9.0100000000000013E-002     3.1050561233314511E-007
   9.1200000000000003E-002     2.1370270886222897E-008
   9.2300000000000021E-002    -2.8150333264420624E-007
   9.3400000000000011E-002    -5.9555486586759798E-007
   9.4500000000000028E-002    -9.1796147216882673E-007
   9.5600000000000018E-002    -1.2456677040972863E-006
   9.6700000000000008E-002    -1.5754164905956713E-006
   9.7800000000000026E-002    -1.9037848915104405E-006
   9.8900000000000016E-002    -2.2272233763942495E-006
  0.10000000000000001         -2.5421015834581340E-006
  0.10110000000000002         -2.8447625481931027E-006
  0.10220000000000001         -3.1315819342125906E-006
  0.10330000000000003         -3.3990306747000432E-006
  0.10440000000000002         -3.6437356811802601E-006
  0.10550000000000001         -3.8625380511803087E-006
  0.10660000000000003         -4.0525492295273580E-006
  0.10770000000000002         -4.2112083065148909E-006
  0.10880000000000001         -4.3363324948586524E-006
  0.10990000000000003         -4.4261596485739574E-006
  0.11100000000000002         -4.4793755478167441E-006
  0.11210000000000001         -4.4951325435249601E-006
  0.11320000000000002         -4.4730600166076329E-006
  0.11430000000000001         -4.4132784751127474E-006
  0.11540000000000003         -4.3164086491742637E-006
  0.11650000000000002         -4.1835701267700642E-006
  0.11760000000000001         -4.0163668018067256E-006
  0.11870000000000003         -3.8168564060470089E-006
  0.11980000000000002         -3.5875145840691403E-006
  0.12090000000000001         -3.3312057894363534E-006
  0.12200000000000003         -3.0511548629874596E-006
  0.12310000000000001         -2.7509022402227856E-006
  0.12420000000000003         -2.4342350570805138E-006
  0.12530000000000002         -2.1050980194559088E-006
  0.12640000000000001         -1.7675106391834561E-006
  0.12750000000000003         -1.4255090263759485E-006
  0.12860000000000002         -1.0831112149389810E-006
  0.12970000000000001         -7.4428226071177050E-007
  0.13080000000000003         -4.1287964336333971E-007
  0.13190000000000002         -9.2578602561843581E-008
  0.13300000000000001          2.1319695520105597E-007
  0.13410000000000000          5.0131467332903412E-007
  0.13520000000000004          7.6894724543308257E-007
  0.13630000000000003          1.0135861430171644E-006
  0.13740000000000002          1.2330781373748323E-006
  0.13850000000000001          1.4256778513299651E-006
  0.13960000000000000          1.5900820926617598E-006
  0.14070000000000005          1.7254179738301900E-006
  0.14180000000000004          1.8311949361304869E-006
  0.14290000000000003          1.9072601844527526E-006
  0.14400000000000002          1.9537935713742627E-006
  0.14510000000000001          1.9713340861926554E-006
  0.14620000000000000          1.9607907688623527E-006
  0.14730000000000004          1.9234037154092221E-006
  0.14840000000000003          1.8606598359838245E-006
  0.14950000000000002          1.7742160025591147E-006
  0.15060000000000001          1.6658785852996516E-006
  0.15170000000000000          1.5376280089185457E-006
  0.15280000000000005          1.3916358057031175E-006
  0.15390000000000004          1.2302215282034012E-006
  0.15500000000000003          1.0557588439041865E-006
  0.15610000000000002          8.7059243014664389E-007
  0.15720000000000001          6.7701779471462942E-007
  0.15830000000000000          4.7732009988976642E-007
  0.15940000000000004          2.7380741585147916E-007
  0.16050000000000003          6.8779357320636336E-008
  0.16160000000000002         -1.3556042688378511E-007
  0.16270000000000001         -3.3717830660862091E-007
  0.16380000000000000         -5.3420706080942182E-007
  0.16490000000000005         -7.2487318902858533E-007
  0.16600000000000004         -9.0743247938007698E-007
  0.16710000000000003         -1.0801846883623512E-006
  0.16820000000000002         -1.2415625860739965E-006
  0.16930000000000001         -1.3902141517974087E-006
  0.17040000000000000         -1.5250028582158848E-006
  0.17150000000000004         -1.6449261011075578E-006
  0.17260000000000003         -1.7490363006800180E-006
  0.17370000000000002         -1.8364449942964711E-006
  0.17480000000000001         -1.9064076468566782E-006
  0.17590000000000000         -1.9584051642596023E-006
  0.17700000000000005         -1.9921408238587901E-006
  0.17810000000000004         -2.0074514850421110E-006
  0.17920000000000003         -2.0042225514771417E-006
  0.18030000000000002         -1.9823937691398896E-006
  0.18140000000000001         -1.9420540411374532E-006
  0.18250000000000000         -1.8835328319255495E-006
  0.18360000000000004         -1.8074002809953527E-006
  0.18470000000000003         -1.7143705690614297E-006
  0.18580000000000002         -1.6052043747549760E-006
  0.18690000000000001         -1.4807058050791966E-006
  0.18800000000000000         -1.3418132311926456E-006
  0.18910000000000005         -1.1896929663635092E-006
  0.19020000000000004         -1.0257349458697718E-006
  0.19130000000000003         -8.5144557715466362E-007
  0.19240000000000002         -6.6833410983235808E-007
  0.19350000000000001         -4.7789160362299299E-007
  0.19460000000000005         -2.8167008281343442E-007
  0.19570000000000004         -8.1367822701849946E-008
  0.19680000000000003          1.2117763503738388E-007
  0.19790000000000002          3.2409769801233779E-007
  0.19900000000000001          5.2561011898433208E-007
  0.20010000000000000          7.2404696993544349E-007
  0.20120000000000005          9.1778423438881873E-007
  0.20230000000000004          1.1051635055991937E-006
  0.20340000000000003          1.2845031278629904E-006
  0.20450000000000002          1.4542076769430423E-006
  0.20560000000000000          1.6128873312482028E-006
  0.20670000000000005          1.7593871461940580E-006
  0.20780000000000004          1.8927169094240526E-006
  0.20890000000000003          2.0119618966418784E-006
