 -0.12000000000000000          0.0000000000000000
 -0.11889999999999999          0.0000000000000000
 -0.11780000000000000          0.0000000000000000
 -0.11670000000000000          0.0000000000000000
 -0.11559999999999999          0.0000000000000000
 -0.11449999999999999          0.0000000000000000
 -0.11340000000000000          0.0000000000000000
 -0.11230000000000000          0.0000000000000000
 -0.11119999999999999          0.0000000000000000
 -0.11009999999999999          0.0000000000000000
 -0.10900000000000000         -4.0347132438394262E-036
 -0.10790000000000000         -1.6016483611656809E-034
 -0.10679999999999999         -2.3253485984592485E-033
 -0.10569999999999999         -1.8363938621162469E-032
 -0.10460000000000000         -9.2519786684435390E-032
 -0.10349999999999999         -3.1571514260966959E-031
 -0.10239999999999999         -7.1135336864587136E-031
 -0.10130000000000000         -8.0732519432553603E-031
 -0.10020000000000000          8.7320271893205900E-031
  -9.9099999999999994E-002     5.8290154319422931E-030
  -9.7999999999999990E-002     1.0645614631103288E-029
  -9.6899999999999986E-002     3.8272967588196892E-031
  -9.5799999999999996E-002    -4.2804801117961582E-029
  -9.4699999999999993E-002    -9.0143656603654976E-029
  -9.3599999999999989E-002    -7.5208551743576251E-031
  -9.2499999999999999E-002     3.8678446258303997E-028
  -9.1399999999999995E-002     7.5749732866966011E-028
  -9.0299999999999991E-002    -2.9940153025816687E-028
  -8.9200000000000002E-002    -4.2898710545385497E-027
  -8.8099999999999984E-002    -7.8344603762657043E-027
  -8.6999999999999994E-002     3.3606633972241624E-027
  -8.5899999999999990E-002     4.5027286838521158E-026
  -8.4799999999999986E-002     8.7819188390678850E-026
  -8.3699999999999997E-002    -5.2294385779132877E-028
  -8.2599999999999993E-002    -3.8342594159028594E-025
  -8.1499999999999989E-002    -8.7246270762691104E-025
  -8.0399999999999999E-002    -4.1602818229648622E-025
  -7.9299999999999995E-002     2.4934865722707133E-024
  -7.8199999999999992E-002     7.1062262727427812E-024
  -7.7100000000000002E-002     6.4082109837974737E-024
  -7.5999999999999984E-002    -1.1437140484443985E-023
  -7.4899999999999994E-002    -4.6692355124782359E-023
  -7.3799999999999991E-002    -6.0636374081439315E-023
  -7.2699999999999987E-002     2.5233001896769573E-023
  -7.1599999999999997E-002     2.4524441036357180E-022
  -7.0499999999999993E-002     4.2652060741552558E-022
  -6.9399999999999989E-002     1.2864530334355489E-022
  -6.8300000000000000E-002    -9.9750186665974106E-022
  -6.7199999999999996E-002    -2.3674741158641607E-021
  -6.6099999999999992E-002    -1.8922923773854745E-021
  -6.5000000000000002E-002     2.7918634104403963E-021
  -6.3899999999999985E-002     1.0552557947427782E-020
  -6.2799999999999995E-002     1.3087235638127027E-020
  -6.1699999999999991E-002    -2.1129157446995020E-021
  -6.0599999999999994E-002    -3.7231735413135625E-020
  -5.9499999999999990E-002    -6.5384407508723110E-020
  -5.8399999999999994E-002    -3.2281792923564542E-020
  -5.7299999999999990E-002     9.6408850358290104E-020
  -5.6199999999999986E-002     2.5548165982463273E-019
  -5.5099999999999996E-002     2.4912216602835434E-019
  -5.3999999999999992E-002    -1.2403595257217671E-019
  -5.2899999999999989E-002    -7.8495759177556465E-019
  -5.1799999999999985E-002    -1.1530354901712218E-018
  -5.0699999999999995E-002    -3.8011433273588695E-019
  -4.9599999999999991E-002     1.7809556343881615E-018
  -4.8499999999999988E-002     3.9844111374306455E-018
  -4.7399999999999998E-002     3.3937650957838406E-018
  -4.6299999999999994E-002    -2.1365645088326177E-018
  -4.5199999999999990E-002    -1.0597461640850679E-017
  -4.4099999999999986E-002    -1.4323762235072422E-017
  -4.2999999999999997E-002    -4.2216883097317878E-018
  -4.1899999999999993E-002     2.0336759792124544E-017
  -4.0799999999999989E-002     4.3158121990174617E-017
  -3.9699999999999985E-002     3.5949454710011795E-017
  -3.8599999999999995E-002    -1.8542657983056230E-017
  -3.7499999999999992E-002    -9.7360633787704152E-017
  -3.6399999999999988E-002    -1.3150117684696048E-016
  -3.5299999999999984E-002    -4.8235035643947431E-017
  -3.4199999999999994E-002     1.5046067264737811E-016
  -3.3099999999999991E-002     3.3528496903905075E-016
  -3.1999999999999987E-002     2.9965447517323941E-016
  -3.0899999999999997E-002    -7.1755661590264106E-017
  -2.9799999999999993E-002    -6.1947749303487335E-016
  -2.8699999999999989E-002    -8.9769727008225065E-016
  -2.7599999999999986E-002    -4.5530154379154540E-016
  -2.6499999999999996E-002     7.0593848700497446E-016
  -2.5399999999999992E-002     1.8654304006170391E-015
  -2.4299999999999988E-002     1.8926165583338763E-015
  -2.3199999999999985E-002     1.3719581905602055E-016
  -2.2099999999999995E-002    -2.6786508514081318E-015
  -2.0999999999999991E-002    -4.4497211464263314E-015
  -1.9899999999999987E-002    -3.0124667476792884E-015
  -1.8799999999999983E-002     1.8345283093605972E-015
  -1.7699999999999994E-002     7.2338680455908549E-015
  -1.6599999999999990E-002     8.5609357398778486E-015
  -1.5499999999999986E-002     2.9233705283311607E-015
  -1.4399999999999996E-002    -7.4874900387895266E-015
  -1.3299999999999992E-002    -1.5373910572879200E-014
  -1.2199999999999989E-002    -1.2956258312849141E-014
  -1.1099999999999985E-002     1.2588239437926092E-015
  -9.9999999999999950E-003     1.8971008778115826E-014
  -8.8999999999999913E-003     2.6157763157114503E-014
  -7.7999999999999875E-003     1.3581571915830155E-014
  -6.6999999999999837E-003    -1.3651282727389184E-014
  -5.5999999999999939E-003    -3.6356724244677660E-014
  -4.4999999999999901E-003    -3.4085632401445118E-014
  -3.3999999999999864E-003    -2.6892792090720419E-015
  -2.2999999999999826E-003     3.7712488568184682E-014
  -1.1999999999999927E-003     5.4150304710067279E-014
  -9.9999999999988987E-005     2.6687936325394020E-014
   1.0000000000000148E-003    -3.0504715913632838E-014
   2.1000000000000185E-003    -7.3044787449530468E-014
   3.2000000000000084E-003    -5.8332143640111439E-014
   4.3000000000000121E-003     1.5568551967894660E-014
   5.4000000000000159E-003     9.7121868381823406E-014
   6.5000000000000058E-003     1.1294136063660573E-013
   7.6000000000000234E-003     2.7517088407131782E-014
   8.7000000000000133E-003    -1.1431406223092605E-013
   9.8000000000000032E-003    -2.0397985872003949E-013
   1.0900000000000021E-002    -1.4575843245052955E-013
   1.2000000000000011E-002     5.7397656235119027E-014
   1.3100000000000001E-002     2.7975508736823029E-013
   1.4200000000000018E-002     3.4567441682502309E-013
   1.5300000000000008E-002     1.6111486873370690E-013
   1.6400000000000026E-002    -1.9197203505669225E-013
   1.7500000000000016E-002    -4.8351139715283042E-013
   1.8600000000000005E-002    -4.8699531820378672E-013
   1.9700000000000023E-002    -1.5530357219423890E-013
   2.0800000000000013E-002     3.1689698066182659E-013
   2.1900000000000003E-002     6.1258599104788147E-013
   2.3000000000000020E-002     5.2378235212632851E-013
   2.4100000000000010E-002     1.2094238642252481E-013
   2.5200000000000000E-002    -2.8906391169591927E-013
   2.6300000000000018E-002    -4.0917228914978676E-013
   2.7400000000000008E-002    -2.1566852036886131E-013
   2.8500000000000025E-002    -1.6359350821297221E-015
   2.9600000000000015E-002    -1.1459946490030570E-013
   3.0700000000000005E-002    -5.6896929659031037E-013
   3.1800000000000023E-002    -8.8383494316682243E-013
   3.2900000000000013E-002    -3.8962640080443534E-013
   3.4000000000000002E-002     1.1203777705928730E-012
   3.5100000000000020E-002     2.8924232800542349E-012
   3.6200000000000010E-002     3.4136914215526781E-012
   3.7300000000000028E-002     1.4271578710478572E-012
   3.8400000000000017E-002    -2.8120628655509128E-012
   3.9500000000000007E-002    -7.0412000882646986E-012
   4.0600000000000025E-002    -7.9791182341915068E-012
   4.1700000000000015E-002    -3.5419195788116697E-012
   4.2800000000000005E-002     5.0692857030132377E-012
   4.3900000000000022E-002     1.3111987190450591E-011
   4.5000000000000012E-002     1.4678671472756477E-011
   4.6100000000000002E-002     6.7044421230011420E-012
   4.7200000000000020E-002    -7.9431305283206299E-012
   4.8300000000000010E-002    -2.0867795338941342E-011
   4.9400000000000027E-002    -2.2701831733917821E-011
   5.0500000000000017E-002    -9.5661508228706005E-012
   5.1600000000000007E-002     1.2794371465063570E-011
   5.2700000000000025E-002     3.0781748677766174E-011
   5.3800000000000014E-002     3.0785780175124344E-011
   5.4900000000000004E-002     8.9122945134967324E-012
   5.6000000000000022E-002    -2.3933400400411031E-011
   5.7100000000000012E-002    -4.6355100313810738E-011
   5.8200000000000002E-002    -3.9334781959388110E-011
   5.9300000000000019E-002    -5.5450332910392253E-013
   6.0400000000000009E-002     4.9654093337014871E-011
   6.1500000000000027E-002     7.7017670019330353E-011
   6.2600000000000017E-002     5.4218855100041097E-011
   6.3700000000000007E-002    -1.7589332768075394E-011
   6.4800000000000024E-002    -1.0151575413619440E-010
   6.5900000000000014E-002    -1.4066535436452199E-010
   6.7000000000000004E-002    -9.2089585956856013E-011
   6.8100000000000022E-002     3.9413264318888253E-011
   6.9200000000000012E-002     1.9055475253271226E-010
   7.0300000000000029E-002     2.6515098450197172E-010
   7.1400000000000019E-002     1.8860225881045523E-010
   7.2500000000000009E-002    -3.7016879145257420E-011
   7.3600000000000027E-002    -3.1289618118712781E-010
   7.4700000000000016E-002    -4.8016401965611522E-010
   7.5800000000000006E-002    -4.0391820443907989E-010
   7.6900000000000024E-002    -6.3021858565104338E-011
   7.8000000000000014E-002     4.0905079323749760E-010
   7.9100000000000004E-002     7.6864697939882376E-010
   8.0200000000000021E-002     7.8293771466064754E-010
   8.1300000000000011E-002     3.6974553974111757E-010
   8.2400000000000029E-002    -3.2477359690474827E-010
   8.3500000000000019E-002    -9.6934982263263691E-010
   8.4600000000000009E-002    -1.2077537858701248E-009
   8.5700000000000026E-002    -8.5996254561848673E-010
   8.6800000000000016E-002    -5.0281192404133535E-011
   8.7900000000000006E-002     8.2603657247659612E-010
   8.9000000000000024E-002     1.3014909150399490E-009
   9.0100000000000013E-002     1.1032887936579527E-009
   9.1200000000000003E-002     3.3495536899685874E-010
   9.2300000000000021E-002    -5.5026899703491949E-010
   9.3400000000000011E-002    -9.9468566716609530E-010
   9.4500000000000028E-002    -6.7508565404494902E-010
   9.5600000000000018E-002     2.6505575512203450E-010
   9.6700000000000008E-002     1.2490175560486705E-009
   9.7800000000000026E-002     1.5762269267582951E-009
   9.8900000000000016E-002     8.4358470209267011E-010
  0.10000000000000001         -7.7561218558841460E-010
  0.10110000000000002         -2.5855868557300710E-009
  0.10220000000000001         -3.7490663906680766E-009
  0.10330000000000003         -3.7739456004715066E-009
  0.10440000000000002         -2.7907174349195429E-009
  0.10550000000000001         -1.4133949566286219E-009
  0.10660000000000003         -2.3974902618739691E-010
  0.10770000000000002          6.9270200686588623E-010
  0.10880000000000001          2.0998693894824783E-009
  0.10990000000000003          5.0838750986770265E-009
  0.11100000000000002          1.0359588742403503E-008
  0.11210000000000001          1.7549345088241353E-008
  0.11320000000000002          2.5069583742265422E-008
  0.11430000000000001          3.0831344588477805E-008
  0.11540000000000003          3.3468321447571725E-008
  0.11650000000000002          3.3399103926967655E-008
  0.11760000000000001          3.3013293432304636E-008
  0.11870000000000003          3.5718745294843757E-008
  0.11980000000000002          4.4277353339339243E-008
  0.12090000000000001          5.9374581695692541E-008
  0.12200000000000003          7.9351202941779775E-008
  0.12310000000000001          1.0141017980913603E-007
  0.12420000000000003          1.2371391733267956E-007
  0.12530000000000002          1.4714825624650985E-007
  0.12640000000000001          1.7559240461650916E-007
  0.12750000000000003          2.1434588859392534E-007
  0.12860000000000002          2.6749668791126169E-007
  0.12970000000000001          3.3578623970242916E-007
  0.13080000000000003          4.1640760173322633E-007
  0.13190000000000002          5.0513853011580068E-007
  0.13300000000000001          5.9980914102197858E-007
  0.13410000000000000          7.0317054223778541E-007
  0.13520000000000004          8.2338493712086347E-007
  0.13630000000000003          9.7160898349102354E-007
  0.13740000000000002          1.1578244993870612E-006
  0.13850000000000001          1.3871984947400051E-006
  0.13960000000000000          1.6590983022979344E-006
  0.14070000000000005          1.9694721231644507E-006
  0.14180000000000004          2.3153870643000118E-006
  0.14290000000000003          2.6992254333890742E-006
  0.14400000000000002          3.1301492526836228E-006
  0.14510000000000001          3.6219694266037550E-006
  0.14620000000000000          4.1886182771122549E-006
  0.14730000000000004          4.8398073886346538E-006
  0.14840000000000003          5.5793507272028364E-006
  0.14950000000000002          6.4070313783304300E-006
  0.15060000000000001          7.3227720349677838E-006
  0.15170000000000000          8.3304676081752405E-006
  0.15280000000000005          9.4390661615761928E-006
  0.15390000000000004          1.0660175576049369E-005
  0.15500000000000003          1.2003635674773250E-005
  0.15610000000000002          1.3473735634761397E-005
  0.15720000000000001          1.5068329048517626E-005
  0.15830000000000000          1.6781292288214900E-005
  0.15940000000000004          1.8606526282383129E-005
  0.16050000000000003          2.0540663172141649E-005
  0.16160000000000002          2.2582504243473522E-005
  0.16270000000000001          2.4729131837375462E-005
  0.16380000000000000          2.6970859835273586E-005
  0.16490000000000005          2.9288201403687708E-005
  0.16600000000000004          3.1652882171329111E-005
  0.16710000000000003          3.4032331313937902E-005
  0.16820000000000002          3.6394820199348032E-005
  0.16930000000000001          3.8711968954885378E-005
  0.17040000000000000          4.0956478187581524E-005
  0.17150000000000004          4.3095969886053354E-005
  0.17260000000000003          4.5086573663866147E-005
  0.17370000000000002          4.6870285586919636E-005
  0.17480000000000001          4.8378238716395572E-005
  0.17590000000000000          4.9538415623828769E-005
  0.17700000000000005          5.0284212193218991E-005
  0.17810000000000004          5.0559268856886774E-005
  0.17920000000000003          5.0315731641603634E-005
  0.18030000000000002          4.9507201765663922E-005
  0.18140000000000001          4.8080786655191332E-005
  0.18250000000000000          4.5973050873726606E-005
  0.18360000000000004          4.3113035644637421E-005
  0.18470000000000003          3.9431866753147915E-005
  0.18580000000000002          3.4874185075750574E-005
  0.18690000000000001          2.9406062822090462E-005
  0.18800000000000000          2.3016133127384819E-005
  0.18910000000000005          1.5710584193584509E-005
  0.19020000000000004          7.5059479058836587E-006
  0.19130000000000003         -1.5753159914311254E-006
  0.19240000000000002         -1.1504340363899246E-005
  0.19350000000000001         -2.2240579710341990E-005
  0.19460000000000005         -3.3724423701642081E-005
  0.19570000000000004         -4.5872173359384760E-005
  0.19680000000000003         -5.8575387811288238E-005
  0.19790000000000002         -7.1704220317769796E-005
  0.19900000000000001         -8.5112522356212139E-005
  0.20010000000000000         -9.8641758086159825E-005
  0.20120000000000005         -1.1212181561859325E-004
  0.20230000000000004         -1.2536977010313421E-004
  0.20340000000000003         -1.3818932347930968E-004
  0.20450000000000002         -1.5037323464639485E-004
  0.20560000000000000         -1.6170945309568197E-004
  0.20670000000000005         -1.7198894056491554E-004
  0.20780000000000004         -1.8101226305589080E-004
  0.20890000000000003         -1.8859273404814303E-004
