 -0.12000000000000000          0.0000000000000000
 -0.11889999999999999          0.0000000000000000
 -0.11780000000000000          0.0000000000000000
 -0.11670000000000000          1.8208493202109821E-005
 -0.11559999999999999          1.2023485396639444E-005
 -0.11449999999999999         -1.8472838564775884E-004
 -0.11340000000000000         -6.0582201695069671E-004
 -0.11230000000000000         -7.2531786281615496E-004
 -0.11119999999999999          3.4132282598875463E-004
 -0.11009999999999999          2.6075940113514662E-003
 -0.10900000000000000          4.1460455395281315E-003
 -0.10790000000000000          2.1743739489465952E-003
 -0.10679999999999999         -3.6295845638960600E-003
 -0.10569999999999999         -8.8794901967048645E-003
 -0.10460000000000000         -7.1491291746497154E-003
 -0.10349999999999999          3.2009126152843237E-003
 -0.10239999999999999          1.4732860028743744E-002
 -0.10130000000000000          1.5739073976874352E-002
 -0.10020000000000000          2.0839390344917774E-003
  -9.9099999999999994E-002    -1.5462193638086319E-002
  -9.7999999999999990E-002    -1.8751373514533043E-002
  -9.6899999999999986E-002    -8.8023178977891803E-004
  -9.5799999999999996E-002     2.2194888442754745E-002
  -9.4699999999999993E-002     2.2813133895397186E-002
  -9.3599999999999989E-002    -9.9268946796655655E-003
  -9.2499999999999999E-002    -5.1022667437791824E-002
  -9.1399999999999995E-002    -5.3723204880952835E-002
  -9.0299999999999991E-002     8.4888404235243797E-003
  -8.9200000000000002E-002    0.10820718109607697
  -8.8099999999999984E-002    0.17451643943786621
  -8.6999999999999994E-002    0.14653638005256653
  -8.5899999999999990E-002     2.7151221409440041E-002
  -8.4799999999999986E-002   -0.11205740272998810
  -8.3699999999999997E-002   -0.18352711200714111
  -8.2599999999999993E-002   -0.15097032487392426
  -8.1499999999999989E-002    -5.3020313382148743E-002
  -8.0399999999999999E-002     3.6770820617675781E-002
  -7.9299999999999995E-002     7.6318316161632538E-002
  -7.8199999999999992E-002     8.7240383028984070E-002
  -7.7100000000000002E-002    0.12495694309473038
  -7.5999999999999984E-002    0.21631649136543274
  -7.4899999999999994E-002    0.32343432307243347
  -7.3799999999999991E-002    0.36715576052665710
  -7.2699999999999987E-002    0.28943091630935669
  -7.1599999999999997E-002    0.10110983997583389
  -7.0499999999999993E-002   -0.12263745069503784
  -6.9399999999999989E-002   -0.29144832491874695
  -6.8300000000000000E-002   -0.35242044925689697
  -6.7199999999999996E-002   -0.30974251031875610
  -6.6099999999999992E-002   -0.20586752891540527
  -6.5000000000000002E-002    -8.6235620081424713E-002
  -6.3899999999999985E-002     2.5737093761563301E-002
  -6.2799999999999995E-002    0.13017866015434265
  -6.1699999999999991E-002    0.23198887705802917
  -6.0599999999999994E-002    0.31549546122550964
  -5.9499999999999990E-002    0.33087980747222900
  -5.8399999999999994E-002    0.20821145176887512
  -5.7299999999999990E-002    -9.9805429577827454E-002
  -5.6199999999999986E-002   -0.57001054286956787
  -5.5099999999999996E-002    -1.0960597991943359
  -5.3999999999999992E-002    -1.5366884469985962
  -5.2899999999999989E-002    -1.8056323528289795
  -5.1799999999999985E-002    -1.9420690536499023
  -5.0699999999999995E-002    -2.1027691364288330
  -4.9599999999999991E-002    -2.4729282855987549
  -4.8499999999999988E-002    -3.1583917140960693
  -4.7399999999999998E-002    -4.1398644447326660
  -4.6299999999999994E-002    -5.3201794624328613
  -4.5199999999999990E-002    -6.6208043098449707
  -4.4099999999999986E-002    -8.0489368438720703
  -4.2999999999999997E-002    -9.6903409957885742
  -4.1899999999999993E-002    -11.648180961608887
  -4.0799999999999989E-002    -13.986485481262207
  -3.9699999999999985E-002    -16.716981887817383
  -3.8599999999999995E-002    -19.825256347656250
  -3.7499999999999992E-002    -23.304582595825195
  -3.6399999999999988E-002    -27.179000854492188
  -3.5299999999999984E-002    -31.514833450317383
  -3.4199999999999994E-002    -36.419559478759766
  -3.3099999999999991E-002    -42.019851684570312
  -3.1999999999999987E-002    -48.413436889648438
  -3.0899999999999997E-002    -55.622104644775391
  -2.9799999999999993E-002    -63.594387054443359
  -2.8699999999999989E-002    -72.277320861816406
  -2.7599999999999986E-002    -81.699111938476562
  -2.6499999999999996E-002    -91.979858398437500
  -2.5399999999999992E-002    -103.23552703857422
  -2.4299999999999988E-002    -115.44958496093750
  -2.3199999999999985E-002    -128.44062805175781
  -2.2099999999999995E-002    -141.98765563964844
  -2.0999999999999991E-002    -156.01091003417969
  -1.9899999999999987E-002    -170.62963867187500
  -1.8799999999999983E-002    -186.02070617675781
  -1.7699999999999994E-002    -202.18095397949219
  -1.6599999999999990E-002    -218.82029724121094
  -1.5499999999999986E-002    -235.49348449707031
  -1.4399999999999996E-002    -251.85951232910156
  -1.3299999999999992E-002    -267.81851196289062
  -1.2199999999999989E-002    -283.36831665039062
  -1.1099999999999985E-002    -298.33612060546875
  -9.9999999999999950E-003    -312.22518920898438
  -8.8999999999999913E-003    -324.37637329101562
  -7.7999999999999875E-003    -334.28274536132812
  -6.6999999999999837E-003    -341.74960327148438
  -5.5999999999999939E-003    -346.74752807617188
  -4.4999999999999901E-003    -349.07943725585938
  -3.3999999999999864E-003    -348.21542358398438
  -2.2999999999999826E-003    -343.46664428710938
  -1.1999999999999927E-003    -334.33096313476562
  -9.9999999999988987E-005    -320.65707397460938
   1.0000000000000148E-003    -302.45111083984375
   2.1000000000000185E-003    -279.52175903320312
   3.2000000000000084E-003    -251.34973144531250
   4.3000000000000121E-003    -217.35549926757812
   5.4000000000000159E-003    -177.33280944824219
   6.5000000000000058E-003    -131.61790466308594
   7.6000000000000234E-003    -80.816543579101562
   8.7000000000000133E-003    -25.323459625244141
   9.8000000000000032E-003     34.833660125732422
   1.0900000000000021E-002     99.705322265625000
   1.2000000000000011E-002     168.92683410644531
   1.3100000000000001E-002     241.54725646972656
   1.4200000000000018E-002     316.37316894531250
   1.5300000000000008E-002     392.49237060546875
   1.6400000000000026E-002     469.44470214843750
   1.7500000000000016E-002     546.85571289062500
   1.8600000000000005E-002     623.87506103515625
   1.9700000000000023E-002     698.99774169921875
   2.0800000000000013E-002     770.47473144531250
   2.1900000000000003E-002     836.93646240234375
   2.3000000000000020E-002     897.62249755859375
   2.4100000000000010E-002     952.02178955078125
   2.5200000000000000E-002     999.28881835937500
   2.6300000000000018E-002     1038.0759277343750
   2.7400000000000008E-002     1066.9599609375000
   2.8500000000000025E-002     1085.0645751953125
   2.9600000000000015E-002     1092.2597656250000
   3.0700000000000005E-002     1088.7294921875000
   3.1800000000000023E-002     1074.3662109375000
   3.2900000000000013E-002     1048.5931396484375
   3.4000000000000002E-002     1010.8465576171875
   3.5100000000000020E-002     961.22052001953125
   3.6200000000000010E-002     900.63287353515625
   3.7300000000000028E-002     830.35272216796875
   3.8400000000000017E-002     751.32928466796875
   3.9500000000000007E-002     664.03332519531250
   4.0600000000000025E-002     568.90655517578125
   4.1700000000000015E-002     467.01217651367188
   4.2800000000000005E-002     360.16430664062500
   4.3900000000000022E-002     250.41313171386719
   4.5000000000000012E-002     139.39265441894531
   4.6100000000000002E-002     28.126598358154297
   4.7200000000000020E-002    -82.525794982910156
   4.8300000000000010E-002    -191.25032043457031
   4.9400000000000027E-002    -296.21929931640625
   5.0500000000000017E-002    -395.58016967773438
   5.1600000000000007E-002    -488.10742187500000
   5.2700000000000025E-002    -573.29895019531250
   5.3800000000000014E-002    -650.90423583984375
   5.4900000000000004E-002    -720.28009033203125
   5.6000000000000022E-002    -780.32922363281250
   5.7100000000000012E-002    -830.00720214843750
   5.8200000000000002E-002    -868.93835449218750
   5.9300000000000019E-002    -897.50634765625000
   6.0400000000000009E-002    -916.35864257812500
   6.1500000000000027E-002    -925.81665039062500
   6.2600000000000017E-002    -925.79028320312500
   6.3700000000000007E-002    -916.22930908203125
   6.4800000000000024E-002    -897.67077636718750
   6.5900000000000014E-002    -871.28112792968750
   6.7000000000000004E-002    -838.37622070312500
   6.8100000000000022E-002    -799.85247802734375
   6.9200000000000012E-002    -756.11297607421875
   7.0300000000000029E-002    -707.48797607421875
   7.1400000000000019E-002    -654.72943115234375
   7.2500000000000009E-002    -599.04431152343750
   7.3600000000000027E-002    -541.69909667968750
   7.4700000000000016E-002    -483.51135253906250
   7.5800000000000006E-002    -424.83862304687500
   7.6900000000000024E-002    -365.91345214843750
   7.8000000000000014E-002    -307.27755737304688
   7.9100000000000004E-002    -249.80758666992188
   8.0200000000000021E-002    -194.39457702636719
   8.1300000000000011E-002    -141.57914733886719
   8.2400000000000029E-002    -91.485786437988281
   8.3500000000000019E-002    -44.125919342041016
   8.4600000000000009E-002    0.31597885489463806
   8.5700000000000026E-002     41.459590911865234
   8.6800000000000016E-002     78.996734619140625
   8.7900000000000006E-002     112.85362243652344
   8.9000000000000024E-002     143.19599914550781
   9.0100000000000013E-002     170.18786621093750
   9.1200000000000003E-002     193.80136108398438
   9.2300000000000021E-002     213.86801147460938
   9.3400000000000011E-002     230.31246948242188
   9.4500000000000028E-002     243.25305175781250
   9.5600000000000018E-002     252.96771240234375
   9.6700000000000008E-002     259.67477416992188
   9.7800000000000026E-002     263.49011230468750
   9.8900000000000016E-002     264.47012329101562
  0.10000000000000001          262.78674316406250
  0.10110000000000002          258.74395751953125
  0.10220000000000001          252.68490600585938
  0.10330000000000003          244.85791015625000
  0.10440000000000002          235.40751647949219
  0.10550000000000001          224.48344421386719
  0.10660000000000003          212.33290100097656
  0.10770000000000002          199.27549743652344
  0.10880000000000001          185.58265686035156
  0.10990000000000003          171.38972473144531
  0.11100000000000002          156.75997924804688
  0.11210000000000001          141.81338500976562
  0.11320000000000002          126.79229736328125
  0.11430000000000001          111.99485778808594
  0.11540000000000003          97.659469604492188
  0.11650000000000002          83.905891418457031
  0.11760000000000001          70.811241149902344
  0.11870000000000003          58.495620727539062
  0.11980000000000002          47.110851287841797
  0.12090000000000001          36.730407714843750
  0.12200000000000003          27.283302307128906
  0.12310000000000001          18.619623184204102
  0.12420000000000003          10.656903266906738
  0.12530000000000002          3.4710402488708496
  0.12640000000000001         -2.7830939292907715
  0.12750000000000003         -8.0416212081909180
  0.12860000000000002         -12.419727325439453
  0.12970000000000001         -16.101659774780273
  0.13080000000000003         -19.160291671752930
  0.13190000000000002         -21.500251770019531
  0.13300000000000001         -22.996234893798828
  0.13410000000000000         -23.702310562133789
  0.13520000000000004         -23.893264770507812
  0.13630000000000003         -23.887723922729492
  0.13740000000000002         -23.800775527954102
  0.13850000000000001         -23.484136581420898
  0.13960000000000000         -22.730680465698242
  0.14070000000000005         -21.536176681518555
  0.14180000000000004         -20.162086486816406
  0.14290000000000003         -18.915515899658203
  0.14400000000000002         -17.868520736694336
  0.14510000000000001         -16.799713134765625
  0.14620000000000000         -15.421666145324707
  0.14730000000000004         -13.685745239257812
  0.14840000000000003         -11.856569290161133
  0.14950000000000002         -10.285051345825195
  0.15060000000000001         -9.1010284423828125
  0.15170000000000000         -8.1270570755004883
  0.15280000000000005         -7.0935144424438477
  0.15390000000000004         -5.9302616119384766
  0.15500000000000003         -4.8431549072265625
  0.15610000000000002         -4.1009011268615723
  0.15720000000000001         -3.7518591880798340
  0.15830000000000000         -3.5573835372924805
  0.15940000000000004         -3.2124781608581543
  0.16050000000000003         -2.6292772293090820
  0.16160000000000002         -2.0070745944976807
  0.16270000000000001         -1.6238764524459839
  0.16380000000000000         -1.5624160766601562
  0.16490000000000005         -1.6421368122100830
  0.16600000000000004         -1.6167893409729004
  0.16710000000000003         -1.4281378984451294
  0.16820000000000002         -1.2591060400009155
  0.16930000000000001         -1.3390899896621704
  0.17040000000000000         -1.6997400522232056
  0.17150000000000004         -2.1303744316101074
  0.17260000000000003         -2.3718698024749756
  0.17370000000000002         -2.3508353233337402
  0.17480000000000001         -2.2235026359558105
  0.17590000000000000         -2.1924545764923096
  0.17700000000000005         -2.2896590232849121
  0.17810000000000004         -2.3461441993713379
  0.17920000000000003         -2.1767656803131104
  0.18030000000000002         -1.7906401157379150
  0.18140000000000001         -1.4102429151535034
  0.18250000000000000         -1.2760243415832520
  0.18360000000000004         -1.4219857454299927
  0.18470000000000003         -1.6381429433822632
  0.18580000000000002         -1.6539200544357300
  0.18690000000000001         -1.3687237501144409
  0.18800000000000000        -0.91739839315414429
  0.18910000000000005        -0.52307808399200439
  0.19020000000000004        -0.28853040933609009
  0.19130000000000003        -0.12423642724752426
  0.19240000000000002         0.13132047653198242
  0.19350000000000001         0.52762579917907715
  0.19460000000000005         0.93544924259185791
  0.19570000000000004          1.1585797071456909
  0.19680000000000003          1.1129168272018433
  0.19790000000000002         0.90496629476547241
  0.19900000000000001         0.74096196889877319
  0.20010000000000000         0.75402861833572388
  0.20120000000000005         0.90443050861358643
  0.20230000000000004          1.0312813520431519
  0.20340000000000003         0.99916434288024902
  0.20450000000000002         0.80670201778411865
  0.20560000000000000         0.57117307186126709
  0.20670000000000005         0.41665938496589661
  0.20780000000000004         0.36932560801506042
  0.20890000000000003         0.34506899118423462
