 -0.12000000000000000          0.0000000000000000
 -0.11889999999999999          0.0000000000000000
 -0.11780000000000000          0.0000000000000000
 -0.11670000000000000          0.0000000000000000
 -0.11559999999999999          0.0000000000000000
 -0.11449999999999999          0.0000000000000000
 -0.11340000000000000          0.0000000000000000
 -0.11230000000000000          0.0000000000000000
 -0.11119999999999999          0.0000000000000000
 -0.11009999999999999         -4.1673730738501974E-044
 -0.10900000000000000         -1.8805937133693225E-031
 -0.10790000000000000         -3.6697767542323031E-030
 -0.10679999999999999         -1.5961788396954819E-029
 -0.10569999999999999          4.1445256324916090E-030
 -0.10460000000000000          2.0303187177511262E-028
 -0.10349999999999999          5.2002318503106551E-028
 -0.10239999999999999          4.4970979387753326E-028
 -0.10130000000000000          2.3322740070404581E-027
 -0.10020000000000000          1.5606144680809194E-026
  -9.9099999999999994E-002     2.9726543802354624E-026
  -9.7999999999999990E-002    -6.6551128607350869E-026
  -9.6899999999999986E-002    -4.3500575978963396E-025
  -9.5799999999999996E-002    -6.9877777231427483E-025
  -9.4699999999999993E-002     7.8966179625473411E-025
  -9.3599999999999989E-002     5.1556284506347324E-024
  -9.2499999999999999E-002     6.5351682857341502E-024
  -9.1399999999999995E-002    -1.0301671452406758E-023
  -9.0299999999999991E-002    -4.5674216530631650E-023
  -8.9200000000000002E-002    -3.5860840512237101E-023
  -8.8099999999999984E-002     1.2776739581934658E-022
  -8.6999999999999994E-002     3.7269759972900251E-022
  -8.5899999999999990E-002     1.4350537282705311E-022
  -8.4799999999999986E-002    -1.2567464502546516E-021
  -8.3699999999999997E-002    -2.9784130353592473E-021
  -8.2599999999999993E-002    -9.2054923004120847E-022
  -8.1499999999999989E-002     9.4075146052492029E-021
  -8.0399999999999999E-002     2.2117565577578612E-020
  -7.9299999999999995E-002     1.1207466888314069E-020
  -7.8199999999999992E-002    -5.2608008411774122E-020
  -7.7100000000000002E-002    -1.4190092122832427E-019
  -7.5999999999999984E-002    -1.1589331586921901E-019
  -7.4899999999999994E-002     2.0574110531798526E-019
  -7.3799999999999991E-002     7.5062235852432340E-019
  -7.2699999999999987E-002     8.7763976729231859E-019
  -7.1599999999999997E-002    -3.9631326916523196E-019
  -7.0499999999999993E-002    -3.1636386930832075E-018
  -6.9399999999999989E-002    -5.0326549415086977E-018
  -6.8300000000000000E-002    -1.4188615605449415E-018
  -6.7199999999999996E-002     1.0033884464363971E-017
  -6.6099999999999992E-002     2.2434331006883905E-017
  -6.5000000000000002E-002     1.7834240654136299E-017
  -6.3899999999999985E-002    -1.9738551044928493E-017
  -6.2799999999999995E-002    -7.7724100582083832E-017
  -6.1699999999999991E-002    -9.8294394967840225E-017
  -6.0599999999999994E-002    -7.4232453757050767E-018
  -5.9499999999999990E-002     1.9998953457464285E-016
  -5.8399999999999994E-002     3.7681083868757157E-016
  -5.7299999999999990E-002     2.5823906391511027E-016
  -5.6199999999999986E-002    -3.1198002216560003E-016
  -5.5099999999999996E-002    -1.0725652103397059E-015
  -5.3999999999999992E-002    -1.2728972903323147E-015
  -5.2899999999999989E-002    -1.4723613733142322E-016
  -5.1799999999999985E-002     2.1700810466900530E-015
  -5.0699999999999995E-002     4.0282032470385756E-015
  -4.9599999999999991E-002     2.9288535843576511E-015
  -4.8499999999999988E-002    -2.2827349463667246E-015
  -4.7399999999999998E-002    -9.0765755168486353E-015
  -4.6299999999999994E-002    -1.1309175641860191E-014
  -4.5199999999999990E-002    -3.3527196708349231E-015
  -4.4099999999999986E-002     1.3497417498453741E-014
  -4.2999999999999997E-002     2.7824092110733917E-014
  -4.1899999999999993E-002     2.3592381574823609E-014
  -4.0799999999999989E-002    -6.1538552980586427E-015
  -3.9699999999999985E-002    -4.6948596811417542E-014
  -3.8599999999999995E-002    -6.5483541169831165E-014
  -3.7499999999999992E-002    -3.2578676084993783E-014
  -3.6399999999999988E-002     4.6140778101483451E-014
  -3.5299999999999984E-002     1.1885902418546101E-013
  -3.4199999999999994E-002     1.1608806093061394E-013
  -3.3099999999999991E-002     9.2209717644811048E-015
  -3.1999999999999987E-002    -1.4523324491817134E-013
  -3.0899999999999997E-002    -2.2514156066811100E-013
  -2.9799999999999993E-002    -1.3300988186296316E-013
  -2.8699999999999989E-002     1.0294429154606736E-013
  -2.7599999999999986E-002     3.1115561516248497E-013
  -2.6499999999999996E-002     2.9084162378805861E-013
  -2.5399999999999992E-002    -5.1977473770629921E-015
  -2.4299999999999988E-002    -3.7296671285234127E-013
  -2.3199999999999985E-002    -4.7087052139352049E-013
  -2.2099999999999995E-002    -1.0841804884424348E-013
  -2.0999999999999991E-002     5.1059639372476494E-013
  -1.9899999999999987E-002     8.4455820158553505E-013
  -1.8799999999999983E-002     4.2192421431671571E-013
  -1.7699999999999994E-002    -6.6913195904261861E-013
  -1.6599999999999990E-002    -1.6491866466212187E-012
  -1.5499999999999986E-002    -1.5217958187001467E-012
  -1.4399999999999996E-002     8.4584771099002760E-014
  -1.3299999999999992E-002     2.3579178973914150E-012
  -1.2199999999999989E-002     3.6150763372407224E-012
  -1.1099999999999985E-002     2.4618263157198095E-012
  -9.9999999999999950E-003    -9.7281449389048675E-013
  -8.8999999999999913E-003    -4.7518430162928067E-012
  -7.7999999999999875E-003    -6.2369519271412805E-012
  -6.6999999999999837E-003    -3.9495962923802743E-012
  -5.5999999999999939E-003     1.1827543068200856E-012
  -4.4999999999999901E-003     6.2567325452563555E-012
  -3.3999999999999864E-003     8.3164976641405017E-012
  -2.2999999999999826E-003     6.3488108000004963E-012
  -1.1999999999999927E-003     1.7726979823296684E-012
  -9.9999999999988987E-005    -2.9576766383257913E-012
   1.0000000000000148E-003    -6.3775091978242499E-012
   2.1000000000000185E-003    -8.7568242587711093E-012
   3.2000000000000084E-003    -1.0750505520518785E-011
   4.3000000000000121E-003    -1.1213314998760363E-011
   5.4000000000000159E-003    -6.6874370624485847E-012
   6.5000000000000058E-003     5.9220514776730841E-012
   7.6000000000000234E-003     2.4824588565340861E-011
   8.7000000000000133E-003     4.0835498177349957E-011
   9.8000000000000032E-003     4.0473270568333501E-011
   1.0900000000000021E-002     1.4597042324875682E-011
   1.2000000000000011E-002    -3.2332737182056077E-011
   1.3100000000000001E-002    -7.9570336430908654E-011
   1.4200000000000018E-002    -9.8326013997508698E-011
   1.5300000000000008E-002    -6.8256289509356898E-011
   1.6400000000000026E-002     7.2206914926317850E-012
   1.7500000000000016E-002     9.7515794050806304E-011
   1.8600000000000005E-002     1.5791778995576914E-010
   1.9700000000000023E-002     1.5317797030789783E-010
   2.0800000000000013E-002     7.7861515845892568E-011
   2.1900000000000003E-002    -3.9466784007548429E-011
   2.3000000000000020E-002    -1.5117698759501633E-010
   2.4100000000000010E-002    -2.1483338719096001E-010
   2.5200000000000000E-002    -2.1078569445443311E-010
   2.6300000000000018E-002    -1.4283040028486393E-010
   2.7400000000000008E-002    -2.5783280024927195E-011
   2.8500000000000025E-002     1.2482855027414322E-010
   2.9600000000000015E-002     2.8776422911211314E-010
   3.0700000000000005E-002     4.1877695755587116E-010
   3.1800000000000023E-002     4.4235190510557847E-010
   3.2900000000000013E-002     2.7661403723128188E-010
   3.4000000000000002E-002    -1.0589376597806529E-010
   3.5100000000000020E-002    -6.1402632978151563E-010
   3.6200000000000010E-002    -1.0252299009749485E-009
   3.7300000000000028E-002    -1.0636781455631012E-009
   3.8400000000000017E-002    -5.5467364035175162E-010
   3.9500000000000007E-002     4.2291767310397305E-010
   4.0600000000000025E-002     1.4914859347568903E-009
   4.1700000000000015E-002     2.1019272988808544E-009
   4.2800000000000005E-002     1.8022771053338837E-009
   4.3900000000000022E-002     5.1783405341520046E-010
   4.5000000000000012E-002    -1.3227018369475506E-009
   4.6100000000000002E-002    -2.9182019023464131E-009
   4.7200000000000020E-002    -3.4505438506469908E-009
   4.8300000000000010E-002    -2.4975246315505579E-009
   4.9400000000000027E-002    -2.8549290709284205E-010
   5.0500000000000017E-002     2.3653050629233687E-009
   5.1600000000000007E-002     4.3903343183157770E-009
   5.2700000000000025E-002     4.9530393120275526E-009
   5.3800000000000014E-002     3.7994669632721466E-009
   5.4900000000000004E-002     1.3209922045120036E-009
   5.6000000000000022E-002    -1.6843566541523358E-009
   5.7100000000000012E-002    -4.3929846427200869E-009
   5.8200000000000002E-002    -6.2488298979696709E-009
   5.9300000000000019E-002    -7.0102008642431501E-009
   6.0400000000000009E-002    -6.5680478833481967E-009
   6.1500000000000027E-002    -4.7245789502880788E-009
   6.2600000000000017E-002    -1.1710963310210724E-009
   6.3700000000000007E-002     4.2184065129896149E-009
   6.4800000000000024E-002     1.0899581681655246E-008
   6.5900000000000014E-002     1.7307504762697449E-008
   6.7000000000000004E-002     2.1003749850478591E-008
   6.8100000000000022E-002     1.9463659128859918E-008
   6.9200000000000012E-002     1.1268430633038178E-008
   7.0300000000000029E-002    -2.8663762474675165E-009
   7.1400000000000019E-002    -1.9860092237422157E-008
   7.2500000000000009E-002    -3.5165189871122017E-008
   7.3600000000000027E-002    -4.4559243406183040E-008
   7.4700000000000016E-002    -4.6051692237369001E-008
   7.5800000000000006E-002    -4.0932711442563661E-008
   7.6900000000000024E-002    -3.3324784709518862E-008
   7.8000000000000014E-002    -2.8349429470606197E-008
   7.9100000000000004E-002    -2.9812380120116642E-008
   8.0200000000000021E-002    -3.8671927882201375E-008
   8.1300000000000011E-002    -5.3204157524072835E-008
   8.2400000000000029E-002    -7.0828562570561583E-008
   8.3500000000000019E-002    -9.0516472539539374E-008
   8.4600000000000009E-002    -1.1422290668859976E-007
   8.5700000000000026E-002    -1.4625265976063597E-007
   8.6800000000000016E-002    -1.9072807333485273E-007
   8.7900000000000006E-002    -2.4865897785273946E-007
   8.9000000000000024E-002    -3.1664970379095296E-007
   9.0100000000000013E-002    -3.8853357864352334E-007
   9.1200000000000003E-002    -4.5949752802695834E-007
   9.2300000000000021E-002    -5.3054174031782301E-007
   9.3400000000000011E-002    -6.1053935951345175E-007
   9.4500000000000028E-002    -7.1424955194737781E-007
   9.5600000000000018E-002    -8.5690834339395819E-007
   9.6700000000000008E-002    -1.0481704748598632E-006
   9.7800000000000026E-002    -1.2888365290563282E-006
   9.8900000000000016E-002    -1.5724315289843370E-006
  0.10000000000000001         -1.8909935306508934E-006
  0.10110000000000002         -2.2419555989470798E-006
  0.10220000000000001         -2.6322832127332623E-006
  0.10330000000000003         -3.0775781851841652E-006
  0.10440000000000002         -3.5967991607319215E-006
  0.10550000000000001         -4.2058131839436596E-006
  0.10660000000000003         -4.9136256166089849E-006
  0.10770000000000002         -5.7234015002900648E-006
  0.10880000000000001         -6.6373745539744526E-006
  0.10990000000000003         -7.6623282438953201E-006
  0.11100000000000002         -8.8120232248904943E-006
  0.11210000000000001         -1.0104986358782435E-005
  0.11320000000000002         -1.1559091035450387E-005
  0.11430000000000001         -1.3186420801502102E-005
  0.11540000000000003         -1.4991706848376203E-005
  0.11650000000000002         -1.6975192920652766E-005
  0.11760000000000001         -1.9137796698485876E-005
  0.11870000000000003         -2.1484873286679573E-005
  0.11980000000000002         -2.4025761376831656E-005
  0.12090000000000001         -2.6769144824354661E-005
  0.12200000000000003         -2.9717046345465324E-005
  0.12310000000000001         -3.2861295039762921E-005
  0.12420000000000003         -3.6184675991532293E-005
  0.12530000000000002         -3.9665752410652656E-005
  0.12640000000000001         -4.3283933337075865E-005
  0.12750000000000003         -4.7020872443677761E-005
  0.12860000000000002         -5.0856608140743834E-005
  0.12970000000000001         -5.4762207582821289E-005
  0.13080000000000003         -5.8692967286328583E-005
  0.13190000000000002         -6.2586259446101633E-005
  0.13300000000000001         -6.6365391830908166E-005
  0.13410000000000000         -6.9947411247988842E-005
  0.13520000000000004         -7.3250499553972209E-005
  0.13630000000000003         -7.6196825830259347E-005
  0.13740000000000002         -7.8709555964444480E-005
  0.13850000000000001         -8.0706318840377436E-005
  0.13960000000000000         -8.2093247328877663E-005
  0.14070000000000005         -8.2763639511533160E-005
  0.14180000000000004         -8.2602586189743128E-005
  0.14290000000000003         -8.1495083577457812E-005
  0.14400000000000002         -7.9333745816249465E-005
  0.14510000000000001         -7.6022588473271819E-005
  0.14620000000000000         -7.1475988079321151E-005
  0.14730000000000004         -6.5615313360460994E-005
  0.14840000000000003         -5.8366913435741789E-005
  0.14950000000000002         -4.9664224206930187E-005
  0.15060000000000001         -3.9453916542693036E-005
  0.15170000000000000         -2.7703872547131921E-005
  0.15280000000000005         -1.4409554751179710E-005
  0.15390000000000004          4.0342257534731148E-007
  0.15500000000000003          1.6679892723914476E-005
  0.15610000000000002          3.4336593671467805E-005
  0.15720000000000001          5.3262279834595518E-005
  0.15830000000000000          7.3315641202493741E-005
  0.15940000000000004          9.4322756922331870E-005
  0.16050000000000003          1.1607687338254529E-004
  0.16160000000000002          1.3834184210280805E-004
  0.16270000000000001          1.6085844254119967E-004
  0.16380000000000000          1.8335050845051627E-004
  0.16490000000000005          2.0552742353173209E-004
  0.16600000000000004          2.2708192409480024E-004
  0.16710000000000003          2.4768582079557537E-004
  0.16820000000000002          2.6698847068471480E-004
  0.16930000000000001          2.8462285990824389E-004
  0.17040000000000000          3.0022027203810631E-004
  0.17150000000000004          3.1342997681346805E-004
  0.17260000000000003          3.2393628498536493E-004
  0.17370000000000002          3.3146661007773918E-004
  0.17480000000000001          3.3578861621205480E-004
  0.17590000000000000          3.3670087577772063E-004
  0.17700000000000005          3.3402568078596802E-004
  0.17810000000000004          3.2761148759160864E-004
  0.17920000000000003          3.1734674121250195E-004
  0.18030000000000002          3.0317992786873946E-004
  0.18140000000000001          2.8513628058132723E-004
  0.18250000000000000          2.6332386187275111E-004
  0.18360000000000004          2.3792701540512395E-004
  0.18470000000000003          2.0919185772070320E-004
  0.18580000000000002          1.7741225019561046E-004
  0.18690000000000001          1.4292269770520014E-004
  0.18800000000000000          1.0609965102047249E-004
  0.18910000000000005          6.7366010625836628E-005
  0.19020000000000004          2.7192572815686458E-005
  0.19130000000000003         -1.3908066648585313E-005
  0.19240000000000002         -5.5395725212291831E-005
  0.19350000000000001         -9.6720170404291652E-005
  0.19460000000000005         -1.3733611558563156E-004
  0.19570000000000004         -1.7671182285993066E-004
  0.19680000000000003         -2.1433261281343449E-004
  0.19790000000000002         -2.4970344384198936E-004
  0.19900000000000001         -2.8235564241183518E-004
  0.20010000000000000         -3.1185889383775412E-004
  0.20120000000000005         -3.3783531398509582E-004
  0.20230000000000004         -3.5997037775811454E-004
  0.20340000000000003         -3.7801708094772392E-004
  0.20450000000000002         -3.9179384475570444E-004
  0.20560000000000000         -4.0118006290864341E-004
  0.20670000000000005         -4.0611461736258175E-004
  0.20780000000000004         -4.0659977821629506E-004
  0.20890000000000003         -4.0270821773443378E-004
