 -0.12000000000000000          0.0000000000000000
 -0.11889999999999999          0.0000000000000000
 -0.11780000000000000          0.0000000000000000
 -0.11670000000000000          0.0000000000000000
 -0.11559999999999999          0.0000000000000000
 -0.11449999999999999          0.0000000000000000
 -0.11340000000000000          0.0000000000000000
 -0.11230000000000000          0.0000000000000000
 -0.11119999999999999          0.0000000000000000
 -0.11009999999999999          0.0000000000000000
 -0.10900000000000000          0.0000000000000000
 -0.10790000000000000          0.0000000000000000
 -0.10679999999999999          2.2444692791386169E-038
 -0.10569999999999999          2.2609036635117520E-032
 -0.10460000000000000          2.7314548456046005E-031
 -0.10349999999999999          1.2570194919896684E-030
 -0.10239999999999999          9.5728780467688661E-031
 -0.10130000000000000         -1.8529641324215257E-029
 -0.10020000000000000         -1.0718180511678984E-028
  -9.9099999999999994E-002    -2.7119358992069366E-028
  -9.7999999999999990E-002    -8.8634004379684889E-029
  -9.6899999999999986E-002     1.9204079180506888E-027
  -9.5799999999999996E-002     7.6188132300206877E-027
  -9.4699999999999993E-002     1.3537030319147446E-026
  -9.3599999999999989E-002    -1.2430578751272118E-027
  -9.2499999999999999E-002    -7.8572721690477956E-026
  -9.1399999999999995E-002    -2.3285002089444582E-025
  -9.0299999999999991E-002    -3.1176510205481387E-025
  -8.9200000000000002E-002     1.4885910052109467E-025
  -8.8099999999999984E-002     1.7268900828082067E-024
  -8.6999999999999994E-002     4.0882160266140756E-024
  -8.5899999999999990E-002     4.2796157703260393E-024
  -8.4799999999999986E-002    -3.6919033518837124E-024
  -8.3699999999999997E-002    -2.4159838676750529E-023
  -8.2599999999999993E-002    -4.7876744576993944E-023
  -8.1499999999999989E-002    -4.0004761557222264E-023
  -8.0399999999999999E-002     5.0790683164910010E-023
  -7.9299999999999995E-002     2.3825363861747355E-022
  -7.8199999999999992E-002     4.0852995920702554E-022
  -7.7100000000000002E-002     2.7638389311449154E-022
  -7.5999999999999984E-002    -4.7065021851650903E-022
  -7.4899999999999994E-002    -1.7650461093909983E-021
  -7.3799999999999991E-002    -2.6880639565717121E-021
  -7.2699999999999987E-002    -1.5010237297701924E-021
  -7.1599999999999997E-002     3.1920077908466970E-021
  -7.0499999999999993E-002     1.0232406738627082E-020
  -6.9399999999999989E-002     1.4187157247243108E-020
  -6.8300000000000000E-002     6.8203222547627887E-021
  -6.7199999999999996E-002    -1.6486620799325357E-020
  -6.6099999999999992E-002    -4.7667345854702321E-020
  -6.5000000000000002E-002    -6.1923121934283250E-020
  -6.3899999999999985E-002    -2.7956113302529572E-020
  -6.2799999999999995E-002     6.5621278431945912E-020
  -6.1699999999999991E-002     1.8147021735372757E-019
  -6.0599999999999994E-002     2.2962218441863512E-019
  -5.9499999999999990E-002     1.1133894988933794E-019
  -5.8399999999999994E-002    -1.9690308113849426E-019
  -5.7299999999999990E-002    -5.6992801073570720E-019
  -5.6199999999999986E-002    -7.4291050197463400E-019
  -5.5099999999999996E-002    -4.4309382247353724E-019
  -5.3999999999999992E-002     3.9825347299098572E-019
  -5.2899999999999989E-002     1.4799310643975842E-018
  -5.1799999999999985E-002     2.1544979913079205E-018
  -5.0699999999999995E-002     1.7036889001647363E-018
  -4.9599999999999991E-002    -2.1503751680385914E-019
  -4.8499999999999988E-002    -3.1538587299056985E-018
  -4.7399999999999998E-002    -5.7368275931196556E-018
  -4.6299999999999994E-002    -6.0014224051503616E-018
  -4.5199999999999990E-002    -2.3038479324462073E-018
  -4.4099999999999986E-002     5.3647328022718644E-018
  -4.2999999999999997E-002     1.4214220360913249E-017
  -4.1899999999999993E-002     1.8657912366525694E-017
  -4.0799999999999989E-002     1.2511952143450573E-017
  -3.9699999999999985E-002    -6.5887586903711887E-018
  -3.8599999999999995E-002    -3.2596276264958634E-017
  -3.7499999999999992E-002    -5.0199778195940533E-017
  -3.6399999999999988E-002    -4.1195232322753633E-017
  -3.5299999999999984E-002     2.6320585170513759E-018
  -3.4199999999999994E-002     6.7224247080690413E-017
  -3.3099999999999991E-002     1.1546346825853736E-016
  -3.1999999999999987E-002     1.0469654129841233E-016
  -3.0899999999999997E-002     1.6945875146028766E-017
  -2.9799999999999993E-002    -1.1727941425322198E-016
  -2.8699999999999989E-002    -2.2328458175047280E-016
  -2.7599999999999986E-002    -2.2121326855708081E-016
  -2.6499999999999996E-002    -8.0390566917480660E-017
  -2.5399999999999992E-002     1.4805073156354162E-016
  -2.4299999999999988E-002     3.4870755604705483E-016
  -2.3199999999999985E-002     4.0425708845873512E-016
  -2.2099999999999995E-002     2.6264450874348563E-016
  -2.0999999999999991E-002    -3.5882691308411415E-017
  -1.9899999999999987E-002    -3.8414887039805285E-016
  -1.8799999999999983E-002    -6.5517522014087301E-016
  -1.7699999999999994E-002    -7.3027644349710989E-016
  -1.6599999999999990E-002    -5.0542937712652852E-016
  -1.5499999999999986E-002     7.8431902488628597E-017
  -1.4399999999999996E-002     9.4188232025929760E-016
  -1.3299999999999992E-002     1.7557726682325501E-015
  -1.2199999999999989E-002     1.9550142991845484E-015
  -1.1099999999999985E-002     1.0076984743268512E-015
  -9.9999999999999950E-003    -1.1146581950160985E-015
  -8.8999999999999913E-003    -3.5769439032896574E-015
  -7.7999999999999875E-003    -4.8367779338718674E-015
  -6.6999999999999837E-003    -3.4717138238787035E-015
  -5.5999999999999939E-003     6.9194756735914235E-016
  -4.4999999999999901E-003     5.9419009731216058E-015
  -3.3999999999999864E-003     9.2274303906884729E-015
  -2.2999999999999826E-003     7.8644705222945255E-015
  -1.1999999999999927E-003     1.4531749123862796E-015
  -9.9999999999988987E-005    -7.3363751258346231E-015
   1.0000000000000148E-003    -1.3887358433085483E-014
   2.1000000000000185E-003    -1.4180264120311915E-014
   3.2000000000000084E-003    -7.2042049517780093E-015
   4.3000000000000121E-003     4.3235195900325450E-015
   5.4000000000000159E-003     1.5350474865294568E-014
   6.5000000000000058E-003     2.0988287198703617E-014
   7.6000000000000234E-003     1.8529772375232116E-014
   8.7000000000000133E-003     8.0904047025133485E-015
   9.8000000000000032E-003    -7.7590632012393586E-015
   1.0900000000000021E-002    -2.4428355659914663E-014
   1.2000000000000011E-002    -3.5578385669445683E-014
   1.3100000000000001E-002    -3.4208730005603691E-014
   1.4200000000000018E-002    -1.5710077620853698E-014
   1.5300000000000008E-002     1.7658558331399600E-014
   1.6400000000000026E-002     5.3876364090529871E-014
   1.7500000000000016E-002     7.3673543394409124E-014
   1.8600000000000005E-002     5.9699559748840891E-014
   1.9700000000000023E-002     8.5668039841364264E-015
   2.0800000000000013E-002    -6.1936363698368579E-014
   2.1900000000000003E-002    -1.1727680729756856E-013
   2.3000000000000020E-002    -1.2267102481380854E-013
   2.4100000000000010E-002    -6.3760445762148926E-014
   2.5200000000000000E-002     4.0846517249289171E-014
   2.6300000000000018E-002     1.4425858782269457E-013
   2.7400000000000008E-002     1.9273089526226916E-013
   2.8500000000000025E-002     1.5328153514255344E-013
   2.9600000000000015E-002     3.2793544626780885E-014
   3.0700000000000005E-002    -1.2175196018471973E-013
   3.1800000000000023E-002    -2.4234455588134640E-013
   3.2900000000000013E-002    -2.6931665990208298E-013
   3.4000000000000002E-002    -1.7800550530105985E-013
   3.5100000000000020E-002     8.0009647995468725E-015
   3.6200000000000010E-002     2.2179461500911046E-013
   3.7300000000000028E-002     3.7487241501092672E-013
   3.8400000000000017E-002     3.8961271275200771E-013
   3.9500000000000007E-002     2.3302835897888452E-013
   4.0600000000000025E-002    -6.0153582961096352E-014
   4.1700000000000015E-002    -3.8714246652221673E-013
   4.2800000000000005E-002    -6.0661041077422762E-013
   4.3900000000000022E-002    -5.9408185835996274E-013
   4.5000000000000012E-002    -3.0468650605991465E-013
   4.6100000000000002E-002     1.8576478788383255E-013
   4.7200000000000020E-002     6.8871362605971154E-013
   4.8300000000000010E-002     9.6932563972002006E-013
   4.9400000000000027E-002     8.5208673884090702E-013
   5.0500000000000017E-002     3.1965898569623341E-013
   5.1600000000000007E-002    -4.4844325735454715E-013
   5.2700000000000025E-002    -1.1299433611000609E-012
   5.3800000000000014E-002    -1.3953403319930113E-012
   5.4900000000000004E-002    -1.0674017008813208E-012
   5.6000000000000022E-002    -2.2536897207377921E-013
   5.7100000000000012E-002     8.0595626743631965E-013
   5.8200000000000002E-002     1.5872627648003124E-012
   5.9300000000000019E-002     1.7587383372569265E-012
   6.0400000000000009E-002     1.2053188308547291E-012
   6.1500000000000027E-002     1.1491041408337455E-013
   6.2600000000000017E-002    -1.0951517470658700E-012
   6.3700000000000007E-002    -1.9457753550750079E-012
   6.4800000000000024E-002    -2.0829618412043782E-012
   6.5900000000000014E-002    -1.4114511425952769E-012
   6.7000000000000004E-002    -1.3431274050856173E-013
   6.8100000000000022E-002     1.3060305874973421E-012
   6.9200000000000012E-002     2.3657425844703095E-012
   7.0300000000000029E-002     2.5839358864382378E-012
   7.1400000000000019E-002     1.7678150610045407E-012
   7.2500000000000009E-002     1.1614750231470766E-013
   7.3600000000000027E-002    -1.7872596848669819E-012
   7.4700000000000016E-002    -3.1500921662819259E-012
   7.5800000000000006E-002    -3.2878699762761698E-012
   7.6900000000000024E-002    -1.9634385263478382E-012
   7.8000000000000014E-002     4.1759681108054225E-013
   7.9100000000000004E-002     2.8905456587319245E-012
   8.0200000000000021E-002     4.3097079724385701E-012
   8.1300000000000011E-002     3.8797610957264084E-012
   8.2400000000000029E-002     1.5912361489220372E-012
   8.3500000000000019E-002    -1.6779507470976451E-012
   8.4600000000000009E-002    -4.4902454150730353E-012
   8.5700000000000026E-002    -5.4881502987991215E-012
   8.6800000000000016E-002    -4.0539728692057242E-012
   8.7900000000000006E-002    -6.6019059793628876E-013
   8.9000000000000024E-002     3.2863054725412733E-012
   9.0100000000000013E-002     6.0570871235343660E-012
   9.1200000000000003E-002     6.3886348468378262E-012
   9.2300000000000021E-002     4.0627072019072674E-012
   9.3400000000000011E-002     9.6357441052200661E-016
   9.4500000000000028E-002    -4.1597129386838905E-012
   9.5600000000000018E-002    -6.7867816401501191E-012
   9.6700000000000008E-002    -6.9138171750193766E-012
   9.7800000000000026E-002    -4.5564489681293452E-012
   9.8900000000000016E-002    -5.9950541709749561E-013
  0.10000000000000001          3.6138897863829955E-012
  0.10110000000000002          6.7605305034690311E-012
  0.10220000000000001          7.8989826832187582E-012
  0.10330000000000003          6.6585049106338001E-012
  0.10440000000000002          3.2963612308506418E-012
  0.10550000000000001         -1.3304428088736775E-012
  0.10660000000000003         -5.8952157391822801E-012
  0.10770000000000002         -8.8926522395782470E-012
  0.10880000000000001         -9.1010619179821006E-012
  0.10990000000000003         -6.0993311096213532E-012
  0.11100000000000002         -6.0342784371711367E-013
  0.11210000000000001          5.6122472121000744E-012
  0.11320000000000002          1.0286695106831445E-011
  0.11430000000000001          1.1562404679532623E-011
  0.11540000000000003          8.8167763021007595E-012
  0.11650000000000002          3.0210211502540441E-012
  0.11760000000000001         -3.5945482701471576E-012
  0.11870000000000003         -8.4648728998493183E-012
  0.11980000000000002         -9.7906179691298334E-012
  0.12090000000000001         -7.2920332966353030E-012
  0.12200000000000003         -2.2488185359020862E-012
  0.12310000000000001          3.1812328379204891E-012
  0.12420000000000003          6.9916568194716699E-012
  0.12530000000000002          8.1588442599200839E-012
  0.12640000000000001          6.8779574050048531E-012
  0.12750000000000003          4.1688445230614324E-012
  0.12860000000000002          1.1912638844119305E-012
  0.12970000000000001         -1.2698278843356614E-012
  0.13080000000000003         -2.8874962317015918E-012
  0.13190000000000002         -3.5300375903629666E-012
  0.13300000000000001         -3.0013326893230108E-012
  0.13410000000000000         -1.0997912650023700E-012
  0.13520000000000004          2.0043155503357557E-012
  0.13630000000000003          5.3943958674973480E-012
  0.13740000000000002          7.4954764617274350E-012
  0.13850000000000001          6.7548757386182157E-012
  0.13960000000000000          2.6509760098908375E-012
  0.14070000000000005         -3.6241881891385663E-012
  0.14180000000000004         -9.3654259694653241E-012
  0.14290000000000003         -1.1488163718931244E-011
  0.14400000000000002         -8.1614047117706257E-012
  0.14510000000000001         -5.1737836291674416E-014
  0.14620000000000000          9.5946089614940000E-012
  0.14730000000000004          1.6274273595406896E-011
  0.14840000000000003          1.6402670888204796E-011
  0.14950000000000002          9.2322503808528467E-012
  0.15060000000000001         -2.5421912838718974E-012
  0.15170000000000000         -1.3906341356229035E-011
  0.15280000000000005         -1.9919191296402516E-011
  0.15390000000000004         -1.8158377579347018E-011
  0.15500000000000003         -9.8958072639043770E-012
  0.15610000000000002          6.8627970060269883E-013
  0.15720000000000001          8.7540981408285035E-012
  0.15830000000000000          1.1239211818170336E-011
  0.15940000000000004          8.0880102962255229E-012
  0.16050000000000003          1.7638852618101497E-012
  0.16160000000000002         -4.4655993312880948E-012
  0.16270000000000001         -8.3126561190027815E-012
  0.16380000000000000         -9.3396401723566669E-012
  0.16490000000000005         -8.5400055083173498E-012
  0.16600000000000004         -7.2253175664727110E-012
  0.16710000000000003         -6.0960815388699796E-012
  0.16820000000000002         -5.0787186955947305E-012
  0.16930000000000001         -3.8515601298583224E-012
  0.17040000000000000         -2.5066476672108706E-012
  0.17150000000000004         -1.7030468832043844E-012
  0.17260000000000003         -2.2629485091352208E-012
  0.17370000000000002         -4.4034480922716668E-012
  0.17480000000000001         -7.2239375939475714E-012
  0.17590000000000000         -8.9139364292667445E-012
  0.17700000000000005         -7.7206773960170061E-012
  0.17810000000000004         -3.1121498607344922E-012
  0.17920000000000003          3.5623338046769648E-012
  0.18030000000000002          9.4255341379079205E-012
  0.18140000000000001          1.1479038206085868E-011
  0.18250000000000000          8.2698656950208616E-012
  0.18360000000000004          9.0142769550854984E-013
  0.18470000000000003         -7.2848584803386629E-012
  0.18580000000000002         -1.2282903860683092E-011
  0.18690000000000001         -1.1476687655775919E-011
  0.18800000000000000         -4.8760565897476571E-012
  0.18910000000000005          5.0670852062839611E-012
  0.19020000000000004          1.4787027505236416E-011
  0.19130000000000003          2.1222449145263944E-011
  0.19240000000000002          2.2709202573967247E-011
  0.19350000000000001          1.9067856668608663E-011
  0.19460000000000005          1.1304992532379377E-011
  0.19570000000000004          1.5070803762937124E-012
  0.19680000000000003         -7.1048150002139820E-012
  0.19790000000000002         -1.0621433420288096E-011
  0.19900000000000001         -5.9015800059347701E-012
  0.20010000000000000          7.2615316537572028E-012
  0.20120000000000005          2.4755137176257769E-011
  0.20230000000000004          3.8749770753243595E-011
  0.20340000000000003          4.0820777313932410E-011
  0.20450000000000002          2.6468622432718192E-011
  0.20560000000000000         -1.4089373114381520E-012
  0.20670000000000005         -3.2206133593337682E-011
  0.20780000000000004         -5.1499842584901145E-011
  0.20890000000000003         -4.7649263007487619E-011
