 -0.12000000000000000          0.0000000000000000
 -0.11889999999999999          0.0000000000000000
 -0.11780000000000000          0.0000000000000000
 -0.11670000000000000          0.0000000000000000
 -0.11559999999999999          0.0000000000000000
 -0.11449999999999999          0.0000000000000000
 -0.11340000000000000          0.0000000000000000
 -0.11230000000000000          0.0000000000000000
 -0.11119999999999999         -1.2578398177753558E-029
 -0.11009999999999999         -2.7955831292928061E-028
 -0.10900000000000000         -2.6225461238058877E-027
 -0.10790000000000000         -1.3781276754694635E-026
 -0.10679999999999999         -4.5343922047330064E-026
 -0.10569999999999999         -9.6006288850877791E-026
 -0.10460000000000000         -1.1846687829277435E-025
 -0.10349999999999999         -1.1656422128583509E-026
 -0.10239999999999999          3.5224779203323589E-025
 -0.10130000000000000          1.0683557044474004E-024
 -0.10020000000000000          1.6320078652804865E-024
  -9.9099999999999994E-002    -8.9866442677098749E-025
  -9.7999999999999990E-002    -1.2120027393379417E-023
  -9.6899999999999986E-002    -2.8132083078396706E-023
  -9.5799999999999996E-002    -7.8896195830297062E-024
  -9.4699999999999993E-002     1.2071696094527060E-022
  -9.3599999999999989E-002     3.1890299103492473E-022
  -9.2499999999999999E-002     1.9033959038599351E-022
  -9.1399999999999995E-002    -9.0658550849350013E-022
  -9.0299999999999991E-002    -2.7028243645237386E-021
  -8.9200000000000002E-002    -2.3031190199210733E-021
  -8.8099999999999984E-002     4.9170648874995848E-021
  -8.6999999999999994E-002     1.7979273061438697E-020
  -8.5899999999999990E-002     2.0033857224875439E-020
  -8.4799999999999986E-002    -1.7311153464565935E-020
  -8.3699999999999997E-002    -9.5749652033570697E-020
  -8.2599999999999993E-002    -1.3545489658513569E-019
  -8.1499999999999989E-002     1.4027445149947884E-020
  -8.0399999999999999E-002     4.0596189157118496E-019
  -7.9299999999999995E-002     7.3405677428817267E-019
  -7.8199999999999992E-002     3.1087523126092405E-019
  -7.7100000000000002E-002    -1.3113123644801809E-018
  -7.5999999999999984E-002    -3.2238243544524244E-018
  -7.4899999999999994E-002    -2.7404245539698041E-018
  -7.3799999999999991E-002     2.7065595728967300E-018
  -7.2699999999999987E-002     1.1388505213983102E-017
  -7.1599999999999997E-002     1.4477260486982662E-017
  -7.0499999999999993E-002     5.1040202590485994E-019
  -6.9399999999999989E-002    -3.1073711381211878E-017
  -6.8300000000000000E-002    -5.6748772246314767E-017
  -6.7199999999999996E-002    -3.5035092569618128E-017
  -6.6099999999999992E-002     5.6393633830843700E-017
  -6.5000000000000002E-002     1.7153454797259968E-016
  -6.3899999999999985E-002     1.8799865824062654E-016
  -6.2799999999999995E-002    -1.0873997218613894E-017
  -6.1699999999999991E-002    -3.8578862030481877E-016
  -6.0599999999999994E-002    -6.4976998526708810E-016
  -5.9499999999999990E-002    -3.9626003864547045E-016
  -5.8399999999999994E-002     5.2523200158170920E-016
  -5.7299999999999990E-002     1.6291454777827685E-015
  -5.6199999999999986E-002     1.8429842392730369E-015
  -5.5099999999999996E-002     2.4888633786969124E-016
  -5.3999999999999992E-002    -2.8069721077524220E-015
  -5.2899999999999989E-002    -5.1897738324424136E-015
  -5.1799999999999985E-002    -3.9897631978259331E-015
  -5.0699999999999995E-002     1.9952695400028090E-015
  -4.9599999999999991E-002     9.9567850505807333E-015
  -4.8499999999999988E-002     1.3401728186403228E-014
  -4.7399999999999998E-002     6.3132321703848922E-015
  -4.6299999999999994E-002    -1.0795663611651816E-014
  -4.5199999999999990E-002    -2.7773937595859492E-014
  -4.4099999999999986E-002    -2.9167240725522930E-014
  -4.2999999999999997E-002    -5.6554649235463026E-015
  -4.1899999999999993E-002     3.4560187692342023E-014
  -4.0799999999999989E-002     6.4814059880843183E-014
  -3.9699999999999985E-002     5.4951946855744116E-014
  -3.8599999999999995E-002    -4.2672833785984375E-015
  -3.7499999999999992E-002    -8.4807859248702683E-014
  -3.6399999999999988E-002    -1.3022517634554698E-013
  -3.5299999999999984E-002    -9.1534513801082296E-014
  -3.4199999999999994E-002     3.0549222412813368E-014
  -3.3099999999999991E-002     1.6989506318714626E-013
  -3.1999999999999987E-002     2.2695670484022129E-013
  -3.0899999999999997E-002     1.3660777966727905E-013
  -2.9799999999999993E-002    -7.2805686989179524E-014
  -2.8699999999999989E-002    -2.7856663915686031E-013
  -2.7599999999999986E-002    -3.3550909988612487E-013
  -2.6499999999999996E-002    -1.8011259801317681E-013
  -2.5399999999999992E-002     1.0880107036669029E-013
  -2.4299999999999988E-002     3.4897163826187738E-013
  -2.3199999999999985E-002     3.7952301891464035E-013
  -2.2099999999999995E-002     1.8493553585220701E-013
  -2.0999999999999991E-002    -8.3937685361329395E-014
  -1.9899999999999987E-002    -2.2569977570913169E-013
  -1.8799999999999983E-002    -1.6300170577448342E-013
  -1.7699999999999994E-002    -2.9052518583146808E-014
  -1.6599999999999990E-002    -6.4428558245888806E-014
  -1.5499999999999986E-002    -3.7124681584108088E-013
  -1.4399999999999996E-002    -7.2031546309234140E-013
  -1.3299999999999992E-002    -6.2336062960771654E-013
  -1.2199999999999989E-002     2.8789148257164776E-013
  -1.1099999999999985E-002     1.8008639284666783E-012
  -9.9999999999999950E-003     2.9685325378392413E-012
  -8.8999999999999913E-003     2.5399675852161296E-012
  -7.7999999999999875E-003    -1.3372746107079975E-013
  -6.6999999999999837E-003    -4.2609899983392374E-012
  -5.5999999999999939E-003    -7.5347887651400214E-012
  -4.4999999999999901E-003    -7.1821992797538314E-012
  -3.3999999999999864E-003    -1.7827085294075395E-012
  -2.2999999999999826E-003     7.1826732929436421E-012
  -1.1999999999999927E-003     1.5235649547529206E-011
  -9.9999999999988987E-005     1.6804627134270333E-011
   1.0000000000000148E-003     8.4863357660558414E-012
   2.1000000000000185E-003    -8.0577272285053958E-012
   3.2000000000000084E-003    -2.5531155314895138E-011
   4.3000000000000121E-003    -3.3767103696513701E-011
   5.4000000000000159E-003    -2.5022615923742109E-011
   6.5000000000000058E-003     7.4495672217761433E-013
   7.6000000000000234E-003     3.3768553925339617E-011
   8.7000000000000133E-003     5.7539379511029054E-011
   9.8000000000000032E-003     5.6494191269518268E-011
   1.0900000000000021E-002     2.4967040587742240E-011
   1.2000000000000011E-002    -2.7407274366675338E-011
   1.3100000000000001E-002    -7.7657470731740119E-011
   1.4200000000000018E-002    -9.9243252504876978E-011
   1.5300000000000008E-002    -7.5722032810698892E-011
   1.6400000000000026E-002    -1.1402954101791263E-011
   1.7500000000000016E-002     6.7579594698052858E-011
   1.8600000000000005E-002     1.2411797978284511E-010
   1.9700000000000023E-002     1.2878327571019810E-010
   2.0800000000000013E-002     7.6786556280072915E-011
   2.1900000000000003E-002    -7.0150721169504049E-012
   2.3000000000000020E-002    -8.0001269497920191E-011
   2.4100000000000010E-002    -1.0597938499001813E-010
   2.5200000000000000E-002    -7.8450107521277346E-011
   2.6300000000000018E-002    -2.7671949801022500E-011
   2.7400000000000008E-002    -3.6992761284770914E-012
   2.8500000000000025E-002    -4.1867381089799593E-011
   2.9600000000000015E-002    -1.3049727964897784E-010
   3.0700000000000005E-002    -2.0378193577030856E-010
   3.1800000000000023E-002    -1.7136994601152367E-010
   3.2900000000000013E-002     2.5658048602439365E-011
   3.4000000000000002E-002     3.6267858161131983E-010
   3.5100000000000020E-002     7.1790823286121963E-010
   3.6200000000000010E-002     9.1451496375682950E-010
   3.7300000000000028E-002     8.0369627619703010E-010
   3.8400000000000017E-002     3.4569908047288322E-010
   3.9500000000000007E-002    -3.5954411670147124E-010
   4.0600000000000025E-002    -1.1155187884526185E-009
   4.1700000000000015E-002    -1.7257183460017700E-009
   4.2800000000000005E-002    -2.0870365435854410E-009
   4.3900000000000022E-002    -2.2189474702116740E-009
   4.5000000000000012E-002    -2.2024275736498566E-009
   4.6100000000000002E-002    -2.0590682492382939E-009
   4.7200000000000020E-002    -1.6446314310414323E-009
   4.8300000000000010E-002    -6.3236849090486658E-010
   4.9400000000000027E-002     1.3857451852672398E-009
   5.0500000000000017E-002     4.7218375875957008E-009
   5.1600000000000007E-002     9.4316172649655527E-009
   5.2700000000000025E-002     1.5260800623195792E-008
   5.3800000000000014E-002     2.1732095234483495E-008
   5.4900000000000004E-002     2.8328996037885190E-008
   5.6000000000000022E-002     3.4683427685422430E-008
   5.7100000000000012E-002     4.0685286251118669E-008
   5.8200000000000002E-002     4.6495259198309213E-008
   5.9300000000000019E-002     5.2513112080987412E-008
   6.0400000000000009E-002     5.9379011929650005E-008
   6.1500000000000027E-002     6.8042162126857875E-008
   6.2600000000000017E-002     7.9846117273518757E-008
   6.3700000000000007E-002     9.6517375425264618E-008
   6.4800000000000024E-002     1.1996132798230974E-007
   6.5900000000000014E-002     1.5187697499641217E-007
   6.7000000000000004E-002     1.9334271428306238E-007
   6.8100000000000022E-002     2.4460769054712728E-007
   6.9200000000000012E-002     3.0527587568940362E-007
   7.0300000000000029E-002     3.7489476767404994E-007
   7.1400000000000019E-002     4.5374298451861250E-007
   7.2500000000000009E-002     5.4347606237570290E-007
   7.3600000000000027E-002     6.4732654436738812E-007
   7.4700000000000016E-002     7.6976130003458820E-007
   7.5800000000000006E-002     9.1577152261379524E-007
   7.6900000000000024E-002     1.0901585483225062E-006
   7.8000000000000014E-002     1.2971745491086040E-006
   7.9100000000000004E-002     1.5406760667246999E-006
   8.0200000000000021E-002     1.8246629451823537E-006
   8.1300000000000011E-002     2.1538628516282188E-006
   8.2400000000000029E-002     2.5340059437439777E-006
   8.3500000000000019E-002     2.9716275093960576E-006
   8.4600000000000009E-002     3.4735221561277285E-006
   8.5700000000000026E-002     4.0461941352987196E-006
   8.6800000000000016E-002     4.6956661208241712E-006
   8.7900000000000006E-002     5.4278079915093258E-006
   8.9000000000000024E-002     6.2490425989381038E-006
   9.0100000000000013E-002     7.1670383476885036E-006
   9.1200000000000003E-002     8.1909556683967821E-006
   9.2300000000000021E-002     9.3310027295956388E-006
   9.3400000000000011E-002     1.0597387699817773E-005
   9.4500000000000028E-002     1.1999026355624665E-005
   9.5600000000000018E-002     1.3542476153816096E-005
   9.6700000000000008E-002     1.5231438737828285E-005
   9.7800000000000026E-002     1.7066882719518617E-005
   9.8900000000000016E-002     1.9047578462050296E-005
  0.10000000000000001          2.1170671971049160E-005
  0.10110000000000002          2.3431983208865859E-005
  0.10220000000000001          2.5825851480476558E-005
  0.10330000000000003          2.8344567908789031E-005
  0.10440000000000002          3.0977553251432255E-005
  0.10550000000000001          3.3710413845255971E-005
  0.10660000000000003          3.6524001188809052E-005
  0.10770000000000002          3.9393515180563554E-005
  0.10880000000000001          4.2287796532036737E-005
  0.10990000000000003          4.5168937504058704E-005
  0.11100000000000002          4.7992431063903496E-005
  0.11210000000000001          5.0707938498817384E-005
  0.11320000000000002          5.3260519052855670E-005
  0.11430000000000001          5.5591957789147273E-005
  0.11540000000000003          5.7641675084596500E-005
  0.11650000000000002          5.9346821217332035E-005
  0.11760000000000001          6.0641606978606433E-005
  0.11870000000000003          6.1456368712242693E-005
  0.11980000000000002          6.1717102653346956E-005
  0.12090000000000001          6.1346217989921570E-005
  0.12200000000000003          6.0264610510785133E-005
  0.12310000000000001          5.8394878578837961E-005
  0.12420000000000003          5.5664746469119564E-005
  0.12530000000000002          5.2009938372066244E-005
  0.12640000000000001          4.7376019210787490E-005
  0.12750000000000003          4.1719253204064444E-005
  0.12860000000000002          3.5007018595933914E-005
  0.12970000000000001          2.7218507966608740E-005
  0.13080000000000003          1.8346150682191364E-005
  0.13190000000000002          8.3976965470355935E-006
  0.13300000000000001         -2.6013867682195269E-006
  0.13410000000000000         -1.4605881005991250E-005
  0.13520000000000004         -2.7549489459488541E-005
  0.13630000000000003         -4.1344304918311536E-005
  0.13740000000000002         -5.5880875152070075E-005
  0.13850000000000001         -7.1028458478394896E-005
  0.13960000000000000         -8.6635474872309715E-005
  0.14070000000000005         -1.0253025538986549E-004
  0.14180000000000004         -1.1852224270114675E-004
  0.14290000000000003         -1.3440400653053075E-004
  0.14400000000000002         -1.4995406672824174E-004
  0.14510000000000001         -1.6494041483383626E-004
  0.14620000000000000         -1.7912432667799294E-004
  0.14730000000000004         -1.9226442964281887E-004
  0.14840000000000003         -2.0412080630194396E-004
  0.14950000000000002         -2.1445915626827627E-004
  0.15060000000000001         -2.2305510356090963E-004
  0.15170000000000000         -2.2969869314692914E-004
  0.15280000000000005         -2.3419893113896251E-004
  0.15390000000000004         -2.3638829588890076E-004
  0.15500000000000003         -2.3612703080289066E-004
  0.15610000000000002         -2.3330713156610727E-004
  0.15720000000000001         -2.2785596956964582E-004
  0.15830000000000000         -2.1973928960505873E-004
  0.15940000000000004         -2.0896349451504648E-004
  0.16050000000000003         -1.9557711493689567E-004
  0.16160000000000002         -1.7967131861951202E-004
  0.16270000000000001         -1.6137947386596352E-004
  0.16380000000000000         -1.4087589806877077E-004
  0.16490000000000005         -1.1837397323688492E-004
  0.16600000000000004         -9.4123643066268414E-005
  0.16710000000000003         -6.8408124207053334E-005
  0.16820000000000002         -4.1539766243658960E-005
  0.16930000000000001         -1.3854960343451239E-005
  0.17040000000000000          1.4291805200628005E-005
  0.17150000000000004          4.2534462409093976E-005
  0.17260000000000003          7.0502261223737150E-005
  0.17370000000000002          9.7826639830600470E-005
  0.17480000000000001          1.2414772936608642E-004
  0.17590000000000000          1.4912044571246952E-004
  0.17700000000000005          1.7242017202079296E-004
  0.17810000000000004          1.9374807015992701E-004
  0.17920000000000003          2.1283600653987378E-004
  0.18030000000000002          2.2945117962080985E-004
  0.18140000000000001          2.4340033996850252E-004
  0.18250000000000000          2.5453339912928641E-004
  0.18360000000000004          2.6274615083821118E-004
  0.18470000000000003          2.6798184262588620E-004
  0.18580000000000002          2.7023156872019172E-004
  0.18690000000000001          2.6953322230838239E-004
  0.18800000000000000          2.6596913812682033E-004
  0.18910000000000005          2.5966297835111618E-004
  0.19020000000000004          2.5077594909816980E-004
  0.19130000000000003          2.3950272588990629E-004
  0.19240000000000002          2.2606743732467294E-004
  0.19350000000000001          2.1071940136607736E-004
  0.19460000000000005          1.9372849783394486E-004
  0.19570000000000004          1.7538008978590369E-004
  0.19680000000000003          1.5596952289342880E-004
  0.19790000000000002          1.3579629012383521E-004
  0.19900000000000001          1.1515829828567803E-004
  0.20010000000000000          9.4346425612457097E-005
  0.20120000000000005          7.3639421316329390E-005
  0.20230000000000004          5.3299398132367060E-005
  0.20340000000000003          3.3567936043255031E-005
  0.20450000000000002          1.4662898138340097E-005
  0.20560000000000000         -3.2240768632618710E-006
  0.20670000000000005         -1.9929297195631079E-005
  0.20780000000000004         -3.5317902074893937E-005
  0.20890000000000003         -4.9284029955742881E-005
