 -0.12000000000000000          0.0000000000000000
 -0.11889999999999999          0.0000000000000000
 -0.11780000000000000          0.0000000000000000
 -0.11670000000000000          0.0000000000000000
 -0.11559999999999999          0.0000000000000000
 -0.11449999999999999          0.0000000000000000
 -0.11340000000000000          0.0000000000000000
 -0.11230000000000000          0.0000000000000000
 -0.11119999999999999          2.7938282215513223E-031
 -0.11009999999999999          6.4066307967967029E-025
 -0.10900000000000000          7.9601019383284879E-024
 -0.10790000000000000          4.3502779070251209E-023
 -0.10679999999999999          1.2224881522723945E-022
 -0.10569999999999999          8.4323967488166527E-023
 -0.10460000000000000         -7.3905977548649827E-022
 -0.10349999999999999         -3.3750402825744859E-021
 -0.10239999999999999         -6.9514618858015545E-021
 -0.10130000000000000         -3.7420358442191858E-021
 -0.10020000000000000          2.2840752461906356E-020
  -9.9099999999999994E-002     8.2828470480032990E-020
  -9.7999999999999990E-002     1.3673503613124393E-019
  -9.6899999999999986E-002     5.3045603111688216E-020
  -9.5799999999999996E-002    -3.4425295125441613E-019
  -9.4699999999999993E-002    -1.0412673627909395E-018
  -9.3599999999999989E-002    -1.4760625474678268E-018
  -9.2499999999999999E-002    -4.4661083934174786E-019
  -9.1399999999999995E-002     3.1179348962879800E-018
  -9.0299999999999991E-002     8.3489878669457621E-018
  -8.9200000000000002E-002     1.0714753370168861E-017
  -8.8099999999999984E-002     2.9257523022607786E-018
  -8.6999999999999994E-002    -1.9289008160511801E-017
  -8.5899999999999990E-002    -4.7987784741410430E-017
  -8.4799999999999986E-002    -5.7933625755735723E-017
  -8.3699999999999997E-002    -1.6407282959944464E-017
  -8.2599999999999993E-002     8.7869695788168721E-017
  -8.1499999999999989E-002     2.1062440380433640E-016
  -8.0399999999999999E-002     2.4577028894519988E-016
  -7.9299999999999995E-002     7.8861831266364258E-017
  -7.8199999999999992E-002    -3.0529460287120978E-016
  -7.7100000000000002E-002    -7.2803688838456952E-016
  -7.5999999999999984E-002    -8.3993629346396700E-016
  -7.4899999999999994E-002    -3.2247849262105578E-016
  -7.3799999999999991E-002     8.0562282995201768E-016
  -7.2699999999999987E-002     1.9979074123587957E-015
  -7.1599999999999997E-002     2.3443790396531156E-015
  -7.0499999999999993E-002     1.1312029719374615E-015
  -6.9399999999999989E-002    -1.4974414894844998E-015
  -6.8300000000000000E-002    -4.2856550997079097E-015
  -6.7199999999999996E-002    -5.3798552255863302E-015
  -6.6099999999999992E-002    -3.4531648611250184E-015
  -6.5000000000000002E-002     1.2523925285032257E-015
  -6.3899999999999985E-002     6.7402354551394147E-015
  -6.2799999999999995E-002     1.0163451772348363E-014
  -6.1699999999999991E-002     9.2688469136774192E-015
  -6.0599999999999994E-002     3.4823303230813521E-015
  -5.9499999999999990E-002    -5.8406568190021938E-015
  -5.8399999999999994E-002    -1.5721485460587319E-014
  -5.7299999999999990E-002    -2.1935622399439983E-014
  -5.6199999999999986E-002    -1.9667574792619873E-014
  -5.5099999999999996E-002    -5.4141858944550206E-015
  -5.3999999999999992E-002     1.9475991186544001E-014
  -5.2899999999999989E-002     4.5520194330486013E-014
  -5.1799999999999985E-002     5.6088919180843563E-014
  -5.0699999999999995E-002     3.5613754377191234E-014
  -4.9599999999999991E-002    -1.7402986468356349E-014
  -4.8499999999999988E-002    -8.1461245626628098E-014
  -4.7399999999999998E-002    -1.1741459584116432E-013
  -4.6299999999999994E-002    -9.0440547032780844E-014
  -4.5199999999999990E-002     2.6184073271005642E-015
  -4.4099999999999986E-002     1.2065182024029869E-013
  -4.2999999999999997E-002     1.9488425630209694E-013
  -4.1899999999999993E-002     1.6955775433875886E-013
  -4.0799999999999989E-002     4.1416743217512555E-014
  -3.9699999999999985E-002    -1.3086171144101322E-013
  -3.8599999999999995E-002    -2.5718113077534410E-013
  -3.7499999999999992E-002    -2.6760074733379879E-013
  -3.6399999999999988E-002    -1.5047288230967543E-013
  -3.5299999999999984E-002     4.6156021306408349E-014
  -3.4199999999999994E-002     2.4429668899796086E-013
  -3.3099999999999991E-002     3.7021414037684275E-013
  -3.1999999999999987E-002     3.7174397674727411E-013
  -3.0899999999999997E-002     2.2232214712866044E-013
  -2.9799999999999993E-002    -6.8017484277250323E-014
  -2.8699999999999989E-002    -4.2742897979688999E-013
  -2.7599999999999986E-002    -7.0841124849910231E-013
  -2.6499999999999996E-002    -7.2681449617487126E-013
  -2.5399999999999992E-002    -3.6504152023213166E-013
  -2.4299999999999988E-002     3.1206612814693724E-013
  -2.3199999999999985E-002     1.0217948449159353E-012
  -2.2099999999999995E-002     1.3718702823045659E-012
  -2.0999999999999991E-002     1.0791024107267844E-012
  -1.9899999999999987E-002     1.6942938480153658E-013
  -1.8799999999999983E-002    -9.8254575049000481E-013
  -1.7699999999999994E-002    -1.8228500306416429E-012
  -1.6599999999999990E-002    -1.9060785935720581E-012
  -1.5499999999999986E-002    -1.1311022648022306E-012
  -1.4399999999999996E-002     2.0892345470834017E-013
  -1.3299999999999992E-002     1.5725342035477485E-012
  -1.2199999999999989E-002     2.4095374133448200E-012
  -1.1099999999999985E-002     2.3672004027114335E-012
  -9.9999999999999950E-003     1.3960022374193137E-012
  -8.8999999999999913E-003    -2.3863756023340121E-013
  -7.7999999999999875E-003    -2.0106015376913922E-012
  -6.6999999999999837E-003    -3.2534515446297485E-012
  -5.5999999999999939E-003    -3.3651642670357029E-012
  -4.4999999999999901E-003    -2.0737810340482055E-012
  -3.3999999999999864E-003     3.4159133854849699E-013
  -2.2999999999999826E-003     3.0250238078344260E-012
  -1.1999999999999927E-003     4.8067608920954186E-012
  -9.9999999999988987E-005     4.7003937200806867E-012
   1.0000000000000148E-003     2.4261209360942892E-012
   2.1000000000000185E-003    -1.3092709425302496E-012
   3.2000000000000084E-003    -4.9693972895004102E-012
   4.3000000000000121E-003    -6.7904406056418232E-012
   5.4000000000000159E-003    -5.6162479181165459E-012
   6.5000000000000058E-003    -1.5905291406853594E-012
   7.6000000000000234E-003     3.6868823966029751E-012
   8.7000000000000133E-003     7.7448906662946904E-012
   9.8000000000000032E-003     8.4073199790868358E-012
   1.0900000000000021E-002     4.9980249973435864E-012
   1.2000000000000011E-002    -1.1085079252085017E-012
   1.3100000000000001E-002    -7.0233875139324997E-012
   1.4200000000000018E-002    -9.7928644360312234E-012
   1.5300000000000008E-002    -7.9870181649011052E-012
   1.6400000000000026E-002    -2.4866924925454059E-012
   1.7500000000000016E-002     4.0240731753737879E-012
   1.8600000000000005E-002     8.5469149119221655E-012
   1.9700000000000023E-002     9.3126140479626862E-012
   2.0800000000000013E-002     6.4707466815305814E-012
   2.1900000000000003E-002     1.6443733310764208E-012
   2.3000000000000020E-002    -3.1729226451088222E-012
   2.4100000000000010E-002    -6.5671456987714816E-012
   2.5200000000000000E-002    -7.9783974565872384E-012
   2.6300000000000018E-002    -7.3873832398541062E-012
   2.7400000000000008E-002    -4.9194676110531077E-012
   2.8500000000000025E-002    -7.9811981676392030E-013
   2.9600000000000015E-002     4.3509605640590365E-012
   3.0700000000000005E-002     9.2282397001763883E-012
   3.1800000000000023E-002     1.2030654250594353E-011
   3.2900000000000013E-002     1.1151985584989532E-011
   3.4000000000000002E-002     6.0991593719972315E-012
   3.5100000000000020E-002    -1.9001085427294839E-012
   3.6200000000000010E-002    -1.0035819397735679E-011
   3.7300000000000028E-002    -1.4911936269124126E-011
   3.8400000000000017E-002    -1.4076506453519766E-011
   3.9500000000000007E-002    -7.3869972638807013E-012
   4.0600000000000025E-002     2.5927870961339750E-012
   4.1700000000000015E-002     1.1614795930592337E-011
   4.2800000000000005E-002     1.5861367774760993E-011
   4.3900000000000022E-002     1.4025944468365470E-011
   4.5000000000000012E-002     8.0199050525586735E-012
   4.6100000000000002E-002     1.6961456111158624E-012
   4.7200000000000020E-002    -1.6905056998348100E-012
   4.8300000000000010E-002    -1.5648198882500797E-012
   4.9400000000000027E-002    -1.2756782392583932E-013
   5.0500000000000017E-002    -3.3941526347315565E-013
   5.1600000000000007E-002    -3.2708477853277129E-012
   5.2700000000000025E-002    -6.8735178139489594E-012
   5.3800000000000014E-002    -7.2271559396763774E-012
   5.4900000000000004E-002    -1.4727790384819195E-012
   5.6000000000000022E-002     9.6600444657313211E-012
   5.7100000000000012E-002     2.1591912285900960E-011
   5.8200000000000002E-002     2.8190672018979512E-011
   5.9300000000000019E-002     2.5244263276991141E-011
   6.0400000000000009E-002     1.3027448043934076E-011
   6.1500000000000027E-002    -3.4736345744246222E-012
   6.2600000000000017E-002    -1.6768012325862891E-011
   6.3700000000000007E-002    -2.0373895279202081E-011
   6.4800000000000024E-002    -1.1976006991654131E-011
   6.5900000000000014E-002     5.2133410435861727E-012
   6.7000000000000004E-002     2.3675139973478032E-011
   6.8100000000000022E-002     3.4995673026116947E-011
   6.9200000000000012E-002     3.3949464767202286E-011
   7.0300000000000029E-002     2.1121588852923701E-011
   7.1400000000000019E-002     2.5102394121678806E-012
   7.2500000000000009E-002    -1.3699534562316984E-011
   7.3600000000000027E-002    -2.1239570865971835E-011
   7.4700000000000016E-002    -1.8270116322605112E-011
   7.5800000000000006E-002    -7.0915439319418905E-012
   7.6900000000000024E-002     8.0652177644746637E-012
   7.8000000000000014E-002     2.3129526072196427E-011
   7.9100000000000004E-002     3.4604055731968231E-011
   8.0200000000000021E-002     3.8938963164980578E-011
   8.1300000000000011E-002     3.2578929137772050E-011
   8.2400000000000029E-002     1.3892634438683604E-011
   8.3500000000000019E-002    -1.4106735744812138E-011
   8.4600000000000009E-002    -4.2685983220325241E-011
   8.5700000000000026E-002    -5.9999165358259887E-011
   8.6800000000000016E-002    -5.6618324612012216E-011
   8.7900000000000006E-002    -3.1009510931268025E-011
   8.9000000000000024E-002     8.5043673492268823E-012
   9.0100000000000013E-002     4.6491959587724452E-011
   9.1200000000000003E-002     6.6594112169138242E-011
   9.2300000000000021E-002     5.8316101947397669E-011
   9.3400000000000011E-002     2.1745464803823999E-011
   9.4500000000000028E-002    -3.1577115922054588E-011
   9.5600000000000018E-002    -8.1980602861797536E-011
   9.6700000000000008E-002    -1.0878957457105543E-010
   9.7800000000000026E-002    -9.9231380057407392E-011
   9.8900000000000016E-002    -5.5117858194231317E-011
  0.10000000000000001          6.3964090100954163E-012
  0.10110000000000002          5.9444435485112024E-011
  0.10220000000000001          8.0964547566342304E-011
  0.10330000000000003          6.1214776303497587E-011
  0.10440000000000002          7.9955833620637407E-012
  0.10550000000000001         -5.7543581011287870E-011
  0.10660000000000003         -1.1005651945339423E-010
  0.10770000000000002         -1.2958883965907830E-010
  0.10880000000000001         -1.0779403064598014E-010
  0.10990000000000003         -5.0348149260859287E-011
  0.11100000000000002          2.4332452719377784E-011
  0.11210000000000001          8.9683573067933509E-011
  0.11320000000000002          1.1943229738520245E-010
  0.11430000000000001          9.8339843213057776E-011
  0.11540000000000003          3.1206086326118765E-011
  0.11650000000000002         -5.5968507606252160E-011
  0.11760000000000001         -1.2555088912957757E-010
  0.11870000000000003         -1.4515097457312720E-010
  0.11980000000000002         -1.0334294531233468E-010
  0.12090000000000001         -1.5529716401729843E-011
  0.12200000000000003          8.3035342490767050E-011
  0.12310000000000001          1.5283840859581233E-010
  0.12420000000000003          1.6644134681609302E-010
  0.12530000000000002          1.1886375217429190E-010
  0.12640000000000001          2.9119089084428396E-011
  0.12750000000000003         -6.6656319352986770E-011
  0.12860000000000002         -1.2834358575908311E-010
  0.12970000000000001         -1.2776277258375046E-010
  0.13080000000000003         -6.1865700062835316E-011
  0.13190000000000002          4.3627268464518920E-011
  0.13300000000000001          1.4404137604895340E-010
  0.13410000000000000          1.9608699386441941E-010
  0.13520000000000004          1.7849897948618576E-010
  0.13630000000000003          1.0151603169195056E-010
  0.13740000000000002         -1.8946805658680982E-013
  0.13850000000000001         -8.5500800883764327E-011
  0.13960000000000000         -1.2474564436981694E-010
  0.14070000000000005         -1.0832428704032893E-010
  0.14180000000000004         -4.5379127538991426E-011
  0.14290000000000003          4.2275447031947522E-011
  0.14400000000000002          1.2638946833565257E-010
  0.14510000000000001          1.7859592971181115E-010
  0.14620000000000000          1.7830910359339924E-010
  0.14730000000000004          1.2219743272812167E-010
  0.14840000000000003          2.9325795264378840E-011
  0.14950000000000002         -6.4119161369280420E-011
  0.15060000000000001         -1.2080635103384196E-010
  0.15170000000000000         -1.1966973245680634E-010
  0.15280000000000005         -6.4858195203409963E-011
  0.15390000000000004          1.9422135774660454E-011
  0.15500000000000003          1.0241360537399657E-010
  0.15610000000000002          1.5869343339414144E-010
  0.15720000000000001          1.7292874077146081E-010
  0.15830000000000000          1.4024416350455482E-010
  0.15940000000000004          6.7578567741755080E-011
  0.16050000000000003         -2.4369652129596631E-011
  0.16160000000000002         -1.0352114998557482E-010
  0.16270000000000001         -1.3785346475447824E-010
  0.16380000000000000         -1.1196149563019731E-010
  0.16490000000000005         -3.7280904058301090E-011
  0.16600000000000004          5.2896680091674142E-011
  0.16710000000000003          1.2145461025792059E-010
  0.16820000000000002          1.4598987296832178E-010
  0.16930000000000001          1.2553964812145324E-010
  0.17040000000000000          7.3517747445350778E-011
  0.17150000000000004          6.1126368723629643E-012
  0.17260000000000003         -6.2973036507596447E-011
  0.17370000000000002         -1.2019416018027584E-010
  0.17480000000000001         -1.4987430740909247E-010
  0.17590000000000000         -1.3989509550782486E-010
  0.17700000000000005         -9.2436003296114677E-011
  0.17810000000000004         -2.8626514353424781E-011
  0.17920000000000003          2.0053601140768151E-011
  0.18030000000000002          2.9494504061311488E-011
  0.18140000000000001         -2.9428046371265948E-012
  0.18250000000000000         -6.1117992611325889E-011
  0.18360000000000004         -1.2483375444460876E-010
  0.18470000000000003         -1.8375512222945645E-010
  0.18580000000000002         -2.3622342970597288E-010
  0.18690000000000001         -2.7899024757083168E-010
  0.18800000000000000         -3.0049357446770841E-010
  0.18910000000000005         -2.8735402946011845E-010
  0.19020000000000004         -2.3917229308167975E-010
  0.19130000000000003         -1.7618063952173912E-010
  0.19240000000000002         -1.3015646893599353E-010
  0.19350000000000001         -1.2412426642072205E-010
  0.19460000000000005         -1.5875800674081120E-010
  0.19570000000000004         -2.1600921051856403E-010
  0.19680000000000003         -2.7505475674871604E-010
  0.19790000000000002         -3.2366687108265069E-010
  0.19900000000000001         -3.5507077833507594E-010
  0.20010000000000000         -3.5934072384335991E-010
  0.20120000000000005         -3.2177185915749362E-010
  0.20230000000000004         -2.3478416433242444E-010
  0.20340000000000003         -1.1392276705324278E-010
  0.20450000000000002          2.4571566569625558E-012
  0.20560000000000000          7.3094461039424630E-011
  0.20670000000000005          8.1201108337314309E-011
  0.20780000000000004          4.3355073003903399E-011
  0.20890000000000003         -3.2088470335728259E-012
