 -0.12000000000000000          0.0000000000000000
 -0.11889999999999999          0.0000000000000000
 -0.11780000000000000          0.0000000000000000
 -0.11670000000000000          0.0000000000000000
 -0.11559999999999999          0.0000000000000000
 -0.11449999999999999          0.0000000000000000
 -0.11340000000000000          0.0000000000000000
 -0.11230000000000000          0.0000000000000000
 -0.11119999999999999          0.0000000000000000
 -0.11009999999999999          0.0000000000000000
 -0.10900000000000000         -3.3067477588030195E-026
 -0.10790000000000000         -1.0111411021059177E-024
 -0.10679999999999999         -8.2982582094041477E-024
 -0.10569999999999999         -2.8385493600146283E-023
 -0.10460000000000000         -8.5958551970378692E-024
 -0.10349999999999999          3.0007357542489578E-022
 -0.10239999999999999          1.1871359503392028E-021
 -0.10130000000000000          1.6066601062101126E-021
 -0.10020000000000000         -3.0732304306080859E-021
  -9.9099999999999994E-002    -1.8499915402381205E-020
  -9.7999999999999990E-002    -3.4620797970748814E-020
  -9.6899999999999986E-002    -2.6019642694967803E-021
  -9.5799999999999996E-002     1.4216638158144953E-019
  -9.4699999999999993E-002     3.4696687914541433E-019
  -9.3599999999999989E-002     2.7438426193572381E-019
  -9.2499999999999999E-002    -5.5465184597823102E-019
  -9.1399999999999995E-002    -1.9777079877094121E-018
  -9.0299999999999991E-002    -2.2874974668681779E-018
  -8.9200000000000002E-002     9.9185593569523756E-019
  -8.8099999999999984E-002     7.3181686224719799E-018
  -8.6999999999999994E-002     9.2922244009818172E-018
  -8.5899999999999990E-002    -3.0797046763273104E-018
  -8.4799999999999986E-002    -2.5561884359332159E-017
  -8.3699999999999997E-002    -2.5152696308275652E-017
  -8.2599999999999993E-002     3.7730672353858982E-017
  -8.1499999999999989E-002     1.3575345429574448E-016
  -8.0399999999999999E-002     1.1532550776725332E-016
  -7.9299999999999995E-002    -2.0887042356369936E-016
  -7.8199999999999992E-002    -7.4658659229208347E-016
  -7.7100000000000002E-002    -8.5798455386670641E-016
  -7.5999999999999984E-002     3.5301845082276679E-016
  -7.4899999999999994E-002     2.8949762898733021E-015
  -7.3799999999999991E-002     4.6577998721170338E-015
  -7.2699999999999987E-002     1.9465361346572433E-015
  -7.1599999999999997E-002    -6.9239954413979725E-015
  -7.0499999999999993E-002    -1.6854793521156944E-014
  -6.9399999999999989E-002    -1.5679913083536078E-014
  -6.8300000000000000E-002     6.5425015428335290E-015
  -6.7199999999999996E-002     4.2046481720610027E-014
  -6.6099999999999992E-002     5.8866716297518995E-014
  -6.5000000000000002E-002     2.0225127453886438E-014
  -6.3899999999999985E-002    -7.3037435203548301E-014
  -6.2799999999999995E-002    -1.5260369194431550E-013
  -6.1699999999999991E-002    -1.1388642578904346E-013
  -6.0599999999999994E-002     8.3245456155515291E-014
  -5.9499999999999990E-002     3.1774311914228859E-013
  -5.8399999999999994E-002     3.3813631148543744E-013
  -5.7299999999999990E-002    -2.5155440271508282E-014
  -5.6199999999999986E-002    -5.9857565952448066E-013
  -5.5099999999999996E-002    -8.4011828526894816E-013
  -5.3999999999999992E-002    -2.4024133919199608E-013
  -5.2899999999999989E-002     1.0503825456989468E-012
  -5.1799999999999985E-002     1.9678161010394657E-012
  -5.0699999999999995E-002     1.1949420402820876E-012
  -4.9599999999999991E-002    -1.4690925342550343E-012
  -4.8499999999999988E-002    -4.1876745127122916E-012
  -4.7399999999999998E-002    -3.9416070234110645E-012
  -4.6299999999999994E-002     7.7768748472234472E-013
  -4.5199999999999990E-002     7.4278387260373613E-012
  -4.4099999999999986E-002     9.9478324883106595E-012
  -4.2999999999999997E-002     3.4299102186913233E-012
  -4.1899999999999993E-002    -1.0013131816755116E-011
  -4.0799999999999989E-002    -1.9936099646122862E-011
  -3.9699999999999985E-002    -1.4462634215228753E-011
  -3.8599999999999995E-002     8.0141570463210243E-012
  -3.7499999999999992E-002     3.2458938314938734E-011
  -3.6399999999999988E-002     3.5234194034616806E-011
  -3.5299999999999984E-002     4.4989034199416356E-012
  -3.4199999999999994E-002    -4.2868923688654803E-011
  -3.3099999999999991E-002    -6.6655410357885359E-011
  -3.1999999999999987E-002    -3.4467519116621048E-011
  -3.0899999999999997E-002     4.2921766835180009E-011
  -2.9799999999999993E-002     1.0618901591374907E-010
  -2.8699999999999989E-002     8.8579338308747424E-011
  -2.7599999999999986E-002    -2.0825828908610511E-011
  -2.6499999999999996E-002    -1.4695678007825563E-010
  -2.5399999999999992E-002    -1.7306926725080274E-010
  -2.4299999999999988E-002    -4.0817224600253610E-011
  -2.3199999999999985E-002     1.7398045504268822E-010
  -2.2099999999999995E-002     2.9180563521080671E-010
  -2.0999999999999991E-002     1.6973902838834931E-010
  -1.9899999999999987E-002    -1.5071610626193888E-010
  -1.8799999999999983E-002    -4.2833958602273015E-010
  -1.7699999999999994E-002    -3.9230715898064261E-010
  -1.6599999999999990E-002     1.2217662645475080E-011
  -1.5499999999999986E-002     5.1482690333060077E-010
  -1.4399999999999996E-002     6.8549244058857539E-010
  -1.3299999999999992E-002     2.8993393796916678E-010
  -1.2199999999999989E-002    -4.4934708731680928E-010
  -1.1099999999999985E-002    -9.5026608804005264E-010
  -9.9999999999999950E-003    -7.1876954388372383E-010
  -8.8999999999999913E-003     1.8650873900849518E-010
  -7.7999999999999875E-003     1.0932990068823756E-009
  -6.6999999999999837E-003     1.1968160906761227E-009
  -5.5999999999999939E-003     2.5468527287131337E-010
  -4.4999999999999901E-003    -1.0903595804023780E-009
  -3.3999999999999864E-003    -1.7191891243939494E-009
  -2.2999999999999826E-003    -9.4227536884261553E-010
  -1.1999999999999927E-003     8.1719420119696906E-010
  -9.9999999999988987E-005     2.2052581982734409E-009
   1.0000000000000148E-003     1.9630708170126354E-009
   2.1000000000000185E-003     2.8806774673983959E-011
   3.2000000000000084E-003    -2.2317734327259586E-009
   4.3000000000000121E-003    -2.9872373463746271E-009
   5.4000000000000159E-003    -1.4264681658104905E-009
   6.5000000000000058E-003     1.4347248944446278E-009
   7.6000000000000234E-003     3.3919571595930620E-009
   8.7000000000000133E-003     2.7586122275380376E-009
   9.8000000000000032E-003    -1.7955777142919516E-010
   1.0900000000000021E-002    -3.2023628193655895E-009
   1.2000000000000011E-002    -3.7983900469384935E-009
   1.3100000000000001E-002    -1.2053440467951759E-009
   1.4200000000000018E-002     2.7906461586013620E-009
   1.5300000000000008E-002     5.0540736040716183E-009
   1.6400000000000026E-002     3.4951379568326502E-009
   1.7500000000000016E-002    -1.1588962012254456E-009
   1.8600000000000005E-002    -5.6655742319833280E-009
   1.9700000000000023E-002    -6.5569083496086478E-009
   2.0800000000000013E-002    -2.7806370539451564E-009
   2.1900000000000003E-002     3.3094742502015606E-009
   2.3000000000000020E-002     7.4718338183288324E-009
   2.4100000000000010E-002     6.6138143850480446E-009
   2.5200000000000000E-002     1.1630282292784955E-009
   2.6300000000000018E-002    -5.0407971130539408E-009
   2.7400000000000008E-002    -7.4149126838563006E-009
   2.8500000000000025E-002    -4.0469605444570789E-009
   2.9600000000000015E-002     2.6544182407661765E-009
   3.0700000000000005E-002     7.4707831032583272E-009
   3.1800000000000023E-002     6.1973803866521848E-009
   3.2900000000000013E-002    -9.1383506317654906E-010
   3.4000000000000002E-002    -8.8031981704261852E-009
   3.5100000000000020E-002    -1.1006682676395485E-008
   3.6200000000000010E-002    -4.6407566678396961E-009
   3.7300000000000028E-002     6.7467671449605859E-009
   3.8400000000000017E-002     1.5022347810145220E-008
   3.9500000000000007E-002     1.3217390737452206E-008
   4.0600000000000025E-002     1.1730681981347857E-009
   4.1700000000000015E-002    -1.3407474241944328E-008
   4.2800000000000005E-002    -1.9922861582699625E-008
   4.3900000000000022E-002    -1.2651992342682661E-008
   4.5000000000000012E-002     4.4854675529393262E-009
   4.6100000000000002E-002     2.0249897758617408E-008
   4.7200000000000020E-002     2.4289615652151042E-008
   4.8300000000000010E-002     1.5207252346272071E-008
   4.9400000000000027E-002     2.0503907460778237E-009
   5.0500000000000017E-002    -2.4248716368191481E-009
   5.1600000000000007E-002     8.1453128686348464E-009
   5.2700000000000025E-002     2.8188377854121427E-008
   5.3800000000000014E-002     4.3980808328569765E-008
   5.4900000000000004E-002     4.4331326165547580E-008
   5.6000000000000022E-002     3.0063031175586730E-008
   5.7100000000000012E-002     1.4710583862154181E-008
   5.8200000000000002E-002     1.5404564734922133E-008
   5.9300000000000019E-002     4.0525879541064569E-008
   6.0400000000000009E-002     8.3422115437770117E-008
   6.1500000000000027E-002     1.2708264307548234E-007
   6.2600000000000017E-002     1.5648377882371278E-007
   6.3700000000000007E-002     1.6956909121290664E-007
   6.4800000000000024E-002     1.7883949965380452E-007
   6.5900000000000014E-002     2.0246288556791114E-007
   6.7000000000000004E-002     2.5147562610072782E-007
   6.8100000000000022E-002     3.2245628744931309E-007
   6.9200000000000012E-002     4.0108406551553344E-007
   7.0300000000000029E-002     4.7417174187103228E-007
   7.1400000000000019E-002     5.4160733498065383E-007
   7.2500000000000009E-002     6.1942751017340925E-007
   7.3600000000000027E-002     7.3120247634506086E-007
   7.4700000000000016E-002     8.9312624140802654E-007
   7.5800000000000006E-002     1.1031208941858495E-006
   7.6900000000000024E-002     1.3422358051684569E-006
   7.8000000000000014E-002     1.5885009361227276E-006
   7.9100000000000004E-002     1.8343729379921569E-006
   8.0200000000000021E-002     2.0954385036020540E-006
   8.1300000000000011E-002     2.4033452064031735E-006
   8.2400000000000029E-002     2.7870619305758737E-006
   8.3500000000000019E-002     3.2556924907112261E-006
   8.4600000000000009E-002     3.7959075598337222E-006
   8.5700000000000026E-002     4.3867121348739602E-006
   8.6800000000000016E-002     5.0208759603265207E-006
   8.7900000000000006E-002     5.7163892961398233E-006
   8.9000000000000024E-002     6.5081781031040009E-006
   9.0100000000000013E-002     7.4255349318264052E-006
   9.1200000000000003E-002     8.4725134001928382E-006
   9.2300000000000021E-002     9.6270841822843067E-006
   9.3400000000000011E-002     1.0860621841857210E-005
   9.4500000000000028E-002     1.2163206520199310E-005
   9.5600000000000018E-002     1.3555246368923690E-005
   9.6700000000000008E-002     1.5076214367581997E-005
   9.7800000000000026E-002     1.6758829588070512E-005
   9.8900000000000016E-002     1.8608028767630458E-005
  0.10000000000000001          2.0599911294993944E-005
  0.10110000000000002          2.2700334739056416E-005
  0.10220000000000001          2.4888422558433376E-005
  0.10330000000000003          2.7167443477082998E-005
  0.10440000000000002          2.9555822038673796E-005
  0.10550000000000001          3.2065785489976406E-005
  0.10660000000000003          3.4685261198319495E-005
  0.10770000000000002          3.7375299143604934E-005
  0.10880000000000001          4.0084138163365424E-005
  0.10990000000000003          4.2768169805640355E-005
  0.11100000000000002          4.5405940909404308E-005
  0.11210000000000001          4.7995923523558304E-005
  0.11320000000000002          5.0538754294393584E-005
  0.11430000000000001          5.3014689910924062E-005
  0.11540000000000003          5.5371194321196526E-005
  0.11650000000000002          5.7530247431714088E-005
  0.11760000000000001          5.9412384871393442E-005
  0.11870000000000003          6.0961992858210579E-005
  0.11980000000000002          6.2155420891940594E-005
  0.12090000000000001          6.2984428950585425E-005
  0.12200000000000003          6.3426115957554430E-005
  0.12310000000000001          6.3422878156416118E-005
  0.12420000000000003          6.2889812397770584E-005
  0.12530000000000002          6.1746097344439477E-005
  0.12640000000000001          5.9947142290184274E-005
  0.12750000000000003          5.7491834013490006E-005
  0.12860000000000002          5.4398249631049111E-005
  0.12970000000000001          5.0668040785240009E-005
  0.13080000000000003          4.6268894948298112E-005
  0.13190000000000002          4.1150105971610174E-005
  0.13300000000000001          3.5279179428471252E-005
  0.13410000000000000          2.8669555831584148E-005
  0.13520000000000004          2.1378042220021598E-005
  0.13630000000000003          1.3475884770741686E-005
  0.13740000000000002          5.0188805289508309E-006
  0.13850000000000001         -3.9588830986758694E-006
  0.13960000000000000         -1.3425960787571967E-005
  0.14070000000000005         -2.3327769667957909E-005
  0.14180000000000004         -3.3574709959793836E-005
  0.14290000000000003         -4.4050782889826223E-005
  0.14400000000000002         -5.4632102546747774E-005
  0.14510000000000001         -6.5200452809222043E-005
  0.14620000000000000         -7.5646457844413817E-005
  0.14730000000000004         -8.5866442532278597E-005
  0.14840000000000003         -9.5758863608352840E-005
  0.14950000000000002         -1.0522059892537072E-004
  0.15060000000000001         -1.1414018081268296E-004
  0.15170000000000000         -1.2239189527463168E-004
  0.15280000000000005         -1.2984045315533876E-004
  0.15390000000000004         -1.3636056974064559E-004
  0.15500000000000003         -1.4186069893185049E-004
  0.15610000000000002         -1.4629041834268719E-004
  0.15720000000000001         -1.4962076966185123E-004
  0.15830000000000000         -1.5181097842287272E-004
  0.15940000000000004         -1.5279201033990830E-004
  0.16050000000000003         -1.5248739509843290E-004
  0.16160000000000002         -1.5085838094819337E-004
  0.16270000000000001         -1.4793445006944239E-004
  0.16380000000000000         -1.4379914500750601E-004
  0.16490000000000005         -1.3854031567461789E-004
  0.16600000000000004         -1.3220844266470522E-004
  0.16710000000000003         -1.2482187594287097E-004
  0.16820000000000002         -1.1641475430224091E-004
  0.16930000000000001         -1.0708252375479788E-004
  0.17040000000000000         -9.6981275419238955E-005
  0.17150000000000004         -8.6280022514984012E-005
  0.17260000000000003         -7.5110387115273625E-005
  0.17370000000000002         -6.3561681599821895E-005
  0.17480000000000001         -5.1725128287216648E-005
  0.17590000000000000         -3.9741433283779770E-005
  0.17700000000000005         -2.7802248951047659E-005
  0.17810000000000004         -1.6101992514450103E-005
  0.17920000000000003         -4.7854414333414752E-006
  0.18030000000000002          6.0593561101995874E-006
  0.18140000000000001          1.6357602362404577E-005
  0.18250000000000000          2.5999817808042280E-005
  0.18360000000000004          3.4840493754018098E-005
  0.18470000000000003          4.2743919038912281E-005
  0.18580000000000002          4.9627535190666094E-005
  0.18690000000000001          5.5455937399528921E-005
  0.18800000000000000          6.0189155192347243E-005
  0.18910000000000005          6.3739760662429035E-005
  0.19020000000000004          6.5987682319246233E-005
  0.19130000000000003          6.6841785155702382E-005
  0.19240000000000002          6.6285450884606689E-005
  0.19350000000000001          6.4355059294030070E-005
  0.19460000000000005          6.1067112255841494E-005
  0.19570000000000004          5.6365246564382687E-005
  0.19680000000000003          5.0143742555519566E-005
  0.19790000000000002          4.2327515984652564E-005
  0.19900000000000001          3.2928717700997368E-005
  0.20010000000000000          2.2018506570020691E-005
  0.20120000000000005          9.6361500254715793E-006
  0.20230000000000004         -4.2756369111884851E-006
  0.20340000000000003         -1.9842316760332324E-005
  0.20450000000000002         -3.7160312785999849E-005
  0.20560000000000000         -5.6225449952762574E-005
  0.20670000000000005         -7.6958764111623168E-005
  0.20780000000000004         -9.9303884780965745E-005
  0.20890000000000003         -1.2329431774560362E-004
