 -0.12000000000000000          0.0000000000000000
 -0.11889999999999999          0.0000000000000000
 -0.11780000000000000          0.0000000000000000
 -0.11670000000000000          0.0000000000000000
 -0.11559999999999999          0.0000000000000000
 -0.11449999999999999          0.0000000000000000
 -0.11340000000000000          0.0000000000000000
 -0.11230000000000000          0.0000000000000000
 -0.11119999999999999          0.0000000000000000
 -0.11009999999999999          0.0000000000000000
 -0.10900000000000000          0.0000000000000000
 -0.10790000000000000         -1.9904588492372324E-038
 -0.10679999999999999          2.8081158025215310E-037
 -0.10569999999999999         -1.2258669814227222E-035
 -0.10460000000000000         -3.2735109858485815E-035
 -0.10349999999999999          9.7422939935798693E-035
 -0.10239999999999999         -7.1051608091751194E-034
 -0.10130000000000000         -7.4949637357864134E-033
 -0.10020000000000000         -8.8176828765774383E-033
  -9.9099999999999994E-002     7.6646240109349450E-032
  -9.7999999999999990E-002     2.3529009958544927E-031
  -9.6899999999999986E-002    -3.7329104399204136E-031
  -9.5799999999999996E-002    -3.0083381200820313E-030
  -9.4699999999999993E-002    -2.9058220352326947E-030
  -9.3599999999999989E-002     1.7994663124647554E-029
  -9.2499999999999999E-002     5.9594880826462756E-029
  -9.1399999999999995E-002     4.7003527760567656E-030
  -9.0299999999999991E-002    -3.6743717221483342E-028
  -8.9200000000000002E-002    -8.1186710137168953E-028
  -8.8099999999999984E-002     3.2011651977638002E-028
  -8.6999999999999994E-002     4.9477382938481082E-027
  -8.5899999999999990E-002     8.8274043739736539E-027
  -8.4799999999999986E-002    -4.9610326030682244E-027
  -8.3699999999999997E-002    -5.0231642586321233E-026
  -8.2599999999999993E-002    -8.2445430926458386E-026
  -8.1499999999999989E-002     3.8823234782628112E-026
  -8.0399999999999999E-002     4.0767789239949551E-025
  -7.9299999999999995E-002     6.7773056893226095E-025
  -7.8199999999999992E-002    -1.4349457519465562E-025
  -7.7100000000000002E-002    -2.7108061159607500E-024
  -7.5999999999999984E-002    -4.8925413665905875E-024
  -7.4899999999999994E-002    -5.6936474638205056E-025
  -7.3799999999999991E-002     1.4814020516867191E-023
  -7.2699999999999987E-002     3.0696947560308853E-023
  -7.1599999999999997E-002     1.3902704733328722E-023
  -7.0499999999999993E-002    -6.5247095678500601E-023
  -6.9399999999999989E-002    -1.6561662650749459E-022
  -6.8300000000000000E-002    -1.2931453507022094E-022
  -6.7199999999999996E-002     2.1640915876236643E-022
  -6.6099999999999992E-002     7.5948417949446273E-022
  -6.5000000000000002E-002     8.4602285188593190E-022
  -6.3899999999999985E-002    -4.0336543201095014E-022
  -6.2799999999999995E-002    -2.9063255374443802E-021
  -6.1699999999999991E-002    -4.3472986002671546E-021
  -6.0599999999999994E-002    -8.4380868971893205E-022
  -5.9499999999999990E-002     8.9186387463268699E-021
  -5.8399999999999994E-002     1.8180505748074962E-020
  -5.7299999999999990E-002     1.2159168071410940E-020
  -5.6199999999999986E-002    -1.9554510906662361E-020
  -5.5099999999999996E-002    -6.2198708787582656E-020
  -5.3999999999999992E-002    -6.7703718548745231E-020
  -5.2899999999999989E-002     1.4652824389193516E-020
  -5.1799999999999985E-002     1.7002488110934931E-019
  -5.0699999999999995E-002     2.6782766650911052E-019
  -4.9599999999999991E-002     1.1733793511021099E-019
  -4.8499999999999988E-002    -3.3995453305067846E-019
  -4.7399999999999998E-002    -8.2366840367212752E-019
  -4.6299999999999994E-002    -7.5021300751861699E-019
  -4.5199999999999990E-002     3.1210258634419375E-019
  -4.4099999999999986E-002     1.9698776892358320E-018
  -4.2999999999999997E-002     2.7630160972695461E-018
  -4.1899999999999993E-002     1.0150531819985215E-018
  -4.0799999999999989E-002    -3.3586092993648775E-018
  -3.9699999999999985E-002    -7.4770617463372909E-018
  -3.8599999999999995E-002    -6.5032124986015671E-018
  -3.7499999999999992E-002     2.3467242191124341E-018
  -3.6399999999999988E-002     1.5189491118531645E-017
  -3.5299999999999984E-002     2.1027379502989967E-017
  -3.4199999999999994E-002     8.8174111488478036E-018
  -3.3099999999999991E-002    -2.0707437622583032E-017
  -3.1999999999999987E-002    -4.8212086345032759E-017
  -3.0899999999999997E-002    -4.4351191057439451E-017
  -2.9799999999999993E-002     5.9773340785322049E-018
  -2.8699999999999989E-002     7.9879686936278109E-017
  -2.7599999999999986E-002     1.1803234713399224E-016
  -2.6499999999999996E-002     6.3875680994732848E-017
  -2.5399999999999992E-002    -7.9165896242093851E-017
  -2.4299999999999988E-002    -2.2038127044464028E-016
  -2.3199999999999985E-002    -2.2628381953758187E-016
  -2.2099999999999995E-002    -2.7812753648291029E-017
  -2.0999999999999991E-002     2.8477033281474804E-016
  -1.9899999999999987E-002     4.7613934838738924E-016
  -1.8799999999999983E-002     3.2297842734839302E-016
  -1.7699999999999994E-002    -1.7511459889861899E-016
  -1.6599999999999990E-002    -7.0733863246678582E-016
  -1.5499999999999986E-002    -8.1619094239755437E-016
  -1.4399999999999996E-002    -2.5741566848096642E-016
  -1.3299999999999992E-002     7.0527981300936584E-016
  -1.2199999999999989E-002     1.3639124628222533E-015
  -1.1099999999999985E-002     1.0522155614192219E-015
  -9.9999999999999950E-003    -2.4845225995400301E-016
  -8.8999999999999913E-003    -1.6936728712210747E-015
  -7.7999999999999875E-003    -2.0672088952460640E-015
  -6.6999999999999837E-003    -7.5104341496273958E-016
  -5.5999999999999939E-003     1.5556056537856765E-015
  -4.4999999999999901E-003     3.0864207707875877E-015
  -3.3999999999999864E-003     2.2802525045570975E-015
  -2.2999999999999826E-003    -7.7416254398333527E-016
  -1.1999999999999927E-003    -3.9623328828620498E-015
  -9.9999999999988987E-005    -4.4657847027545355E-015
   1.0000000000000148E-003    -1.0706297400551752E-015
   2.1000000000000185E-003     4.3134360863119562E-015
   3.2000000000000084E-003     7.4741890804187923E-015
   4.3000000000000121E-003     4.9587189145409646E-015
   5.4000000000000159E-003    -2.7072896706295101E-015
   6.5000000000000058E-003    -1.0393876074220581E-014
   7.6000000000000234E-003    -1.1535557055473815E-014
   8.7000000000000133E-003    -3.3345052860935843E-015
   9.8000000000000032E-003     9.9217356742562976E-015
   1.0900000000000021E-002     1.8677308573984870E-014
   1.2000000000000011E-002     1.4737341596095070E-014
   1.3100000000000001E-002    -1.7117317195356548E-015
   1.4200000000000018E-002    -2.0406727929645971E-014
   1.5300000000000008E-002    -2.7164866696675026E-014
   1.6400000000000026E-002    -1.4474049874770543E-014
   1.7500000000000016E-002     1.1233549152196189E-014
   1.8600000000000005E-002     3.2180008169898494E-014
   1.9700000000000023E-002     3.1450746683630432E-014
   2.0800000000000013E-002     6.6504969730590315E-015
   2.1900000000000003E-002    -2.5839778518385766E-014
   2.3000000000000020E-002    -4.1122799067892790E-014
   2.4100000000000010E-002    -2.4695481052358463E-014
   2.5200000000000000E-002     1.4010595797680353E-014
   2.6300000000000018E-002     4.5553536935421732E-014
   2.7400000000000008E-002     4.1698554467195850E-014
   2.8500000000000025E-002    -6.0148624853739599E-016
   2.9600000000000015E-002    -5.1937526003055512E-014
   3.0700000000000005E-002    -6.9063034642286719E-014
   3.1800000000000023E-002    -2.8755921526336242E-014
   3.2900000000000013E-002     4.8391680067391349E-014
   3.4000000000000002E-002     1.0599395574564449E-013
   3.5100000000000020E-002     9.1217222035304413E-014
   3.6200000000000010E-002    -9.6522908938446788E-016
   3.7300000000000028E-002    -1.1397534391971442E-013
   3.8400000000000017E-002    -1.6322366906424551E-013
   3.9500000000000007E-002    -9.8477148202484599E-014
   4.0600000000000025E-002     5.0218723358355297E-014
   4.1700000000000015E-002     1.8274318419175123E-013
   4.2800000000000005E-002     1.9634971816853697E-013
   4.3900000000000022E-002     6.5734723708136406E-014
   4.5000000000000012E-002    -1.2603024906240184E-013
   4.6100000000000002E-002    -2.3767917972303265E-013
   4.7200000000000020E-002    -1.7309383906673886E-013
   4.8300000000000010E-002     3.6635276111579920E-014
   4.9400000000000027E-002     2.4068415446429348E-013
   5.0500000000000017E-002     2.7220264345491352E-013
   5.1600000000000007E-002     7.9302612653736615E-014
   5.2700000000000025E-002    -2.1698086578349207E-013
   5.3800000000000014E-002    -3.9398275223853640E-013
   5.4900000000000004E-002    -2.8936949407823431E-013
   5.6000000000000022E-002     6.1924762735122985E-014
   5.7100000000000012E-002     4.2731524698899626E-013
   5.8200000000000002E-002     5.3130037262066887E-013
   5.9300000000000019E-002     2.6396360141081598E-013
   6.0400000000000009E-002    -2.1367663769009809E-013
   6.1500000000000027E-002    -5.6334017312087425E-013
   6.2600000000000017E-002    -5.1347733573750554E-013
   6.3700000000000007E-002    -8.0056566844483035E-014
   6.4800000000000024E-002     4.1344876198882996E-013
   6.5900000000000014E-002     5.5896173106750879E-013
   6.7000000000000004E-002     1.8516530539761100E-013
   6.8100000000000022E-002    -4.6463852730604938E-013
   6.9200000000000012E-002    -8.6063984714931929E-013
   7.0300000000000029E-002    -5.6572964628881506E-013
   7.1400000000000019E-002     3.9274657202652274E-013
   7.2500000000000009E-002     1.4478185360669582E-012
   7.3600000000000027E-002     1.8161993176751823E-012
   7.4700000000000016E-002     1.0345413761769784E-012
   7.5800000000000006E-002    -6.5742290084047639E-013
   7.6900000000000024E-002    -2.3795665958503687E-012
   7.8000000000000014E-002    -3.1167577199675556E-012
   7.9100000000000004E-002    -2.3476136399441794E-012
   8.0200000000000021E-002    -3.7389302808346625E-013
   8.1300000000000011E-002     1.8736154121234971E-012
   8.2400000000000029E-002     3.4095840300424340E-012
   8.3500000000000019E-002     3.7382666406848841E-012
   8.4600000000000009E-002     2.9938872561641183E-012
   8.5700000000000026E-002     1.6258637231675310E-012
   8.6800000000000016E-002    -6.0023844618631306E-014
   8.7900000000000006E-002    -2.0792785895840105E-012
   8.9000000000000024E-002    -4.4815340674575488E-012
   9.0100000000000013E-002    -6.8381767262537529E-012
   9.1200000000000003E-002    -8.0100761093437889E-012
   9.2300000000000021E-002    -6.5639976093434527E-012
   9.3400000000000011E-002    -1.7232656274179803E-012
   9.4500000000000028E-002     5.7465586109084477E-012
   9.5600000000000018E-002     1.3412946101021284E-011
   9.6700000000000008E-002     1.8085130615297373E-011
   9.7800000000000026E-002     1.7340106781005282E-011
   9.8900000000000016E-002     1.0779483208822604E-011
  0.10000000000000001          2.4220016725702564E-013
  0.10110000000000002         -1.1150313311558691E-011
  0.10220000000000001         -2.0490610944112753E-011
  0.10330000000000003         -2.6183241338961771E-011
  0.10440000000000002         -2.8052164757763620E-011
  0.10550000000000001         -2.6611336398363328E-011
  0.10660000000000003         -2.2226527909841032E-011
  0.10770000000000002         -1.4855722554885098E-011
  0.10880000000000001         -4.4385927225332189E-012
  0.10990000000000003          8.6727664980190688E-012
  0.11100000000000002          2.3990538722262755E-011
  0.11210000000000001          4.2034584146755094E-011
  0.11320000000000002          6.5601614418486776E-011
  0.11430000000000001          9.9962864374969485E-011
  0.11540000000000003          1.5128520658436173E-010
  0.11650000000000002          2.2381101139057336E-010
  0.11760000000000001          3.1747254825020832E-010
  0.11870000000000003          4.2773962150022271E-010
  0.11980000000000002          5.4833410034760277E-010
  0.12090000000000001          6.7565708583572359E-010
  0.12200000000000003          8.1257961470626583E-010
  0.12310000000000001          9.6954078099287244E-010
  0.12420000000000003          1.1625791440650346E-009
  0.12530000000000002          1.4098614498081474E-009
  0.12640000000000001          1.7291053033829940E-009
  0.12750000000000003          2.1373969261162529E-009
  0.12860000000000002          2.6529380914297462E-009
  0.12970000000000001          3.2966940288758906E-009
  0.13080000000000003          4.0920382637921193E-009
  0.13190000000000002          5.0623127911819665E-009
  0.13300000000000001          6.2284306601156914E-009
  0.13410000000000000          7.6095112433449685E-009
  0.13520000000000004          9.2280973973402070E-009
  0.13630000000000003          1.1118546083821457E-008
  0.13740000000000002          1.3334627624317363E-008
  0.13850000000000001          1.5952133836094617E-008
  0.13960000000000000          1.9064778200572619E-008
  0.14070000000000005          2.2775408226038962E-008
  0.14180000000000004          2.7187320839061613E-008
  0.14290000000000003          3.2400215843608748E-008
  0.14400000000000002          3.8512581568284077E-008
  0.14510000000000001          4.5628567590938474E-008
  0.14620000000000000          5.3865377935835568E-008
  0.14730000000000004          6.3357788349094335E-008
  0.14840000000000003          7.4259205007365381E-008
  0.14950000000000002          8.6741074767360260E-008
  0.15060000000000001          1.0099304148525334E-007
  0.15170000000000000          1.1722445947270899E-007
  0.15280000000000005          1.3566533141329273E-007
  0.15390000000000004          1.5656387120088766E-007
  0.15500000000000003          1.8017897218669532E-007
  0.15610000000000002          2.0676951351106254E-007
  0.15720000000000001          2.3658468251142040E-007
  0.15830000000000000          2.6985946988133946E-007
  0.15940000000000004          3.0681704288326728E-007
  0.16050000000000003          3.4767492707032943E-007
  0.16160000000000002          3.9264980955522333E-007
  0.16270000000000001          4.4195579107508820E-007
  0.16380000000000000          4.9579477945371764E-007
  0.16490000000000005          5.5434190926462179E-007
  0.16600000000000004          6.1773016568622552E-007
  0.16710000000000003          6.8603884528783965E-007
  0.16820000000000002          7.5928522846879787E-007
  0.16930000000000001          8.3741923617708380E-007
  0.17040000000000000          9.2031524445701507E-007
  0.17150000000000004          1.0077616252601729E-006
  0.17260000000000003          1.0994484682669281E-006
  0.17370000000000002          1.1949565532631823E-006
  0.17480000000000001          1.2937493920617271E-006
  0.17590000000000000          1.3951686241853167E-006
  0.17700000000000005          1.4984325389377773E-006
  0.17810000000000004          1.6026361890908447E-006
  0.17920000000000003          1.7067504813894629E-006
  0.18030000000000002          1.8096213807439199E-006
  0.18140000000000001          1.9099697965430096E-006
  0.18250000000000000          2.0063916963408701E-006
  0.18360000000000004          2.0973589016648475E-006
  0.18470000000000003          2.1812234081153292E-006
  0.18580000000000002          2.2562273898074636E-006
  0.18690000000000001          2.3205197976494674E-006
  0.18800000000000000          2.3721820525679504E-006
  0.18910000000000005          2.4092623789329082E-006
  0.19020000000000004          2.4298158223245991E-006
  0.19130000000000003          2.4319438125530723E-006
  0.19240000000000002          2.4138294065778609E-006
  0.19350000000000001          2.3737643459753599E-006
  0.19460000000000005          2.3101715669326950E-006
  0.19570000000000004          2.2216302113520214E-006
  0.19680000000000003          2.1069051854283316E-006
  0.19790000000000002          1.9649880869110348E-006
  0.19900000000000001          1.7951440440810984E-006
  0.20010000000000000          1.5969590094755404E-006
  0.20120000000000005          1.3703802324016578E-006
  0.20230000000000004          1.1157480912515894E-006
  0.20340000000000003          8.3382047932900605E-007
  0.20450000000000002          5.2578934628400020E-007
  0.20560000000000000          1.9328918199335021E-007
  0.20670000000000005         -1.6160544191734516E-007
  0.20780000000000004         -5.3639286079487647E-007
  0.20890000000000003         -9.2816600272271899E-007
