 -0.12000000000000000          0.0000000000000000
 -0.11889999999999999          0.0000000000000000
 -0.11780000000000000          0.0000000000000000
 -0.11670000000000000          0.0000000000000000
 -0.11559999999999999         -3.9775767230555486E-016
 -0.11449999999999999         -2.3631643245990847E-015
 -0.11340000000000000         -5.8535012266143580E-015
 -0.11230000000000000         -4.5180296949411808E-015
 -0.11119999999999999          1.4693922687218815E-014
 -0.11009999999999999          5.4900809782652479E-014
 -0.10900000000000000          8.2522455936793332E-014
 -0.10790000000000000          3.1504777221269889E-014
 -0.10679999999999999         -1.2563593828479602E-013
 -0.10569999999999999         -2.8690000678996408E-013
 -0.10460000000000000         -2.4483198671557127E-013
 -0.10349999999999999          1.0054090670902002E-013
 -0.10239999999999999          5.0752875209794657E-013
 -0.10130000000000000          4.8131794773767500E-013
 -0.10020000000000000         -1.9389897402532358E-013
  -9.9099999999999994E-002    -9.3399268354110720E-013
  -9.7999999999999990E-002    -6.1118135292331788E-013
  -9.6899999999999986E-002     1.2319200564173127E-012
  -9.5799999999999996E-002     3.2475120682884384E-012
  -9.4699999999999993E-002     2.8060639749305505E-012
  -9.3599999999999989E-002    -1.4932665564140746E-012
  -9.2499999999999999E-002    -7.3573456355058298E-012
  -9.1399999999999995E-002    -9.4140485337734781E-012
  -9.0299999999999991E-002    -3.6844390385870618E-012
  -8.9200000000000002E-002     7.5156330811565475E-012
  -8.8099999999999984E-002     1.5585080101465643E-011
  -8.6999999999999994E-002     1.2373442548341274E-011
  -8.5899999999999990E-002    -1.3940029686132505E-012
  -8.4799999999999986E-002    -1.4522424929275246E-011
  -8.3699999999999997E-002    -1.4231124091657055E-011
  -8.2599999999999993E-002     1.1100825120236024E-012
  -8.1499999999999989E-002     1.7853590134064845E-011
  -8.0399999999999999E-002     1.7899735513249304E-011
  -7.9299999999999995E-002    -3.5209350626036473E-012
  -7.8199999999999992E-002    -3.0117717347843964E-011
  -7.7100000000000002E-002    -3.6802172420635770E-011
  -7.5999999999999984E-002    -1.3032502160781334E-011
  -7.4899999999999994E-002     2.4617851160368964E-011
  -7.3799999999999991E-002     4.4972567336820646E-011
  -7.2699999999999987E-002     3.0678893453428557E-011
  -7.1599999999999997E-002    -4.0006860671515376E-012
  -7.0499999999999993E-002    -2.5027228553464731E-011
  -6.9399999999999989E-002    -1.1149681004851697E-011
  -6.8300000000000000E-002     2.3644825680735337E-011
  -6.7199999999999996E-002     4.1383261401017890E-011
  -6.6099999999999992E-002     1.6649813472380259E-011
  -6.5000000000000002E-002    -3.6300407124656431E-011
  -6.3899999999999985E-002    -7.3766243113837504E-011
  -6.2799999999999995E-002    -6.2440948245257033E-011
  -6.1699999999999991E-002    -1.0972879722903617E-011
  -6.0599999999999994E-002     3.8206954960928741E-011
  -5.9499999999999990E-002     4.9615443697970107E-011
  -5.8399999999999994E-002     2.7827469495367296E-011
  -5.7299999999999990E-002     9.5175299932859225E-012
  -5.6199999999999986E-002     2.2272300323478156E-011
  -5.5099999999999996E-002     5.2641321857116452E-011
  -5.3999999999999992E-002     5.7642963319226581E-011
  -5.2899999999999989E-002     9.6069497843020990E-012
  -5.1799999999999985E-002    -7.1418176927906529E-011
  -5.0699999999999995E-002    -1.3274845112043465E-010
  -4.9599999999999991E-002    -1.3879292160012824E-010
  -4.8499999999999988E-002    -1.0600262334570232E-010
  -4.7399999999999998E-002    -8.7042137386639240E-011
  -4.6299999999999994E-002    -1.1952111522717246E-010
  -4.5199999999999990E-002    -1.9164218822975698E-010
  -4.4099999999999986E-002    -2.6066351854758807E-010
  -4.2999999999999997E-002    -3.0556332464293234E-010
  -4.1899999999999993E-002    -3.5852468216468480E-010
  -4.0799999999999989E-002    -4.7997766872143188E-010
  -3.9699999999999985E-002    -6.9993977280802255E-010
  -3.8599999999999995E-002    -9.8514008062267067E-010
  -3.7499999999999992E-002    -1.2680146932453340E-009
  -3.6399999999999988E-002    -1.5123776675451950E-009
  -3.5299999999999984E-002    -1.7531373019963326E-009
  -3.4199999999999994E-002    -2.0721648841259821E-009
  -3.3099999999999991E-002    -2.5347477450310407E-009
  -3.1999999999999987E-002    -3.1484082008148562E-009
  -3.0899999999999997E-002    -3.8815453073937078E-009
  -2.9799999999999993E-002    -4.7194466112898681E-009
  -2.8699999999999989E-002    -5.7006777076651360E-009
  -2.7599999999999986E-002    -6.9007333181048125E-009
  -2.6499999999999996E-002    -8.3847266907355333E-009
  -2.5399999999999992E-002    -1.0179623366468604E-008
  -2.4299999999999988E-002    -1.2292148632297994E-008
  -2.3199999999999985E-002    -1.4750176191569153E-008
  -2.2099999999999995E-002    -1.7624575576746793E-008
  -2.0999999999999991E-002    -2.1013930151525528E-008
  -1.9899999999999987E-002    -2.5014779581056246E-008
  -1.8799999999999983E-002    -2.9710891524814542E-008
  -1.7699999999999994E-002    -3.5188357117021951E-008
  -1.6599999999999990E-002    -4.1553029461738333E-008
  -1.5499999999999986E-002    -4.8928377793799882E-008
  -1.4399999999999996E-002    -5.7440807665898319E-008
  -1.3299999999999992E-002    -6.7218415722436475E-008
  -1.2199999999999989E-002    -7.8412391246729385E-008
  -1.1099999999999985E-002    -9.1217557951495110E-008
  -9.9999999999999950E-003    -1.0586136767187782E-007
  -8.8999999999999913E-003    -1.2256413128852728E-007
  -7.7999999999999875E-003    -1.4151135019346839E-007
  -6.6999999999999837E-003    -1.6287532389469561E-007
  -5.5999999999999939E-003    -1.8687191527533287E-007
  -4.4999999999999901E-003    -2.1379418058131705E-007
  -3.3999999999999864E-003    -2.4397903075623617E-007
  -2.2999999999999826E-003    -2.7772989596996922E-007
  -1.1999999999999927E-003    -3.1527079613624664E-007
  -9.9999999999988987E-005    -3.5678181120601948E-007
   1.0000000000000148E-003    -4.0248411892207514E-007
   2.1000000000000185E-003    -4.5268515691532230E-007
   3.2000000000000084E-003    -5.0772774784491048E-007
   4.3000000000000121E-003    -5.6788348956615664E-007
   5.4000000000000159E-003    -6.3329224531116779E-007
   6.5000000000000058E-003    -7.0400562890426954E-007
   7.6000000000000234E-003    -7.8008605441937107E-007
   8.7000000000000133E-003    -8.6164902768359752E-007
   9.8000000000000032E-003    -9.4879072776166140E-007
   1.0900000000000021E-002    -1.0414623830001801E-006
   1.2000000000000011E-002    -1.1394133707653964E-006
   1.3100000000000001E-002    -1.2422608506312827E-006
   1.4200000000000018E-002    -1.3496083965947037E-006
   1.5300000000000008E-002    -1.4610825473937439E-006
   1.6400000000000026E-002    -1.5762281009301660E-006
   1.7500000000000016E-002    -1.6943537275437848E-006
   1.8600000000000005E-002    -1.8144741034120671E-006
   1.9700000000000023E-002    -1.9354026790097123E-006
   2.0800000000000013E-002    -2.0558961750793969E-006
   2.1900000000000003E-002    -2.1746975562564330E-006
   2.3000000000000020E-002    -2.2904237084730994E-006
   2.4100000000000010E-002    -2.4014116206672043E-006
   2.5200000000000000E-002    -2.5056801860046107E-006
   2.6300000000000018E-002    -2.6010550300270552E-006
   2.7400000000000008E-002    -2.6853306280827383E-006
   2.8500000000000025E-002    -2.7563107778405538E-006
   2.9600000000000015E-002    -2.8116821795265423E-006
   3.0700000000000005E-002    -2.8488582302088616E-006
   3.1800000000000023E-002    -2.8649690193560673E-006
   3.2900000000000013E-002    -2.8570323138410458E-006
   3.4000000000000002E-002    -2.8221604679856682E-006
   3.5100000000000020E-002    -2.7576209049584577E-006
   3.6200000000000010E-002    -2.6607183372107102E-006
   3.7300000000000028E-002    -2.5286522031819914E-006
   3.8400000000000017E-002    -2.3585273538628826E-006
   3.9500000000000007E-002    -2.1475489120348357E-006
   4.0600000000000025E-002    -1.8932465764009976E-006
   4.1700000000000015E-002    -1.5935447663650848E-006
   4.2800000000000005E-002    -1.2466576890801662E-006
   4.3900000000000022E-002    -8.5096615975999157E-007
   4.5000000000000012E-002    -4.0505284459868562E-007
   4.6100000000000002E-002     9.2086615666175931E-008
   4.7200000000000020E-002     6.4081933714987827E-007
   4.8300000000000010E-002     1.2408122529450338E-006
   4.9400000000000027E-002     1.8911423467216082E-006
   5.0500000000000017E-002     2.5904173526214436E-006
   5.1600000000000007E-002     3.3367375635862118E-006
   5.2700000000000025E-002     4.1274911382060964E-006
   5.3800000000000014E-002     4.9591453716857359E-006
   5.4900000000000004E-002     5.8272084970667493E-006
   5.6000000000000022E-002     6.7263690652907826E-006
   5.7100000000000012E-002     7.6506557888933457E-006
   5.8200000000000002E-002     8.5934561866451986E-006
   5.9300000000000019E-002     9.5473778856103308E-006
   6.0400000000000009E-002     1.0504103556741029E-005
   6.1500000000000027E-002     1.1454390005383175E-005
   6.2600000000000017E-002     1.2388243703753687E-005
   6.3700000000000007E-002     1.3295134522195440E-005
   6.4800000000000024E-002     1.4164103049552068E-005
   6.5900000000000014E-002     1.4983724213379901E-005
   6.7000000000000004E-002     1.5742078176117502E-005
   6.8100000000000022E-002     1.6426824004156515E-005
   6.9200000000000012E-002     1.7025460692821071E-005
   7.0300000000000029E-002     1.7525602743262425E-005
   7.1400000000000019E-002     1.7915186617756262E-005
   7.2500000000000009E-002     1.8182574422098696E-005
   7.3600000000000027E-002     1.8316597561351955E-005
   7.4700000000000016E-002     1.8306687707081437E-005
   7.5800000000000006E-002     1.8143136912840419E-005
   7.6900000000000024E-002     1.7817448679124936E-005
   7.8000000000000014E-002     1.7322619896731339E-005
   7.9100000000000004E-002     1.6653302736813203E-005
   8.0200000000000021E-002     1.5805859220563434E-005
   8.1300000000000011E-002     1.4778424883843400E-005
   8.2400000000000029E-002     1.3571059753303416E-005
   8.3500000000000019E-002     1.2186002095404547E-005
   8.4600000000000009E-002     1.0627920346450992E-005
   8.5700000000000026E-002     8.9040167949860916E-006
   8.6800000000000016E-002     7.0239698288787622E-006
   8.7900000000000006E-002     4.9997934183920734E-006
   8.9000000000000024E-002     2.8457502594392281E-006
   9.0100000000000013E-002     5.7837706890495610E-007
   9.1200000000000003E-002    -1.7834598793342593E-006
   9.2300000000000021E-002    -4.2186538848909549E-006
   9.3400000000000011E-002    -6.7041737565887161E-006
   9.4500000000000028E-002    -9.2155269157956354E-006
   9.5600000000000018E-002    -1.1727158380381297E-005
   9.6700000000000008E-002    -1.4212667338142637E-005
   9.7800000000000026E-002    -1.6644924471620470E-005
   9.8900000000000016E-002    -1.8996306607732549E-005
  0.10000000000000001         -2.1239187844912522E-005
  0.10110000000000002         -2.3346632588072680E-005
  0.10220000000000001         -2.5292998543591239E-005
  0.10330000000000003         -2.7054260499426164E-005
  0.10440000000000002         -2.8608115826500580E-005
  0.10550000000000001         -2.9934164558653720E-005
  0.10660000000000003         -3.1014380510896444E-005
  0.10770000000000002         -3.1833740649744868E-005
  0.10880000000000001         -3.2380750781157985E-005
  0.10990000000000003         -3.2647563784848899E-005
  0.11100000000000002         -3.2629799534333870E-005
  0.11210000000000001         -3.2326403015758842E-005
  0.11320000000000002         -3.1739789847051725E-005
  0.11430000000000001         -3.0876235541654751E-005
  0.11540000000000003         -2.9746050131507218E-005
  0.11650000000000002         -2.8363298042677343E-005
  0.11760000000000001         -2.6745157811092213E-005
  0.11870000000000003         -2.4911376385716721E-005
  0.11980000000000002         -2.2884094505570829E-005
  0.12090000000000001         -2.0687941287178546E-005
  0.12200000000000003         -1.8349928723182529E-005
  0.12310000000000001         -1.5898836863925681E-005
  0.12420000000000003         -1.3364284313865937E-005
  0.12530000000000002         -1.0775944247143343E-005
  0.12640000000000001         -8.1632606452330947E-006
  0.12750000000000003         -5.5554778555233497E-006
  0.12860000000000002         -2.9814912068104604E-006
  0.12970000000000001         -4.6920467866584659E-007
  0.13080000000000003          1.9553833681129618E-006
  0.13190000000000002          4.2688229768828023E-006
  0.13300000000000001          6.4502664827159606E-006
  0.13410000000000000          8.4811781562166288E-006
  0.13520000000000004          1.0345242117182352E-005
  0.13630000000000003          1.2028775927319657E-005
  0.13740000000000002          1.3521382243197877E-005
  0.13850000000000001          1.4816243492532521E-005
  0.13960000000000000          1.5909790818113834E-005
  0.14070000000000005          1.6801050151116215E-005
  0.14180000000000004          1.7491260223323479E-005
  0.14290000000000003          1.7984039004659280E-005
  0.14400000000000002          1.8285732949152589E-005
  0.14510000000000001          1.8405418813927099E-005
  0.14620000000000000          1.8354259736952372E-005
  0.14730000000000004          1.8144659406971186E-005
  0.14840000000000003          1.7789760022424161E-005
  0.14950000000000002          1.7303533240919933E-005
  0.15060000000000001          1.6701051208656281E-005
  0.15170000000000000          1.5998335584299639E-005
  0.15280000000000005          1.5211669960990548E-005
  0.15390000000000004          1.4356772226165049E-005
  0.15500000000000003          1.3448452591546811E-005
  0.15610000000000002          1.2500867342168931E-005
  0.15720000000000001          1.1527876267791726E-005
  0.15830000000000000          1.0542952622927260E-005
  0.15940000000000004          9.5585710369050503E-006
  0.16050000000000003          8.5855990619165823E-006
  0.16160000000000002          7.6332298704073764E-006
  0.16270000000000001          6.7094565565639641E-006
  0.16380000000000000          5.8215427998220548E-006
  0.16490000000000005          4.9759728426579386E-006
  0.16600000000000004          4.1779376260819845E-006
  0.16710000000000003          3.4309412058064481E-006
  0.16820000000000002          2.7370024326955900E-006
  0.16930000000000001          2.0973109258193290E-006
  0.17040000000000000          1.5127316146390513E-006
  0.17150000000000004          9.8370412615622627E-007
  0.17260000000000003          5.0973989118574536E-007
  0.17370000000000002          8.9150233861801098E-008
  0.17480000000000001         -2.8059520218448597E-007
  0.17590000000000000         -6.0215211306058336E-007
  0.17700000000000005         -8.7788993141657556E-007
  0.17810000000000004         -1.1101375321231899E-006
  0.17920000000000003         -1.3017480569033069E-006
  0.18030000000000002         -1.4563040622306289E-006
  0.18140000000000001         -1.5776629425090505E-006
  0.18250000000000000         -1.6692534927642555E-006
  0.18360000000000004         -1.7338138604827691E-006
  0.18470000000000003         -1.7738132100930670E-006
  0.18580000000000002         -1.7920801838045008E-006
  0.18690000000000001         -1.7919364836416207E-006
  0.18800000000000000         -1.7766533346730284E-006
  0.18910000000000005         -1.7487736840848811E-006
  0.19020000000000004         -1.7100012428272748E-006
  0.19130000000000003         -1.6617759683867916E-006
  0.19240000000000002         -1.6059361769293901E-006
  0.19350000000000001         -1.5447679970748140E-006
  0.19460000000000005         -1.4803881640546024E-006
  0.19570000000000004         -1.4141104429654661E-006
  0.19680000000000003         -1.3464741641655564E-006
  0.19790000000000002         -1.2779169082932640E-006
  0.19900000000000001         -1.2093935310986126E-006
  0.20010000000000000         -1.1422877150835120E-006
  0.20120000000000005         -1.0777089300972875E-006
  0.20230000000000004         -1.0159207022297778E-006
  0.20340000000000003         -9.5652228537801420E-007
  0.20450000000000002         -8.9921547896665288E-007
  0.20560000000000000         -8.4436635461315745E-007
  0.20670000000000005         -7.9277810982603114E-007
  0.20780000000000004         -7.4491845225566067E-007
  0.20890000000000003         -7.0042563038441585E-007
