 -0.12000000000000000          0.0000000000000000
 -0.11889999999999999          0.0000000000000000
 -0.11780000000000000          0.0000000000000000
 -0.11670000000000000          0.0000000000000000
 -0.11559999999999999          0.0000000000000000
 -0.11449999999999999          0.0000000000000000
 -0.11340000000000000          0.0000000000000000
 -0.11230000000000000          0.0000000000000000
 -0.11119999999999999          0.0000000000000000
 -0.11009999999999999          0.0000000000000000
 -0.10900000000000000          0.0000000000000000
 -0.10790000000000000          0.0000000000000000
 -0.10679999999999999          3.3111721603305597E-032
 -0.10569999999999999          1.8033727152914080E-030
 -0.10460000000000000          3.0618395135416280E-029
 -0.10349999999999999          2.8850950568005778E-028
 -0.10239999999999999          1.6925883167781616E-027
 -0.10130000000000000          6.6018852415292950E-027
 -0.10020000000000000          1.7475418388463348E-026
  -9.9099999999999994E-002     2.8173338309720372E-026
  -9.7999999999999990E-002     1.7801449439098941E-027
  -9.6899999999999986E-002    -1.5201154893572921E-025
  -9.5799999999999996E-002    -4.8573917954138154E-025
  -9.4699999999999993E-002    -5.6889557135867037E-025
  -9.3599999999999989E-002     9.5959180296289288E-025
  -9.2499999999999999E-002     4.3793869533138667E-024
  -9.1399999999999995E-002     2.3671270296876379E-024
  -9.0299999999999991E-002    -1.9283832623594279E-023
  -8.9200000000000002E-002    -4.3469782596307624E-023
  -8.8099999999999984E-002     3.5567661934512881E-023
  -8.6999999999999994E-002     3.0249301813209586E-022
  -8.5899999999999990E-002     3.5415083613668653E-022
  -8.4799999999999986E-002    -9.1456418652842476E-022
  -8.3699999999999997E-002    -3.4600367255853607E-021
  -8.2599999999999993E-002    -2.1130044000434743E-021
  -8.1499999999999989E-002     1.1803903691842218E-020
  -8.0399999999999999E-002     3.1018917541569081E-020
  -7.9299999999999995E-002     7.1160110509756530E-021
  -7.8199999999999992E-002    -1.1338128467112551E-019
  -7.7100000000000002E-002    -2.3235076891611200E-019
  -7.5999999999999984E-002     2.1663191389690363E-020
  -7.4899999999999994E-002     9.1776702259008798E-019
  -7.3799999999999991E-002     1.5617782078654452E-018
  -7.2699999999999987E-002    -5.4766811516281066E-019
  -7.1599999999999997E-002    -6.6022260179241645E-018
  -7.0499999999999993E-002    -1.0072833917867497E-017
  -6.9399999999999989E-002     4.4784302826172216E-018
  -6.8300000000000000E-002     4.2607163453932647E-017
  -6.7199999999999996E-002     6.4096922030088731E-017
  -6.6099999999999992E-002    -2.0024877959606325E-017
  -6.5000000000000002E-002    -2.4296944215620553E-016
  -6.3899999999999985E-002    -3.9287698905413678E-016
  -6.2799999999999995E-002     7.8327924231269456E-018
  -6.1699999999999991E-002     1.1937126270162896E-015
  -6.0599999999999994E-002     2.2165865436261489E-015
  -5.9499999999999990E-002     7.2377461859398588E-016
  -5.8399999999999994E-002    -4.8777362120363491E-015
  -5.7299999999999990E-002    -1.1085075287970824E-014
  -5.6199999999999986E-002    -7.4532368734355099E-015
  -5.5099999999999996E-002     1.5476596377074839E-014
  -5.3999999999999992E-002     4.7865770862968310E-014
  -5.2899999999999989E-002     4.8693111988264842E-014
  -5.1799999999999985E-002    -3.0135152050613997E-014
  -5.0699999999999995E-002    -1.7411502198794865E-013
  -4.9599999999999991E-002    -2.4383408703601561E-013
  -4.8499999999999988E-002    -2.9899703996331614E-014
  -4.7399999999999998E-002     5.1207329392413681E-013
  -4.6299999999999994E-002     9.8658787302946527E-013
  -4.5199999999999990E-002     6.1227536712546438E-013
  -4.4099999999999986E-002    -1.0904913040274411E-012
  -4.2999999999999997E-002    -3.2617279103336339E-012
  -4.1899999999999993E-002    -3.4156804988583200E-012
  -4.0799999999999989E-002     8.8026634592619502E-013
  -3.9699999999999985E-002     8.6311383387660534E-012
  -3.8599999999999995E-002     1.3218857432273357E-011
  -3.7499999999999992E-002     5.5007604374268659E-012
  -3.6399999999999988E-002    -1.6783885045668079E-011
  -3.5299999999999984E-002    -3.9611588315002777E-011
  -3.4199999999999994E-002    -3.5320260605153919E-011
  -3.3099999999999991E-002     1.5339113659806891E-011
  -3.1999999999999987E-002     9.2402849261041808E-011
  -3.0899999999999997E-002     1.2754497458189462E-010
  -2.9799999999999993E-002     4.5309530433135237E-011
  -2.8699999999999989E-002    -1.5442618017669218E-010
  -2.7599999999999986E-002    -3.3791366926827493E-010
  -2.6499999999999996E-002    -2.8879218461064227E-010
  -2.5399999999999992E-002     1.0959428503598545E-010
  -2.4299999999999988E-002     6.7434363648644080E-010
  -2.3199999999999985E-002     9.1689644765580169E-010
  -2.2099999999999995E-002     3.6667058278538889E-010
  -2.0999999999999991E-002    -9.1535529156416828E-010
  -1.9899999999999987E-002    -2.0680903656256078E-009
  -1.8799999999999983E-002    -1.8427650516628091E-009
  -1.7699999999999994E-002     3.3718272618443734E-010
  -1.6599999999999990E-002     3.4065761322921162E-009
  -1.5499999999999986E-002     4.8337023272893020E-009
  -1.4399999999999996E-002     2.3755040157169560E-009
  -1.3299999999999992E-002    -3.5511169560464850E-009
  -1.2199999999999989E-002    -8.9654852430953724E-009
  -1.1099999999999985E-002    -8.5093541102310155E-009
  -9.9999999999999950E-003    -8.2055759756394231E-012
  -8.8999999999999913E-003     1.2019151007791606E-008
  -7.7999999999999875E-003     1.7829055565243834E-008
  -6.6999999999999837E-003     9.6112726666319759E-009
  -5.5999999999999939E-003    -1.0273144113170929E-008
  -4.4999999999999901E-003    -2.7577769401432306E-008
  -3.3999999999999864E-003    -2.5274625059523714E-008
  -2.2999999999999826E-003     1.1416334544378515E-009
  -1.1999999999999927E-003     3.4689296768419808E-008
  -9.9999999999988987E-005     4.5489120026331875E-008
   1.0000000000000148E-003     1.5211989889962751E-008
   2.1000000000000185E-003    -4.0568821191300231E-008
   3.2000000000000084E-003    -7.4936401972536260E-008
   4.3000000000000121E-003    -4.4213734895492962E-008
   5.4000000000000159E-003     4.7036841976932919E-008
   6.5000000000000058E-003     1.3080999394787796E-007
   7.6000000000000234E-003     1.1698792690140181E-007
   8.7000000000000133E-003    -2.6630754490497566E-008
   9.8000000000000032E-003    -2.1779075609629217E-007
   1.0900000000000021E-002    -2.9046918825770263E-007
   1.2000000000000011E-002    -1.1807625099891084E-007
   1.3100000000000001E-002     2.5067791398214467E-007
   1.4200000000000018E-002     5.6476079635103815E-007
   1.5300000000000008E-002     5.1838554782079882E-007
   1.6400000000000026E-002     3.3274500932378714E-009
   1.7500000000000016E-002    -7.2261292416442302E-007
   1.8600000000000005E-002    -1.1286524568276946E-006
   1.9700000000000023E-002    -7.7061736192263197E-007
   2.0800000000000013E-002     3.0912050874576380E-007
   2.1900000000000003E-002     1.4710598179590306E-006
   2.3000000000000020E-002     1.8342581142860581E-006
   2.4100000000000010E-002     9.2642733307002345E-007
   2.5200000000000000E-002    -8.3927028526886716E-007
   2.6300000000000018E-002    -2.3007482923276257E-006
   2.7400000000000008E-002    -2.3253294330061181E-006
   2.8500000000000025E-002    -7.2146190177591052E-007
   2.9600000000000015E-002     1.4532143950418686E-006
   3.0700000000000005E-002     2.5715080482768826E-006
   3.1800000000000023E-002     1.7206671145686414E-006
   3.2900000000000013E-002    -4.0299929082721064E-007
   3.4000000000000002E-002    -1.8622279185365187E-006
   3.5100000000000020E-002    -1.0607550393615384E-006
   3.6200000000000010E-002     1.6142602135005291E-006
   3.7300000000000028E-002     3.5939369809057098E-006
   3.8400000000000017E-002     1.9709023035829887E-006
   3.9500000000000007E-002    -3.7058073303342098E-006
   4.0600000000000025E-002    -9.9536400739452802E-006
   4.1700000000000015E-002    -1.0967149137286469E-005
   4.2800000000000005E-002    -2.9006998829572694E-006
   4.3900000000000022E-002     1.2018307643302251E-005
   4.5000000000000012E-002     2.5051189368241467E-005
   4.6100000000000002E-002     2.5608822397771291E-005
   4.7200000000000020E-002     8.6968138930387795E-006
   4.8300000000000010E-002    -1.9882943888660520E-005
   4.9400000000000027E-002    -4.4918495404999703E-005
   5.0500000000000017E-002    -4.9968042731052265E-005
   5.1600000000000007E-002    -2.7638445317279547E-005
   5.2700000000000025E-002     1.4732048839505296E-005
   5.3800000000000014E-002     5.7965400628745556E-005
   5.4900000000000004E-002     8.0793965025804937E-005
   5.6000000000000022E-002     7.0298505306709558E-005
   5.7100000000000012E-002     2.7074582249042578E-005
   5.8200000000000002E-002    -3.6273413570597768E-005
   5.9300000000000019E-002    -9.9880846391897649E-005
   6.0400000000000009E-002    -1.4052369806449860E-004
   6.1500000000000027E-002    -1.3469341502059251E-004
   6.2600000000000017E-002    -6.5279426053166389E-005
   6.3700000000000007E-002     6.4999840105883777E-005
   6.4800000000000024E-002     2.1875854872632772E-004
   6.5900000000000014E-002     3.2238062703981996E-004
   6.7000000000000004E-002     2.9197649564594030E-004
   6.8100000000000022E-002     8.5082145233172923E-005
   6.9200000000000012E-002    -2.4828701862134039E-004
   7.0300000000000029E-002    -5.5617140606045723E-004
   7.1400000000000019E-002    -6.4429652411490679E-004
   7.2500000000000009E-002    -3.8997762021608651E-004
   7.3600000000000027E-002     1.5229918062686920E-004
   7.4700000000000016E-002     7.3280121432617307E-004
   7.5800000000000006E-002     1.0165518615394831E-003
   7.6900000000000024E-002     7.8045210102573037E-004
   7.8000000000000014E-002     8.1862817751243711E-005
   7.9100000000000004E-002    -7.2613864904269576E-004
   8.0200000000000021E-002    -1.1769739212468266E-003
   8.1300000000000011E-002    -9.8208629060536623E-004
   8.2400000000000029E-002    -2.4631017004139721E-004
   8.3500000000000019E-002     5.6016491726040840E-004
   8.4600000000000009E-002     8.9512491831555963E-004
   8.5700000000000026E-002     5.3376686992123723E-004
   8.6800000000000016E-002    -2.1867791656404734E-004
   8.7900000000000006E-002    -6.8501313216984272E-004
   8.9000000000000024E-002    -2.9852395527996123E-004
   9.0100000000000013E-002     8.9182076044380665E-004
   9.1200000000000003E-002     2.0786426030099392E-003
   9.2300000000000021E-002     2.1157588344067335E-003
   9.3400000000000011E-002     3.2622873550280929E-004
   9.4500000000000028E-002    -2.8035920113325119E-003
   9.5600000000000018E-002    -5.5836262181401253E-003
   9.6700000000000008E-002    -5.9334179386496544E-003
   9.7800000000000026E-002    -2.6972058694809675E-003
   9.8900000000000016E-002     3.3148147631436586E-003
  0.10000000000000001          9.3167973682284355E-003
  0.10110000000000002          1.1800839565694332E-002
  0.10220000000000001          8.5124140605330467E-003
  0.10330000000000003          4.8992049414664507E-005
  0.10440000000000002         -9.9669173359870911E-003
  0.10550000000000001         -1.6475271433591843E-002
  0.10660000000000003         -1.5638343989849091E-002
  0.10770000000000002         -7.1443496271967888E-003
  0.10880000000000001          5.2427751943469048E-003
  0.10990000000000003          1.5409670770168304E-002
  0.11100000000000002          1.8128616735339165E-002
  0.11210000000000001          1.2057338841259480E-002
  0.11320000000000002          7.1408652001991868E-004
  0.11430000000000001         -9.3437368050217628E-003
  0.11540000000000003         -1.2314015999436378E-002
  0.11650000000000002         -6.8060928024351597E-003
  0.11760000000000001          2.9226564802229404E-003
  0.11870000000000003          9.2327892780303955E-003
  0.11980000000000002          5.9206821024417877E-003
  0.12090000000000001         -7.1179815568029881E-003
  0.12200000000000003         -2.2441988810896873E-002
  0.12310000000000001         -2.8397759422659874E-002
  0.12420000000000003         -1.6036186367273331E-002
  0.12530000000000002          1.4111125841736794E-002
  0.12640000000000001          4.9788381904363632E-002
  0.12750000000000003          7.1714729070663452E-002
  0.12860000000000002          6.3725583255290985E-002
  0.12970000000000001          2.3109355941414833E-002
  0.13080000000000003         -3.5273108631372452E-002
  0.13190000000000002         -8.4828555583953857E-002
  0.13300000000000001        -0.10121702402830124
  0.13410000000000000         -7.7233649790287018E-002
  0.13520000000000004         -2.9521545395255089E-002
  0.13630000000000003          8.3162114024162292E-003
  0.13740000000000002          3.9467392489314079E-003
  0.13850000000000001         -5.3884554654359818E-002
  0.13960000000000000        -0.14616458117961884
  0.14070000000000005        -0.23226061463356018
  0.14180000000000004        -0.27329540252685547
  0.14290000000000003        -0.25738471746444702
  0.14400000000000002        -0.21105881035327911
  0.14510000000000001        -0.18806734681129456
  0.14620000000000000        -0.24016495048999786
  0.14730000000000004        -0.38646924495697021
  0.14840000000000003        -0.60070532560348511
  0.14950000000000002        -0.82619571685791016
  0.15060000000000001         -1.0116212368011475
  0.15170000000000000         -1.1465753316879272
  0.15280000000000005         -1.2741011381149292
  0.15390000000000004         -1.4701610803604126
  0.15500000000000003         -1.8006250858306885
  0.15610000000000002         -2.2819068431854248
  0.15720000000000001         -2.8715248107910156
  0.15830000000000000         -3.4978017807006836
  0.15940000000000004         -4.1130890846252441
  0.16050000000000003         -4.7381582260131836
  0.16160000000000002         -5.4678497314453125
  0.16270000000000001         -6.4299998283386230
  0.16380000000000000         -7.7192840576171875
  0.16490000000000005         -9.3453111648559570
  0.16600000000000004         -11.229371070861816
  0.16710000000000003         -13.256517410278320
  0.16820000000000002         -15.356081962585449
  0.16930000000000001         -17.563543319702148
  0.17040000000000000         -20.025259017944336
  0.17150000000000004         -22.938791275024414
  0.17260000000000003         -26.460124969482422
  0.17370000000000002         -30.630620956420898
  0.17480000000000001         -35.367641448974609
  0.17590000000000000         -40.525859832763672
  0.17700000000000005         -45.997493743896484
  0.17810000000000004         -51.790718078613281
  0.17920000000000003         -58.042068481445312
  0.18030000000000002         -64.952789306640625
  0.18140000000000001         -72.682182312011719
  0.18250000000000000         -81.258872985839844
  0.18360000000000004         -90.563819885253906
  0.18470000000000003         -100.39129638671875
  0.18580000000000002         -110.55891418457031
  0.18690000000000001         -120.99866485595703
  0.18800000000000000         -131.77493286132812
  0.18910000000000005         -143.01815795898438
  0.19020000000000004         -154.80957031250000
  0.19130000000000003         -167.07922363281250
  0.19240000000000002         -179.57519531250000
  0.19350000000000001         -191.92848205566406
  0.19460000000000005         -203.77529907226562
  0.19570000000000004         -214.86439514160156
  0.19680000000000003         -225.08616638183594
  0.19790000000000002         -234.41328430175781
  0.19900000000000001         -242.77830505371094
  0.20010000000000000         -249.96646118164062
  0.20120000000000005         -255.57762145996094
  0.20230000000000004         -259.09762573242188
  0.20340000000000003         -260.02734375000000
  0.20450000000000002         -257.99993896484375
  0.20560000000000000         -252.82353210449219
  0.20670000000000005         -244.40290832519531
  0.20780000000000004         -232.62268066406250
  0.20890000000000003         -217.24316406250000
