 -0.12000000000000000          0.0000000000000000
 -0.11889999999999999          0.0000000000000000
 -0.11780000000000000          0.0000000000000000
 -0.11670000000000000          0.0000000000000000
 -0.11559999999999999          0.0000000000000000
 -0.11449999999999999          0.0000000000000000
 -0.11340000000000000         -4.6963895285236372E-016
 -0.11230000000000000         -1.4617374625709549E-015
 -0.11119999999999999          4.0486222467812135E-015
 -0.11009999999999999          2.9919026511924379E-014
 -0.10900000000000000          4.8570739444309119E-014
 -0.10790000000000000         -8.5524848921630925E-014
 -0.10679999999999999         -5.1571599638325361E-013
 -0.10569999999999999         -8.2679138058497359E-013
 -0.10460000000000000          4.2385211551469737E-013
 -0.10349999999999999          4.4178202762701346E-012
 -0.10239999999999999          8.1988157582535415E-012
 -0.10130000000000000          2.1727955806100097E-012
 -0.10020000000000000         -2.2303285954206054E-011
  -9.9099999999999994E-002    -5.2697100155763010E-011
  -9.7999999999999990E-002    -4.1800486683118976E-011
  -9.6899999999999986E-002     6.2074088924557458E-011
  -9.5799999999999996E-002     2.3072065091778171E-010
  -9.4699999999999993E-002     2.8824287401363335E-010
  -9.3599999999999989E-002    -6.3106880832108914E-012
  -9.2499999999999999E-002    -6.7336708431398051E-010
  -9.1399999999999995E-002    -1.2262050264055802E-009
  -9.0299999999999991E-002    -7.9965983834640042E-010
  -8.9200000000000002E-002     1.0721938892288563E-009
  -8.8099999999999984E-002     3.4756200140151350E-009
  -8.6999999999999994E-002     4.0385383925922724E-009
  -8.5899999999999990E-002     5.8918397938256817E-010
  -8.4799999999999986E-002    -6.1589338073986255E-009
  -8.3699999999999997E-002    -1.1367201402379123E-008
  -8.2599999999999993E-002    -8.6729912140981469E-009
  -8.1499999999999989E-002     3.9474241653181252E-009
  -8.0399999999999999E-002     1.9674313733730742E-008
  -7.9299999999999995E-002     2.5292012040267764E-008
  -7.8199999999999992E-002     1.1372868868875230E-008
  -7.7100000000000002E-002    -1.6991485551898222E-008
  -7.5999999999999984E-002    -3.9781916427727992E-008
  -7.4899999999999994E-002    -3.6297908678761814E-008
  -7.3799999999999991E-002    -4.6207508930251606E-009
  -7.2699999999999987E-002     3.1943603318040914E-008
  -7.1599999999999997E-002     4.2114312037710988E-008
  -7.0499999999999993E-002     1.6657091705951643E-008
  -6.9399999999999989E-002    -1.6891208431957239E-008
  -6.8300000000000000E-002    -1.5532089392422677E-008
  -6.7199999999999996E-002     3.3254856646180997E-008
  -6.6099999999999992E-002     8.3053556920731353E-008
  -6.5000000000000002E-002     5.5687898736778152E-008
  -6.3899999999999985E-002    -8.3564827946247533E-008
  -6.2799999999999995E-002    -2.6354715032539389E-007
  -6.1699999999999991E-002    -3.2687276529941300E-007
  -6.0599999999999994E-002    -1.4288225713698921E-007
  -5.9499999999999990E-002     2.6099007754964987E-007
  -5.8399999999999994E-002     6.6311378077443806E-007
  -5.7299999999999990E-002     7.6454853115137666E-007
  -5.6199999999999986E-002     3.9737480506119027E-007
  -5.5099999999999996E-002    -3.2465376875734364E-007
  -5.3999999999999992E-002    -1.0371869620939833E-006
  -5.2899999999999989E-002    -1.3327770602700184E-006
  -5.1799999999999985E-002    -1.0055804295916460E-006
  -5.0699999999999995E-002    -1.6588553819474328E-007
  -4.9599999999999991E-002     8.4081949580649962E-007
  -4.8499999999999988E-002     1.6288462347802124E-006
  -4.7399999999999998E-002     1.9316041743877577E-006
  -4.6299999999999994E-002     1.6374402775909402E-006
  -4.5199999999999990E-002     7.4260918836444034E-007
  -4.4099999999999986E-002    -6.6521101871330757E-007
  -4.2999999999999997E-002    -2.3316481474466855E-006
  -4.1899999999999993E-002    -3.7389854696812108E-006
  -4.0799999999999989E-002    -4.1467492337687872E-006
  -3.9699999999999985E-002    -2.8774973088729894E-006
  -3.8599999999999995E-002     2.2133403376756178E-007
  -3.7499999999999992E-002     4.3960621951555368E-006
  -3.6399999999999988E-002     7.9986166383605450E-006
  -3.5299999999999984E-002     9.0552366600604728E-006
  -3.4199999999999994E-002     6.2462631831294857E-006
  -3.3099999999999991E-002    -1.6293972748826491E-007
  -3.1999999999999987E-002    -8.0182762758340687E-006
  -3.0899999999999997E-002    -1.3961845979792997E-005
  -2.9799999999999993E-002    -1.4950760487408843E-005
  -2.8699999999999989E-002    -9.8940672614844516E-006
  -2.7599999999999986E-002    -4.5829938244423829E-007
  -2.6499999999999996E-002     9.5640643849037588E-006
  -2.5399999999999992E-002     1.6114374375320040E-005
  -2.4299999999999988E-002     1.6943020455073565E-005
  -2.3199999999999985E-002     1.2666255315707531E-005
  -2.2099999999999995E-002     6.1645350797334686E-006
  -2.0999999999999991E-002     7.4477742373346700E-007
  -1.9899999999999987E-002    -1.7097214595196419E-006
  -1.8799999999999983E-002    -1.4219592685549287E-006
  -1.7699999999999994E-002     7.9728167179382581E-008
  -1.6599999999999990E-002     1.5156457493503694E-006
  -1.5499999999999986E-002     2.9662201086466666E-006
  -1.4399999999999996E-002     5.7639408623799682E-006
  -1.3299999999999992E-002     1.1324363185849506E-005
  -1.2199999999999989E-002     1.9812810933217406E-005
  -1.1099999999999985E-002     2.9596745662274770E-005
  -9.9999999999999950E-003     3.7863410398131236E-005
  -8.8999999999999913E-003     4.2061521526193246E-005
  -7.7999999999999875E-003     4.1409337427467108E-005
  -6.6999999999999837E-003     3.7736139347543940E-005
  -5.5999999999999939E-003     3.5238663258496672E-005
  -4.4999999999999901E-003     3.9142374589573592E-005
  -3.3999999999999864E-003     5.3669202316086739E-005
  -2.2999999999999826E-003     8.0071557022165507E-005
  -1.1999999999999927E-003     1.1565411841729656E-004
  -9.9999999999988987E-005     1.5446571342181414E-004
   1.0000000000000148E-003     1.8965142953675240E-004
   2.1000000000000185E-003     2.1658455079887062E-004
   3.2000000000000084E-003     2.3536331718787551E-004
   4.3000000000000121E-003     2.5140526122413576E-004
   5.4000000000000159E-003     2.7371483156457543E-004
   6.5000000000000058E-003     3.1146165565587580E-004
   7.6000000000000234E-003     3.7030328530818224E-004
   8.7000000000000133E-003     4.5004813000559807E-004
   9.8000000000000032E-003     5.4477382218465209E-004
   1.0900000000000021E-002     6.4553780248388648E-004
   1.2000000000000011E-002     7.4463669443503022E-004
   1.3100000000000001E-002     8.3952146815136075E-004
   1.4200000000000018E-002     9.3438581097871065E-004
   1.5300000000000008E-002     1.0384279303252697E-003
   1.6400000000000026E-002     1.1615458643063903E-003
   1.7500000000000016E-002     1.3096670154482126E-003
   1.8600000000000005E-002     1.4821928925812244E-003
   1.9700000000000023E-002     1.6727366019040346E-003
   2.0800000000000013E-002     1.8724239198490977E-003
   2.1900000000000003E-002     2.0737021695822477E-003
   2.3000000000000020E-002     2.2727802861481905E-003
   2.4100000000000010E-002     2.4700928479433060E-003
   2.5200000000000000E-002     2.6693497784435749E-003
   2.6300000000000018E-002     2.8758798725903034E-003
   2.7400000000000008E-002     3.0945271719247103E-003
   2.8500000000000025E-002     3.3270320855081081E-003
   2.9600000000000015E-002     3.5693396348506212E-003
   3.0700000000000005E-002     3.8102143444120884E-003
   3.1800000000000023E-002     4.0329978801310062E-003
   3.2900000000000013E-002     4.2203753255307674E-003
   3.4000000000000002E-002     4.3605142273008823E-003
   3.5100000000000020E-002     4.4510019943118095E-003
   3.6200000000000010E-002     4.4980216771364212E-003
   3.7300000000000028E-002     4.5107686892151833E-003
   3.8400000000000017E-002     4.4938051141798496E-003
   3.9500000000000007E-002     4.4412212446331978E-003
   4.0600000000000025E-002     4.3355622328817844E-003
   4.1700000000000015E-002     4.1519785299897194E-003
   4.2800000000000005E-002     3.8656219840049744E-003
   4.3900000000000022E-002     3.4597432240843773E-003
   4.5000000000000012E-002     2.9304036870598793E-003
   4.6100000000000002E-002     2.2862385958433151E-003
   4.7200000000000020E-002     1.5431762440130115E-003
   4.8300000000000010E-002     7.1612140163779259E-004
   4.9400000000000027E-002    -1.8809610628522933E-004
   5.0500000000000017E-002    -1.1727641103789210E-003
   5.1600000000000007E-002    -2.2484334185719490E-003
   5.2700000000000025E-002    -3.4266600850969553E-003
   5.3800000000000014E-002    -4.7131562605500221E-003
   5.4900000000000004E-002    -6.1040283180773258E-003
   5.6000000000000022E-002    -7.5845206156373024E-003
   5.7100000000000012E-002    -9.1296648606657982E-003
   5.8200000000000002E-002    -1.0706276632845402E-002
   5.9300000000000019E-002    -1.2276485562324524E-002
   6.0400000000000009E-002    -1.3803824782371521E-002
   6.1500000000000027E-002    -1.5260050073266029E-002
   6.2600000000000017E-002    -1.6628904268145561E-002
   6.3700000000000007E-002    -1.7903653904795647E-002
   6.4800000000000024E-002    -1.9077731296420097E-002
   6.5900000000000014E-002    -2.0134629681706429E-002
   6.7000000000000004E-002    -2.1042529493570328E-002
   6.8100000000000022E-002    -2.1758243441581726E-002
   6.9200000000000012E-002    -2.2236384451389313E-002
   7.0300000000000029E-002    -2.2439476102590561E-002
   7.1400000000000019E-002    -2.2342924028635025E-002
   7.2500000000000009E-002    -2.1933881565928459E-002
   7.3600000000000027E-002    -2.1207734942436218E-002
   7.4700000000000016E-002    -2.0165877416729927E-002
   7.5800000000000006E-002    -1.8814248964190483E-002
   7.6900000000000024E-002    -1.7162723466753960E-002
   7.8000000000000014E-002    -1.5223315916955471E-002
   7.9100000000000004E-002    -1.3008406385779381E-002
   8.0200000000000021E-002    -1.0531396605074406E-002
   8.1300000000000011E-002    -7.8104329295456409E-003
   8.2400000000000029E-002    -4.8726196400821209E-003
   8.3500000000000019E-002    -1.7556843813508749E-003
   8.4600000000000009E-002     1.4941854169592261E-003
   8.5700000000000026E-002     4.8259971663355827E-003
   8.6800000000000016E-002     8.1862835213541985E-003
   8.7900000000000006E-002     1.1518363840878010E-002
   8.9000000000000024E-002     1.4762019738554955E-002
   9.0100000000000013E-002     1.7856130376458168E-002
   9.1200000000000003E-002     2.0743746310472488E-002
   9.2300000000000021E-002     2.3376043885946274E-002
   9.3400000000000011E-002     2.5713063776493073E-002
   9.4500000000000028E-002     2.7718387544155121E-002
   9.5600000000000018E-002     2.9355134814977646E-002
   9.6700000000000008E-002     3.0585315078496933E-002
   9.7800000000000026E-002     3.1375639140605927E-002
   9.8900000000000016E-002     3.1702801585197449E-002
  0.10000000000000001          3.1555488705635071E-002
  0.10110000000000002          3.0931757763028145E-002
  0.10220000000000001          2.9835676774382591E-002
  0.10330000000000003          2.8277553617954254E-002
  0.10440000000000002          2.6278585195541382E-002
  0.10550000000000001          2.3874519392848015E-002
  0.10660000000000003          2.1113989874720573E-002
  0.10770000000000002          1.8052453175187111E-002
  0.10880000000000001          1.4745422638952732E-002
  0.10990000000000003          1.1246806010603905E-002
  0.11100000000000002          7.6133464463055134E-003
  0.11210000000000001          3.9085447788238525E-003
  0.11320000000000002          2.0218099234625697E-004
  0.11430000000000001         -3.4359700512140989E-003
  0.11540000000000003         -6.9416747428476810E-003
  0.11650000000000002         -1.0256844572722912E-002
  0.11760000000000001         -1.3323917984962463E-002
  0.11870000000000003         -1.6081169247627258E-002
  0.11980000000000002         -1.8464460968971252E-002
  0.12090000000000001         -2.0415829494595528E-002
  0.12200000000000003         -2.1893184632062912E-002
  0.12310000000000001         -2.2873058915138245E-002
  0.12420000000000003         -2.3345524445176125E-002
  0.12530000000000002         -2.3306379094719887E-002
  0.12640000000000001         -2.2753650322556496E-002
  0.12750000000000003         -2.1690567955374718E-002
  0.12860000000000002         -2.0130535587668419E-002
  0.12970000000000001         -1.8098654225468636E-002
  0.13080000000000003         -1.5628509223461151E-002
  0.13190000000000002         -1.2756851501762867E-002
  0.13300000000000001         -9.5234680920839310E-003
  0.13410000000000000         -5.9761069715023041E-003
  0.13520000000000004         -2.1759278606623411E-003
  0.13630000000000003          1.8017537659034133E-003
  0.13740000000000002          5.8738039806485176E-003
  0.13850000000000001          9.9587244912981987E-003
  0.13960000000000000          1.3982349075376987E-002
  0.14070000000000005          1.7876172438263893E-002
  0.14180000000000004          2.1572753787040710E-002
  0.14290000000000003          2.5002026930451393E-002
  0.14400000000000002          2.8093539178371429E-002
  0.14510000000000001          3.0781047418713570E-002
  0.14620000000000000          3.3008072525262833E-002
  0.14730000000000004          3.4727361053228378E-002
  0.14840000000000003          3.5898827016353607E-002
  0.14950000000000002          3.6486327648162842E-002
  0.15060000000000001          3.6459717899560928E-002
  0.15170000000000000          3.5799022763967514E-002
  0.15280000000000005          3.4499708563089371E-002
  0.15390000000000004          3.2573290169239044E-002
  0.15500000000000003          3.0044466257095337E-002
  0.15610000000000002          2.6946386322379112E-002
  0.15720000000000001          2.3319270461797714E-002
  0.15830000000000000          1.9212255254387856E-002
  0.15940000000000004          1.4686458744108677E-002
  0.16050000000000003          9.8153240978717804E-003
  0.16160000000000002          4.6802898868918419E-003
  0.16270000000000001         -6.3425290863960981E-004
  0.16380000000000000         -6.0449992306530476E-003
  0.16490000000000005         -1.1468685232102871E-002
  0.16600000000000004         -1.6819115728139877E-002
  0.16710000000000003         -2.2005584090948105E-002
  0.16820000000000002         -2.6937797665596008E-002
  0.16930000000000001         -3.1530048698186874E-002
  0.17040000000000000         -3.5707633942365646E-002
  0.17150000000000004         -3.9404306560754776E-002
  0.17260000000000003         -4.2559538036584854E-002
  0.17370000000000002         -4.5115683227777481E-002
  0.17480000000000001         -4.7025237232446671E-002
  0.17590000000000000         -4.8257503658533096E-002
  0.17700000000000005         -4.8804670572280884E-002
  0.17810000000000004         -4.8678044229745865E-002
  0.17920000000000003         -4.7899253666400909E-002
  0.18030000000000002         -4.6491961926221848E-002
  0.18140000000000001         -4.4482160359621048E-002
  0.18250000000000000         -4.1905321180820465E-002
  0.18360000000000004         -3.8814354687929153E-002
  0.18470000000000003         -3.5277783870697021E-002
  0.18580000000000002         -3.1369920819997787E-002
  0.18690000000000001         -2.7162956073880196E-002
  0.18800000000000000         -2.2727344185113907E-002
  0.18910000000000005         -1.8138427287340164E-002
  0.19020000000000004         -1.3483398593962193E-002
  0.19130000000000003         -8.8562499731779099E-003
  0.19240000000000002         -4.3435711413621902E-003
  0.19350000000000001         -1.4729817849001847E-005
  0.19460000000000005          4.0780436247587204E-003
  0.19570000000000004          7.8894365578889847E-003
  0.19680000000000003          1.1370914988219738E-002
  0.19790000000000002          1.4471346512436867E-002
  0.19900000000000001          1.7149209976196289E-002
  0.20010000000000000          1.9382523372769356E-002
  0.20120000000000005          2.1169018000364304E-002
  0.20230000000000004          2.2515622898936272E-002
  0.20340000000000003          2.3428095504641533E-002
  0.20450000000000002          2.3911105468869209E-002
  0.20560000000000000          2.3978386074304581E-002
  0.20670000000000005          2.3660698905587196E-002
  0.20780000000000004          2.3003194481134415E-002
  0.20890000000000003          2.2053914144635201E-002
