 -0.12000000000000000          0.0000000000000000
 -0.11889999999999999          0.0000000000000000
 -0.11780000000000000          0.0000000000000000
 -0.11670000000000000          0.0000000000000000
 -0.11559999999999999          0.0000000000000000
 -0.11449999999999999         -1.8516669622571039E-017
 -0.11340000000000000         -1.9211677361149934E-016
 -0.11230000000000000         -7.8223704437171450E-016
 -0.11119999999999999         -1.5176268140131618E-015
 -0.11009999999999999         -5.7970532569434369E-016
 -0.10900000000000000          4.1013729176373696E-015
 -0.10790000000000000          9.4146229779657788E-015
 -0.10679999999999999          4.0590399049994941E-015
 -0.10569999999999999         -1.8967344513586004E-014
 -0.10460000000000000         -3.7495986946866483E-014
 -0.10349999999999999         -2.3596101743524056E-015
 -0.10239999999999999          9.2663412208128515E-014
 -0.10130000000000000          1.2355248118003925E-013
 -0.10020000000000000         -9.8306366031527398E-014
  -9.9099999999999994E-002    -5.0567064641474091E-013
  -9.7999999999999990E-002    -4.8590385187674556E-013
  -9.6899999999999986E-002     7.1954145116140400E-013
  -9.5799999999999996E-002     2.6727222865452482E-012
  -9.4699999999999993E-002     2.6722955445701579E-012
  -9.3599999999999989E-002    -2.6022873092501619E-012
  -9.2499999999999999E-002    -1.1896286039592141E-011
  -9.1399999999999995E-002    -1.4968026817996360E-011
  -9.0299999999999991E-002     2.4534491192135244E-012
  -8.9200000000000002E-002     4.0657487793138714E-011
  -8.8099999999999984E-002     6.7832343908502679E-011
  -8.6999999999999994E-002     2.9779602395141325E-011
  -8.5899999999999990E-002    -9.6137868499379664E-011
  -8.4799999999999986E-002    -2.3434812423950291E-010
  -8.3699999999999997E-002    -2.1307688946592407E-010
  -8.2599999999999993E-002     1.0129201644115682E-010
  -8.1499999999999989E-002     5.9505878002852342E-010
  -8.0399999999999999E-002     8.2985329719065248E-010
  -7.9299999999999995E-002     3.0530156180930135E-010
  -7.8199999999999992E-002    -9.9327490676870411E-010
  -7.7100000000000002E-002    -2.2086139583876729E-009
  -7.5999999999999984E-002    -1.9574890597340300E-009
  -7.4899999999999994E-002     4.9475451513458779E-010
  -7.3799999999999991E-002     4.0258183453545371E-009
  -7.2699999999999987E-002     5.7273057407769556E-009
  -7.1599999999999997E-002     2.9035081006156815E-009
  -7.0499999999999993E-002    -4.0941996459764596E-009
  -6.9399999999999989E-002    -1.0728681054672506E-008
  -6.8300000000000000E-002    -1.0784125592522287E-008
  -6.7199999999999996E-002    -1.5730894364907044E-009
  -6.6099999999999992E-002     1.2226323953257179E-008
  -6.5000000000000002E-002     2.0341513362609476E-008
  -6.3899999999999985E-002     1.4455538988045191E-008
  -6.2799999999999995E-002    -3.8917531419713214E-009
  -6.1699999999999991E-002    -2.2402081967243248E-008
  -6.0599999999999994E-002    -2.6655866847136167E-008
  -5.9499999999999990E-002    -1.2251494041493061E-008
  -5.8399999999999994E-002     1.0268897732146343E-008
  -5.7299999999999990E-002     2.3532690462957362E-008
  -5.6199999999999986E-002     1.8601140183704956E-008
  -5.5099999999999996E-002     3.3952654021618400E-009
  -5.3999999999999992E-002    -5.0917781102555182E-009
  -5.2899999999999989E-002     1.0648257831036290E-009
  -5.1799999999999985E-002     1.0226779423305743E-008
  -5.0699999999999995E-002     1.7827822551552686E-009
  -4.9599999999999991E-002    -2.9011612667773079E-008
  -4.8499999999999988E-002    -5.6780045554205572E-008
  -4.7399999999999998E-002    -4.2837701386133631E-008
  -4.6299999999999994E-002     2.4590500302679175E-008
  -4.5199999999999990E-002     1.0297227248656782E-007
  -4.4099999999999986E-002     1.1605693117644478E-007
  -4.2999999999999997E-002     1.9378886051413247E-008
  -4.1899999999999993E-002    -1.3966550227451080E-007
  -4.0799999999999989E-002    -2.2939123311971343E-007
  -3.9699999999999985E-002    -1.2645767810681718E-007
  -3.8599999999999995E-002     1.6341739694780699E-007
  -3.7499999999999992E-002     4.5712059204561228E-007
  -3.6399999999999988E-002     4.8518552375753643E-007
  -3.5299999999999984E-002     8.9872450814709737E-008
  -3.4199999999999994E-002    -5.9943505448245560E-007
  -3.3099999999999991E-002    -1.1606256293816841E-006
  -3.1999999999999987E-002    -1.0986063898599241E-006
  -3.0899999999999997E-002    -1.9241585391682747E-007
  -2.9799999999999993E-002     1.2461093774618348E-006
  -2.8699999999999989E-002     2.4121677597577218E-006
  -2.7599999999999986E-002     2.4057837890723022E-006
  -2.6499999999999996E-002     8.1897405834752135E-007
  -2.5399999999999992E-002    -1.8314774479222251E-006
  -2.4299999999999988E-002    -4.1635903471615165E-006
  -2.3199999999999985E-002    -4.5861347643949557E-006
  -2.2099999999999995E-002    -2.2830038233223604E-006
  -2.0999999999999991E-002     2.0398676952027017E-006
  -1.9899999999999987E-002     6.2070980675343890E-006
  -1.8799999999999983E-002     7.5974030551151372E-006
  -1.7699999999999994E-002     4.6988920985313598E-006
  -1.6599999999999990E-002    -1.7014801869663643E-006
  -1.5499999999999986E-002    -8.5411074906005524E-006
  -1.4399999999999996E-002    -1.1929027095902711E-005
  -1.3299999999999992E-002    -9.3353537522489205E-006
  -1.2199999999999989E-002    -1.2564119060698431E-006
  -1.1099999999999985E-002     8.7436901594628580E-006
  -9.9999999999999950E-003     1.5812076526344754E-005
  -8.8999999999999913E-003     1.6483063518535346E-005
  -7.7999999999999875E-003     1.0700392522267066E-005
  -6.6999999999999837E-003     1.9400938526814571E-006
  -5.5999999999999939E-003    -4.7152752813417464E-006
  -4.4999999999999901E-003    -5.4643146540911403E-006
  -3.3999999999999864E-003     6.2255494981400261E-008
  -2.2999999999999826E-003     8.6812424342497252E-006
  -1.1999999999999927E-003     1.5659990822314285E-005
  -9.9999999999988987E-005     1.7650500012678094E-005
   1.0000000000000148E-003     1.4772132090001833E-005
   2.1000000000000185E-003     1.0549667422310449E-005
   3.2000000000000084E-003     9.7192114481003955E-006
   4.3000000000000121E-003     1.5262627130141482E-005
   5.4000000000000159E-003     2.6566198357613757E-005
   6.5000000000000058E-003     3.9934730011736974E-005
   7.6000000000000234E-003     5.1182749302824959E-005
   8.7000000000000133E-003     5.8617613831302151E-005
   9.8000000000000032E-003     6.4375482907053083E-005
   1.0900000000000021E-002     7.3096147389151156E-005
   1.2000000000000011E-002     8.8711392891127616E-005
   1.3100000000000001E-002     1.1151754733873531E-004
   1.4200000000000018E-002     1.3767808559350669E-004
   1.5300000000000008E-002     1.6179357771761715E-004
   1.6400000000000026E-002     1.8107528740074486E-004
   1.7500000000000016E-002     1.9837530271615833E-004
   1.8600000000000005E-002     2.2178720973897725E-004
   1.9700000000000023E-002     2.6057232753373682E-004
   2.0800000000000013E-002     3.1956098973751068E-004
   2.1900000000000003E-002     3.9546057814732194E-004
   2.3000000000000020E-002     4.7771001118235290E-004
   2.4100000000000010E-002     5.5398279801011086E-004
   2.5200000000000000E-002     6.1755569186061621E-004
   2.6300000000000018E-002     6.7230872809886932E-004
   2.7400000000000008E-002     7.3205691296607256E-004
   2.8500000000000025E-002     8.1401539500802755E-004
   2.9600000000000015E-002     9.2968851095065475E-004
   3.0700000000000005E-002     1.0782220633700490E-003
   3.1800000000000023E-002     1.2461518635973334E-003
   3.2900000000000013E-002     1.4140966814011335E-003
   3.4000000000000002E-002     1.5667270636186004E-003
   3.5100000000000020E-002     1.7007362330332398E-003
   3.6200000000000010E-002     1.8262276425957680E-003
   3.7300000000000028E-002     1.9610465969890356E-003
   3.8400000000000017E-002     2.1209749393165112E-003
   3.9500000000000007E-002     2.3112681228667498E-003
   4.0600000000000025E-002     2.5234036147594452E-003
   4.1700000000000015E-002     2.7389673050493002E-003
   4.2800000000000005E-002     2.9374642763286829E-003
   4.3900000000000022E-002     3.1047866214066744E-003
   4.5000000000000012E-002     3.2374761067330837E-003
   4.6100000000000002E-002     3.3411798067390919E-003
   4.7200000000000020E-002     3.4245746210217476E-003
   4.8300000000000010E-002     3.4918687306344509E-003
   4.9400000000000027E-002     3.5390800330787897E-003
   5.0500000000000017E-002     3.5547141451388597E-003
   5.1600000000000007E-002     3.5250012297183275E-003
   5.2700000000000025E-002     3.4391977824270725E-003
   5.3800000000000014E-002     3.2914907205849886E-003
   5.4900000000000004E-002     3.0788858421146870E-003
   5.6000000000000022E-002     2.7970157098025084E-003
   5.7100000000000012E-002     2.4376371875405312E-003
   5.8200000000000002E-002     1.9902703352272511E-003
   5.9300000000000019E-002     1.4466396532952785E-003
   6.0400000000000009E-002     8.0581585643813014E-004
   6.1500000000000027E-002     7.4244060670025647E-005
   6.2600000000000017E-002    -7.3737691855058074E-004
   6.3700000000000007E-002    -1.6198963858187199E-003
   6.4800000000000024E-002    -2.5700516998767853E-003
   6.5900000000000014E-002    -3.5898287314921618E-003
   6.7000000000000004E-002    -4.6821064315736294E-003
   6.8100000000000022E-002    -5.8461637236177921E-003
   6.9200000000000012E-002    -7.0738415233790874E-003
   7.0300000000000029E-002    -8.3496440201997757E-003
   7.1400000000000019E-002    -9.6503347158432007E-003
   7.2500000000000009E-002    -1.0949529707431793E-002
   7.3600000000000027E-002    -1.2219876982271671E-002
   7.4700000000000016E-002    -1.3435550965368748E-002
   7.5800000000000006E-002    -1.4573840424418449E-002
   7.6900000000000024E-002    -1.5614351257681847E-002
   7.8000000000000014E-002    -1.6536768525838852E-002
   7.9100000000000004E-002    -1.7320610582828522E-002
   8.0200000000000021E-002    -1.7944756895303726E-002
   8.1300000000000011E-002    -1.8389545381069183E-002
   8.2400000000000029E-002    -1.8635019659996033E-002
   8.3500000000000019E-002    -1.8660461530089378E-002
   8.4600000000000009E-002    -1.8444499000906944E-002
   8.5700000000000026E-002    -1.7967322841286659E-002
   8.6800000000000016E-002    -1.7212143167853355E-002
   8.7900000000000006E-002    -1.6169767826795578E-002
   8.9000000000000024E-002    -1.4839559793472290E-002
   9.0100000000000013E-002    -1.3229599222540855E-002
   9.1200000000000003E-002    -1.1355670168995857E-002
   9.2300000000000021E-002    -9.2390179634094238E-003
   9.3400000000000011E-002    -6.9044260308146477E-003
   9.4500000000000028E-002    -4.3781246058642864E-003
   9.5600000000000018E-002    -1.6872538253664970E-003
   9.6700000000000008E-002     1.1402631644159555E-003
   9.7800000000000026E-002     4.0732631459832191E-003
   9.8900000000000016E-002     7.0743337273597717E-003
  0.10000000000000001          1.0098009370267391E-002
  0.10110000000000002          1.3093755580484867E-002
  0.10220000000000001          1.6009286046028137E-002
  0.10330000000000003          1.8795236945152283E-002
  0.10440000000000002          2.1405313163995743E-002
  0.10550000000000001          2.3793008178472519E-002
  0.10660000000000003          2.5911772623658180E-002
  0.10770000000000002          2.7716496959328651E-002
  0.10880000000000001          2.9172154143452644E-002
  0.10990000000000003          3.0256235972046852E-002
  0.11100000000000002          3.0956145375967026E-002
  0.11210000000000001          3.1262986361980438E-002
  0.11320000000000002          3.1165739521384239E-002
  0.11430000000000001          3.0653942376375198E-002
  0.11540000000000003          2.9726563021540642E-002
  0.11650000000000002          2.8398998081684113E-002
  0.11760000000000001          2.6698527857661247E-002
  0.11870000000000003          2.4653578177094460E-002
  0.11980000000000002          2.2288076579570770E-002
  0.12090000000000001          1.9623797386884689E-002
  0.12200000000000003          1.6696467995643616E-002
  0.12310000000000001          1.3564581982791424E-002
  0.12420000000000003          1.0303217917680740E-002
  0.12530000000000002          6.9821896031498909E-003
  0.12640000000000001          3.6486105527728796E-003
  0.12750000000000003          3.2897855271585286E-004
  0.12860000000000002         -2.9488711152225733E-003
  0.12970000000000001         -6.1381068080663681E-003
  0.13080000000000003         -9.1756861656904221E-003
  0.13190000000000002         -1.2004136107861996E-002
  0.13300000000000001         -1.4591448009014130E-002
  0.13410000000000000         -1.6928073018789291E-002
  0.13520000000000004         -1.9002782180905342E-002
  0.13630000000000003         -2.0784024149179459E-002
  0.13740000000000002         -2.2226935252547264E-002
  0.13850000000000001         -2.3303085938096046E-002
  0.13960000000000000         -2.4023137986660004E-002
  0.14070000000000005         -2.4428313598036766E-002
  0.14180000000000004         -2.4555269628763199E-002
  0.14290000000000003         -2.4407049641013145E-002
  0.14400000000000002         -2.3961132392287254E-002
  0.14510000000000001         -2.3208117112517357E-002
  0.14620000000000000         -2.2182600572705269E-002
  0.14730000000000004         -2.0955195650458336E-002
  0.14840000000000003         -1.9587764516472816E-002
  0.14950000000000002         -1.8096229061484337E-002
  0.15060000000000001         -1.6458740457892418E-002
  0.15170000000000000         -1.4662606641650200E-002
  0.15280000000000005         -1.2744467705488205E-002
  0.15390000000000004         -1.0783035308122635E-002
  0.15500000000000003         -8.8468957692384720E-003
  0.15610000000000002         -6.9502452388405800E-003
  0.15720000000000001         -5.0602136179804802E-003
  0.15830000000000000         -3.1507085077464581E-003
  0.15940000000000004         -1.2496381532400846E-003
  0.16050000000000003          5.6958902860060334E-004
  0.16160000000000002          2.2472580894827843E-003
  0.16270000000000001          3.7889534141868353E-003
  0.16380000000000000          5.2559091709554195E-003
  0.16490000000000005          6.7005488090217113E-003
  0.16600000000000004          8.1079415977001190E-003
  0.16710000000000003          9.4029791653156281E-003
  0.16820000000000002          1.0518235154449940E-002
  0.16930000000000001          1.1456081643700600E-002
  0.17040000000000000          1.2284724041819572E-002
  0.17150000000000004          1.3068896718323231E-002
  0.17260000000000003          1.3803915120661259E-002
  0.17370000000000002          1.4418603852391243E-002
  0.17480000000000001          1.4845491386950016E-002
  0.17590000000000000          1.5089470893144608E-002
  0.17700000000000005          1.5225160866975784E-002
  0.17810000000000004          1.5322201885282993E-002
  0.17920000000000003          1.5373810194432735E-002
  0.18030000000000002          1.5300994738936424E-002
  0.18140000000000001          1.5027523972094059E-002
  0.18250000000000000          1.4555154368281364E-002
  0.18360000000000004          1.3964232057332993E-002
  0.18470000000000003          1.3335064053535461E-002
  0.18580000000000002          1.2670520693063736E-002
  0.18690000000000001          1.1894844472408295E-002
  0.18800000000000000          1.0931327939033508E-002
  0.18910000000000005          9.7837587818503380E-003
  0.19020000000000004          8.5394447669386864E-003
  0.19130000000000003          7.2918105870485306E-003
  0.19240000000000002          6.0583613812923431E-003
  0.19350000000000001          4.7750137746334076E-003
  0.19460000000000005          3.3720482606440783E-003
  0.19570000000000004          1.8550272798165679E-003
  0.19680000000000003          3.1171148293651640E-004
  0.19790000000000002         -1.1620079167187214E-003
  0.19900000000000001         -2.5427730288356543E-003
  0.20010000000000000         -3.8868123665452003E-003
  0.20120000000000005         -5.2570160478353500E-003
  0.20230000000000004         -6.6443714313209057E-003
  0.20340000000000003         -7.9603726044297218E-003
  0.20450000000000002         -9.1092800721526146E-003
  0.20560000000000000         -1.0065840557217598E-002
  0.20670000000000005         -1.0886717587709427E-002
  0.20780000000000004         -1.1642587371170521E-002
  0.20890000000000003         -1.2341588735580444E-002
