 -0.12000000000000000          0.0000000000000000
 -0.11889999999999999          0.0000000000000000
 -0.11780000000000000          0.0000000000000000
 -0.11670000000000000          0.0000000000000000
 -0.11559999999999999          0.0000000000000000
 -0.11449999999999999          0.0000000000000000
 -0.11340000000000000          0.0000000000000000
 -0.11230000000000000          0.0000000000000000
 -0.11119999999999999         -3.6215035681349943E-026
 -0.11009999999999999          1.1859111155939501E-025
 -0.10900000000000000          8.8418449042520321E-025
 -0.10790000000000000         -3.5376230636364708E-024
 -0.10679999999999999         -2.4860476533775244E-023
 -0.10569999999999999         -1.2724485159472096E-024
 -0.10460000000000000          2.9181673872390297E-022
 -0.10349999999999999          6.9132614289948591E-022
 -0.10239999999999999         -8.2059467160171436E-022
 -0.10130000000000000         -6.7998543813635029E-021
 -0.10020000000000000         -9.5667969563668219E-021
  -9.9099999999999994E-002     1.9444657443906197E-020
  -9.7999999999999990E-002     9.3848429094405847E-020
  -9.6899999999999986E-002     1.0204819295846158E-019
  -9.5799999999999996E-002    -2.2572016667406935E-019
  -9.4699999999999993E-002    -9.2252879118382605E-019
  -9.3599999999999989E-002    -9.7473629554511039E-019
  -9.2499999999999999E-002     1.6252408486290089E-018
  -9.1399999999999995E-002     6.9408228890957020E-018
  -9.0299999999999991E-002     8.1824160254541213E-018
  -8.9200000000000002E-002    -7.3016407266525578E-018
  -8.8099999999999984E-002    -4.1084555556794038E-017
  -8.6999999999999994E-002    -5.7460498297690093E-017
  -8.5899999999999990E-002     1.2605004999279113E-017
  -8.4799999999999986E-002     1.9149764546661565E-016
  -8.3699999999999997E-002     3.2924660350697286E-016
  -8.2599999999999993E-002     1.0007900074345962E-016
  -8.1499999999999989E-002    -6.8240023549416551E-016
  -8.0399999999999999E-002    -1.5252034178472331E-015
  -7.9299999999999995E-002    -1.1117729890395135E-015
  -7.8199999999999992E-002     1.6653562421570082E-015
  -7.7100000000000002E-002     5.6534794783179385E-015
  -7.5999999999999984E-002     6.3612716439884198E-015
  -7.4899999999999994E-002    -1.3151661402242419E-015
  -7.3799999999999991E-002    -1.6298884103808052E-014
  -7.2699999999999987E-002    -2.5959218634278095E-014
  -7.1599999999999997E-002    -1.1355191553751379E-014
  -7.0499999999999993E-002     3.3444316652024575E-014
  -6.9399999999999989E-002     8.0610052053536885E-014
  -6.8300000000000000E-002     7.2747112966810995E-014
  -6.7199999999999996E-002    -3.0973545261806304E-014
  -6.6099999999999992E-002    -1.8951025915637382E-013
  -6.5000000000000002E-002    -2.6147099351121750E-013
  -6.3899999999999985E-002    -9.3579251335754177E-014
  -6.2799999999999995E-002     3.0877709243648521E-013
  -6.1699999999999991E-002     6.7078433736364462E-013
  -6.0599999999999994E-002     5.6850623384244181E-013
  -5.9499999999999990E-002    -2.0119683371601360E-013
  -5.8399999999999994E-002    -1.2562818623926275E-012
  -5.7299999999999990E-002    -1.6787127243844679E-012
  -5.6199999999999986E-002    -6.6969671995431579E-013
  -5.5099999999999996E-002     1.5505206710578201E-012
  -5.3999999999999992E-002     3.4230034171717216E-012
  -5.2899999999999989E-002     2.9494050431122520E-012
  -5.1799999999999985E-002    -5.1675937834394503E-013
  -5.0699999999999995E-002    -5.0039516800992612E-012
  -4.9599999999999991E-002    -6.7104611797819125E-012
  -4.8499999999999988E-002    -2.9457853257391919E-012
  -4.7399999999999998E-002     4.8233179603118792E-012
  -4.6299999999999994E-002     1.0810938949612492E-011
  -4.5199999999999990E-002     8.8984939208835989E-012
  -4.4099999999999986E-002    -1.6282627373145897E-012
  -4.2999999999999997E-002    -1.3594958492291198E-011
  -4.1899999999999993E-002    -1.6247309053696313E-011
  -4.0799999999999989E-002    -4.4105001768823815E-012
  -3.9699999999999985E-002     1.4830484063033111E-011
  -3.8599999999999995E-002     2.5177490300953842E-011
  -3.7499999999999992E-002     1.3946446428270143E-011
  -3.6399999999999988E-002    -1.4698664160817110E-011
  -3.5299999999999984E-002    -3.8624593107217109E-011
  -3.4199999999999994E-002    -3.3276648797597730E-011
  -3.3099999999999991E-002     6.0367765473967605E-012
  -3.1999999999999987E-002     5.4022310930212925E-011
  -3.0899999999999997E-002     6.9947152236959909E-011
  -2.9799999999999993E-002     2.9858018835149380E-011
  -2.8699999999999989E-002    -4.8130815305524877E-011
  -2.7599999999999986E-002    -1.0931903299260526E-010
  -2.6499999999999996E-002    -1.0033039676837774E-010
  -2.5399999999999992E-002    -1.3272096963112823E-011
  -2.4299999999999988E-002     9.9939743980481666E-011
  -2.3199999999999985E-002     1.5961044985690620E-010
  -2.2099999999999995E-002     1.1674373967540674E-010
  -2.0999999999999991E-002    -6.3063573460531153E-012
  -1.9899999999999987E-002    -1.2749323818894709E-010
  -1.8799999999999983E-002    -1.6418744142043806E-010
  -1.7699999999999994E-002    -9.5960947521511741E-011
  -1.6599999999999990E-002     1.8998150275173487E-011
  -1.5499999999999986E-002     8.9801180380710832E-011
  -1.4399999999999996E-002     6.7487043731162544E-011
  -1.3299999999999992E-002    -1.1262595023264765E-011
  -1.2199999999999989E-002    -5.0763730025105147E-011
  -1.1099999999999985E-002     2.1068974689897324E-011
  -9.9999999999999950E-003     1.7641292593406632E-010
  -8.8999999999999913E-003     2.8373209337573257E-010
  -7.7999999999999875E-003     1.9487633728942910E-010
  -6.6999999999999837E-003    -1.2819600936353481E-010
  -5.5999999999999939E-003    -5.4049348330309499E-010
  -4.4999999999999901E-003    -7.6677886262643824E-010
  -3.3999999999999864E-003    -5.7124349694959164E-010
  -2.2999999999999826E-003     5.6173839885209631E-011
  -1.1999999999999927E-003     8.3270146333802586E-010
  -9.9999999999988987E-005     1.3112716468199892E-009
   1.0000000000000148E-003     1.1506637864755476E-009
   2.1000000000000185E-003     3.5699562750401981E-010
   3.2000000000000084E-003    -6.8201283509594646E-010
   4.3000000000000121E-003    -1.4206121834448027E-009
   5.4000000000000159E-003    -1.4990935159886476E-009
   6.5000000000000058E-003    -9.6418495409977822E-010
   7.6000000000000234E-003    -1.9607639123453424E-010
   8.7000000000000133E-003     4.0667452738674115E-010
   9.8000000000000032E-003     7.3097777830710697E-010
   1.0900000000000021E-002     9.8008134941096614E-010
   1.2000000000000011E-002     1.3880446791958434E-009
   1.3100000000000001E-002     1.8583906635782910E-009
   1.4200000000000018E-002     1.8753862907061603E-009
   1.5300000000000008E-002     8.4719459225723881E-010
   1.6400000000000026E-002    -1.3230732065494522E-009
   1.7500000000000016E-002    -3.8887737474624373E-009
   1.8600000000000005E-002    -5.4870801236006628E-009
   1.9700000000000023E-002    -4.8936614760464181E-009
   2.0800000000000013E-002    -1.8429980874756779E-009
   2.1900000000000003E-002     2.6469046954247233E-009
   2.3000000000000020E-002     6.6998380177096806E-009
   2.4100000000000010E-002     8.5168156971349163E-009
   2.5200000000000000E-002     7.2588224320213612E-009
   2.6300000000000018E-002     3.3821625500252139E-009
   2.7400000000000008E-002    -1.6877476083365650E-009
   2.8500000000000025E-002    -6.2589817773073264E-009
   2.9600000000000015E-002    -9.0181107026410245E-009
   3.0700000000000005E-002    -9.3374996623651896E-009
   3.1800000000000023E-002    -7.2526571415210128E-009
   3.2900000000000013E-002    -3.3085660877674172E-009
   3.4000000000000002E-002     1.5487969795557888E-009
   3.5100000000000020E-002     6.0364331311291153E-009
   3.6200000000000010E-002     8.7160252348894574E-009
   3.7300000000000028E-002     8.4491782459394926E-009
   3.8400000000000017E-002     5.0741943979915050E-009
   3.9500000000000007E-002    -3.6094360139626858E-011
   4.0600000000000025E-002    -4.0209346963138159E-009
   4.1700000000000015E-002    -3.4755160971400301E-009
   4.2800000000000005E-002     3.9414911334745284E-009
   4.3900000000000022E-002     1.8043071037254776E-008
   4.5000000000000012E-002     3.5770888473507512E-008
   4.6100000000000002E-002     5.2446502252223581E-008
   4.7200000000000020E-002     6.4097712026978115E-008
   4.8300000000000010E-002     6.9522769763352699E-008
   4.9400000000000027E-002     7.0791806194847595E-008
   5.0500000000000017E-002     7.1896863573783776E-008
   5.1600000000000007E-002     7.6580995767017157E-008
   5.2700000000000025E-002     8.6976420732298720E-008
   5.3800000000000014E-002     1.0400507477470455E-007
   5.4900000000000004E-002     1.2900162005280436E-007
   5.6000000000000022E-002     1.6491185306222178E-007
   5.7100000000000012E-002     2.1567943520039989E-007
   5.8200000000000002E-002     2.8395044182616402E-007
   5.9300000000000019E-002     3.6880624065815937E-007
   6.0400000000000009E-002     4.6554566779377637E-007
   6.1500000000000027E-002     5.6822614169504959E-007
   6.2600000000000017E-002     6.7369154521657038E-007
   6.3700000000000007E-002     7.8467297726092511E-007
   6.4800000000000024E-002     9.1009542302344926E-007
   6.5900000000000014E-002     1.0625096820149338E-006
   6.7000000000000004E-002     1.2542674312499003E-006
   6.8100000000000022E-002     1.4945400153010269E-006
   6.9200000000000012E-002     1.7884360659081722E-006
   7.0300000000000029E-002     2.1380767520895461E-006
   7.1400000000000019E-002     2.5445203846174991E-006
   7.2500000000000009E-002     3.0093738132563885E-006
   7.3600000000000027E-002     3.5355533327674493E-006
   7.4700000000000016E-002     4.1274342947872356E-006
   7.5800000000000006E-002     4.7910248213156592E-006
   7.6900000000000024E-002     5.5346513363474514E-006
   7.8000000000000014E-002     6.3699803831696045E-006
   7.9100000000000004E-002     7.3124251684930641E-006
   8.0200000000000021E-002     8.3797876868629828E-006
   8.1300000000000011E-002     9.5887780844350345E-006
   8.2400000000000029E-002     1.0950651812891010E-005
   8.3500000000000019E-002     1.2468511158658657E-005
   8.4600000000000009E-002     1.4138575352262706E-005
   8.5700000000000026E-002     1.5955572962411679E-005
   8.6800000000000016E-002     1.7919424863066524E-005
   8.7900000000000006E-002     2.0038794900756329E-005
   8.9000000000000024E-002     2.2328631530399434E-005
   9.0100000000000013E-002     2.4802540792734362E-005
   9.1200000000000003E-002     2.7464391678222455E-005
   9.2300000000000021E-002     3.0304054234875366E-005
   9.3400000000000011E-002     3.3299253118457273E-005
   9.4500000000000028E-002     3.6421759432414547E-005
   9.5600000000000018E-002     3.9643626223551109E-005
   9.6700000000000008E-002     4.2940046114381403E-005
   9.7800000000000026E-002     4.6288219891721383E-005
   9.8900000000000016E-002     4.9663725803839043E-005
  0.10000000000000001          5.3036350436741486E-005
  0.10110000000000002          5.6366399803664535E-005
  0.10220000000000001          5.9601770772133023E-005
  0.10330000000000003          6.2676466768607497E-005
  0.10440000000000002          6.5511805587448180E-005
  0.10550000000000001          6.8021094193682075E-005
  0.10660000000000003          7.0116329879965633E-005
  0.10770000000000002          7.1714341174811125E-005
  0.10880000000000001          7.2739509050734341E-005
  0.10990000000000003          7.3121605964843184E-005
  0.11100000000000002          7.2790557169355452E-005
  0.11210000000000001          7.1671223849989474E-005
  0.11320000000000002          6.9680892920587212E-005
  0.11430000000000001          6.6730666731018573E-005
  0.11540000000000003          6.2730752688366920E-005
  0.11650000000000002          5.7599088904680684E-005
  0.11760000000000001          5.1271497795823961E-005
  0.11870000000000003          4.3709769670385867E-005
  0.11980000000000002          3.4904078347608447E-005
  0.12090000000000001          2.4868360924301669E-005
  0.12200000000000003          1.3631354704557452E-005
  0.12310000000000001          1.2292605333641404E-006
  0.12420000000000003         -1.2294578482396901E-005
  0.12530000000000002         -2.6882065867539495E-005
  0.12640000000000001         -4.2449475586181507E-005
  0.12750000000000003         -5.8879501011688262E-005
  0.12860000000000002         -7.6019132393412292E-005
  0.12970000000000001         -9.3683076556771994E-005
  0.13080000000000003         -1.1165851901751012E-004
  0.13190000000000002         -1.2970961688552052E-004
  0.13300000000000001         -1.4758321049157530E-004
  0.13410000000000000         -1.6501575009897351E-004
  0.13520000000000004         -1.8174112483393401E-004
  0.13630000000000003         -1.9749574130401015E-004
  0.13740000000000002         -2.1201815980020911E-004
  0.13850000000000001         -2.2504503431264311E-004
  0.13960000000000000         -2.3630859504919499E-004
  0.14070000000000005         -2.4554025731049478E-004
  0.14180000000000004         -2.5248076417483389E-004
  0.14290000000000003         -2.5689307949505746E-004
  0.14400000000000002         -2.5857260334305465E-004
  0.14510000000000001         -2.5735318195074797E-004
  0.14620000000000000         -2.5311060016974807E-004
  0.14730000000000004         -2.4576613213866949E-004
  0.14840000000000003         -2.3528948077000678E-004
  0.14950000000000002         -2.2169892326928675E-004
  0.15060000000000001         -2.0505834254436195E-004
  0.15170000000000000         -1.8547307990957052E-004
  0.15280000000000005         -1.6309015336446464E-004
  0.15390000000000004         -1.3810320524498820E-004
  0.15500000000000003         -1.1075862857978791E-004
  0.15610000000000002         -8.1357546150684357E-005
  0.15720000000000001         -5.0248945626663044E-005
  0.15830000000000000         -1.7816957551985979E-005
  0.15940000000000004          1.5530760720139369E-005
  0.16050000000000003          4.9367619794793427E-005
  0.16160000000000002          8.3249389717821032E-005
  0.16270000000000001          1.1671854008454829E-004
  0.16380000000000000          1.4931362238712609E-004
  0.16490000000000005          1.8058254499919713E-004
  0.16600000000000004          2.1009263582527637E-004
  0.16710000000000003          2.3743341444060206E-004
  0.16820000000000002          2.6221768348477781E-004
  0.16930000000000001          2.8408694197423756E-004
  0.17040000000000000          3.0272200820036232E-004
  0.17150000000000004          3.1785431201569736E-004
  0.17260000000000003          3.2927075517363846E-004
  0.17370000000000002          3.3681170316413045E-004
  0.17480000000000001          3.4036798751913011E-004
  0.17590000000000000          3.3988349605351686E-004
  0.17700000000000005          3.3536404953338206E-004
  0.17810000000000004          3.2688395003788173E-004
  0.17920000000000003          3.1458225566893816E-004
  0.18030000000000002          2.9864991665817797E-004
  0.18140000000000001          2.7931688237003982E-004
  0.18250000000000000          2.5684834690764546E-004
  0.18360000000000004          2.3154920199885964E-004
  0.18470000000000003          2.0376722386572510E-004
  0.18580000000000002          1.7388706328347325E-004
  0.18690000000000001          1.4231524255592376E-004
  0.18800000000000000          1.0946660768240690E-004
  0.18910000000000005          7.5761054176837206E-005
  0.19020000000000004          4.1627030441304669E-005
  0.19130000000000003          7.5013276727986522E-006
  0.19240000000000002         -2.6182651708950289E-005
  0.19350000000000001         -5.9013906138716266E-005
  0.19460000000000005         -9.0618494141381234E-005
  0.19570000000000004         -1.2066122144460678E-004
  0.19680000000000003         -1.4883802214171737E-004
  0.19790000000000002         -1.7487086006440222E-004
  0.19900000000000001         -1.9851201795972884E-004
  0.20010000000000000         -2.1955466945655644E-004
  0.20120000000000005         -2.3783888900652528E-004
  0.20230000000000004         -2.5324759189970791E-004
  0.20340000000000003         -2.6569890906102955E-004
  0.20450000000000002         -2.7514621615409851E-004
  0.20560000000000000         -2.8158831992186606E-004
  0.20670000000000005         -2.8507999377325177E-004
  0.20780000000000004         -2.8572996961884201E-004
  0.20890000000000003         -2.8368498897179961E-004
