 -0.12000000000000000          0.0000000000000000
 -0.11889999999999999          0.0000000000000000
 -0.11780000000000000          0.0000000000000000
 -0.11670000000000000          0.0000000000000000
 -0.11559999999999999          0.0000000000000000
 -0.11449999999999999          0.0000000000000000
 -0.11340000000000000          0.0000000000000000
 -0.11230000000000000          0.0000000000000000
 -0.11119999999999999          0.0000000000000000
 -0.11009999999999999          0.0000000000000000
 -0.10900000000000000          0.0000000000000000
 -0.10790000000000000          0.0000000000000000
 -0.10679999999999999          0.0000000000000000
 -0.10569999999999999         -1.2507990092563317E-041
 -0.10460000000000000         -4.2458642819809795E-040
 -0.10349999999999999         -4.7477267152927338E-039
 -0.10239999999999999         -3.6230061722477131E-038
 -0.10130000000000000         -1.8324533389445912E-037
 -0.10020000000000000         -5.4816441742966778E-037
  -9.9099999999999994E-002    -7.8187925312688095E-037
  -9.7999999999999990E-002     2.6927009373640390E-038
  -9.6899999999999986E-002     1.0384284378768582E-036
  -9.5799999999999996E-002     3.2468195728621123E-036
  -9.4699999999999993E-002     4.0519560039614214E-035
  -9.3599999999999989E-002     1.6547897745780939E-034
  -9.2499999999999999E-002     1.0528132630091204E-034
  -9.1399999999999995E-002    -1.1947388463841792E-033
  -9.0299999999999991E-002    -3.6854804183590851E-033
  -8.9200000000000002E-002     2.6017239425623729E-034
  -8.8099999999999984E-002     2.4928823308587456E-032
  -8.6999999999999994E-002     5.0917225470062614E-032
  -8.5899999999999990E-002    -3.9226945906078473E-032
  -8.4799999999999986E-002    -3.5748388933788986E-031
  -8.3699999999999997E-002    -5.0893817851054690E-031
  -8.2599999999999993E-002     7.6548892720180453E-031
  -8.1499999999999989E-002     3.8840827279983084E-030
  -8.0399999999999999E-002     3.9435886970651823E-030
  -7.9299999999999995E-002    -9.5720102498193150E-030
  -7.8199999999999992E-002    -3.4686630244177120E-029
  -7.7100000000000002E-002    -2.5039057336695987E-029
  -7.5999999999999984E-002     9.3347820233600944E-029
  -7.4899999999999994E-002     2.7166821128136359E-028
  -7.3799999999999991E-002     1.4380837042716854E-028
  -7.2699999999999987E-002    -7.5973954445916434E-028
  -7.1599999999999997E-002    -1.9513687826506691E-027
  -7.0499999999999993E-002    -8.9797417733077899E-028
  -6.9399999999999989E-002     5.2561081817076816E-027
  -6.8300000000000000E-002     1.3063283908451252E-026
  -6.7199999999999996E-002     6.8244071873037962E-027
  -6.6099999999999992E-002    -3.0663060363795661E-026
  -6.5000000000000002E-002    -8.0650316306869753E-026
  -6.3899999999999985E-002    -5.5565778278981808E-026
  -6.2799999999999995E-002     1.4638247170915331E-025
  -6.1699999999999991E-002     4.4846806556763070E-025
  -6.0599999999999994E-002     4.1374531744438977E-025
  -5.9499999999999990E-002    -5.2969140304048201E-025
  -5.8399999999999994E-002    -2.1890012512126019E-024
  -5.7299999999999990E-002    -2.6399088198258220E-024
  -5.6199999999999986E-002     1.0655232007595912E-024
  -5.5099999999999996E-002     9.1254198892954501E-024
  -5.3999999999999992E-002     1.4218630904095253E-023
  -5.2899999999999989E-002     2.7386568502195778E-024
  -5.1799999999999985E-002    -3.1197107462324321E-023
  -5.0699999999999995E-002    -6.4455880812338410E-023
  -4.9599999999999991E-002    -4.1735989388933055E-023
  -4.8499999999999988E-002     7.9487454967369262E-023
  -4.7399999999999998E-002     2.4424635616806066E-022
  -4.6299999999999994E-002     2.5772658802132008E-022
  -4.5199999999999990E-002    -9.5917136771054176E-023
  -4.4099999999999986E-002    -7.5660621296382475E-022
  -4.2999999999999997E-002    -1.1435691189188913E-021
  -4.1899999999999993E-002    -3.8166506757689604E-022
  -4.0799999999999989E-002     1.7948040127069501E-021
  -3.9699999999999985E-002     3.9941906256253957E-021
  -3.8599999999999995E-002     3.2787646179883396E-021
  -3.7499999999999992E-002    -2.5086247325780922E-021
  -3.6399999999999988E-002    -1.1086226767430865E-020
  -3.5299999999999984E-002    -1.4275859443242349E-020
  -3.4199999999999994E-002    -2.7672182345580394E-021
  -3.3099999999999991E-002     2.3188018069575175E-020
  -3.1999999999999987E-002     4.5284367756907760E-020
  -3.0899999999999997E-002     3.3430058554281659E-020
  -2.9799999999999993E-002    -2.8167645357144402E-020
  -2.8699999999999989E-002    -1.1005634172608912E-019
  -2.7599999999999986E-002    -1.3477734519057526E-019
  -2.6499999999999996E-002    -2.8032792299078384E-020
  -2.5399999999999992E-002     1.9396408257269921E-019
  -2.4299999999999988E-002     3.7405807818229167E-019
  -2.3199999999999985E-002     2.8497711101068374E-019
  -2.2099999999999995E-002    -1.7140971070173379E-019
  -2.0999999999999991E-002    -7.6783490139692870E-019
  -1.9899999999999987E-002    -9.7495467122682439E-019
  -1.8799999999999983E-002    -3.2276476349424328E-019
  -1.7699999999999994E-002     1.0709093800417773E-018
  -1.6599999999999990E-002     2.2595445524281734E-018
  -1.5499999999999986E-002     1.9379675427453739E-018
  -1.4399999999999996E-002    -4.4966049916386602E-019
  -1.3299999999999992E-002    -3.7367085942791912E-018
  -1.2199999999999989E-002    -5.2520935503089872E-018
  -1.1099999999999985E-002    -2.6383153112047270E-018
  -9.9999999999999950E-003     3.7159207183051210E-018
  -8.8999999999999913E-003     9.7113518542787610E-018
  -7.7999999999999875E-003     9.6766417014148109E-018
  -6.6999999999999837E-003     9.7356004471405999E-019
  -5.5999999999999939E-003    -1.2237541592681006E-017
  -4.4999999999999901E-003    -1.9998199730490265E-017
  -3.3999999999999864E-003    -1.3337302205308021E-017
  -2.2999999999999826E-003     7.2062750738313193E-018
  -1.1999999999999927E-003     2.8576367085130582E-017
  -9.9999999999988987E-005     3.2515229108540688E-017
   1.0000000000000148E-003     1.0134988269094731E-017
   2.1000000000000185E-003    -2.7125943931327025E-017
   3.2000000000000084E-003    -5.1372336492736502E-017
   4.3000000000000121E-003    -3.8169375863532606E-017
   5.4000000000000159E-003     1.0652551042466098E-017
   6.5000000000000058E-003     6.1221139295041975E-017
   7.6000000000000234E-003     6.9213768655113154E-017
   8.7000000000000133E-003     1.7108222576132099E-017
   9.8000000000000032E-003    -6.2465159379317624E-017
   1.0900000000000021E-002    -1.0270566976522990E-016
   1.2000000000000011E-002    -5.4656121101841364E-017
   1.3100000000000001E-002     6.2085509947935386E-017
   1.4200000000000018E-002     1.5691156969454846E-016
   1.5300000000000008E-002     1.3046867015403709E-016
   1.6400000000000026E-002    -3.6008098506719354E-017
   1.7500000000000016E-002    -2.3727648077815017E-016
   1.8600000000000005E-002    -2.9926563411089048E-016
   1.9700000000000023E-002    -1.1273066203800917E-016
   2.0800000000000013E-002     2.4952230079440161E-016
   2.1900000000000003E-002     5.3845577407512493E-016
   2.3000000000000020E-002     4.8679846393519656E-016
   2.4100000000000010E-002     2.6388029341758270E-017
   2.5200000000000000E-002    -6.0111461283178817E-016
   2.6300000000000018E-002    -9.5740208143536452E-016
   2.7400000000000008E-002    -7.0485746120604116E-016
   2.8500000000000025E-002     1.0997435727063957E-016
   2.9600000000000015E-002     1.0143747880171096E-015
   3.0700000000000005E-002     1.3876898423219840E-015
   3.1800000000000023E-002     8.9868120472960493E-016
   3.2900000000000013E-002    -2.1223101354704099E-016
   3.4000000000000002E-002    -1.2471635823615881E-015
   3.5100000000000020E-002    -1.5246100712676815E-015
   3.6200000000000010E-002    -8.8467435027645260E-016
   3.7300000000000028E-002     1.7179049750645829E-016
   3.8400000000000017E-002     8.6188360534159556E-016
   3.9500000000000007E-002     7.6016993027160865E-016
   4.0600000000000025E-002     1.8452058214052277E-016
   4.1700000000000015E-002    -4.8512938551263196E-017
   4.2800000000000005E-002     6.1248200674217769E-016
   4.3900000000000022E-002     1.7691058138552800E-015
   4.5000000000000012E-002     2.1309718414494732E-015
   4.6100000000000002E-002     4.7521338255736268E-016
   4.7200000000000020E-002    -3.0976570863493896E-015
   4.8300000000000010E-002    -6.6436707345371090E-015
   4.9400000000000027E-002    -7.2714466622957920E-015
   5.0500000000000017E-002    -3.1258412606363292E-015
   5.1600000000000007E-002     4.8386591940477192E-015
   5.2700000000000025E-002     1.2719582907826186E-014
   5.3800000000000014E-002     1.5611122149757767E-014
   5.4900000000000004E-002     1.0591651491140882E-014
   5.6000000000000022E-002    -1.1858993833525791E-015
   5.7100000000000012E-002    -1.4775026091918414E-014
   5.8200000000000002E-002    -2.3962111456296217E-014
   5.9300000000000019E-002    -2.4355404100299440E-014
   6.0400000000000009E-002    -1.5084936812593923E-014
   6.1500000000000027E-002     1.5635639518416043E-015
   6.2600000000000017E-002     2.1514916381131823E-014
   6.3700000000000007E-002     3.9599928696419651E-014
   6.4800000000000024E-002     4.9159200337820994E-014
   6.5900000000000014E-002     4.2207977022333532E-014
   6.7000000000000004E-002     1.2537755427236789E-014
   6.8100000000000022E-002    -3.7961539971599970E-014
   6.9200000000000012E-002    -9.3449099641210870E-014
   7.0300000000000029E-002    -1.2503739092294824E-013
   7.1400000000000019E-002    -1.0263370150498732E-013
   7.2500000000000009E-002    -1.4750867018196827E-014
   7.3600000000000027E-002     1.1483620044466791E-013
   7.4700000000000016E-002     2.2740492757085395E-013
   7.5800000000000006E-002     2.5331627529108502E-013
   7.6900000000000024E-002     1.5173147840160522E-013
   7.8000000000000014E-002    -5.5787768474908558E-014
   7.9100000000000004E-002    -2.8184000814591992E-013
   8.0200000000000021E-002    -4.0985671887622255E-013
   8.1300000000000011E-002    -3.5635310349259319E-013
   8.2400000000000029E-002    -1.2422543191597385E-013
   8.3500000000000019E-002     1.8799446320407615E-013
   8.4600000000000009E-002     4.3293743156452846E-013
   8.5700000000000026E-002     4.9428343362745153E-013
   8.6800000000000016E-002     3.5219591999757771E-013
   8.7900000000000006E-002     9.1346574130745511E-014
   8.9000000000000024E-002    -1.5658497718937237E-013
   9.0100000000000013E-002    -2.9931588349345339E-013
   9.1200000000000003E-002    -3.3874969886452111E-013
   9.2300000000000021E-002    -3.5104232888605313E-013
   9.3400000000000011E-002    -4.0109341087161965E-013
   9.4500000000000028E-002    -4.5441872920798376E-013
   9.5600000000000018E-002    -3.6431673107982510E-013
   9.6700000000000008E-002     3.0728224191490724E-014
   9.7800000000000026E-002     7.4517914625329973E-013
   9.8900000000000016E-002     1.5320983414238154E-012
  0.10000000000000001          1.9272489420324446E-012
  0.10110000000000002          1.4786775319811096E-012
  0.10220000000000001          6.2051045183163234E-014
  0.10330000000000003         -1.9088569700592695E-012
  0.10440000000000002         -3.5509568376002054E-012
  0.10550000000000001         -3.8970653960801460E-012
  0.10660000000000003         -2.4396732464099236E-012
  0.10770000000000002          4.6347024525508762E-013
  0.10880000000000001          3.6008012977567505E-012
  0.10990000000000003          5.4189053418085553E-012
  0.11100000000000002          4.8321589785071950E-012
  0.11210000000000001          1.9087838948328439E-012
  0.11320000000000002         -1.9924749784100415E-012
  0.11430000000000001         -4.8101683226831060E-012
  0.11540000000000003         -4.8682668139787832E-012
  0.11650000000000002         -1.9072709991213577E-012
  0.11760000000000001          2.5551290683961669E-012
  0.11870000000000003          5.8479445244619122E-012
  0.11980000000000002          5.5378609684075819E-012
  0.12090000000000001          8.8853891692247666E-013
  0.12200000000000003         -6.4462558554967408E-012
  0.12310000000000001         -1.2990124600986697E-011
  0.12420000000000003         -1.5090024715891381E-011
  0.12530000000000002         -1.0809280553969458E-011
  0.12640000000000001         -1.0105642451324615E-012
  0.12750000000000003          1.1040790677541157E-011
  0.12860000000000002          2.1387155935137514E-011
  0.12970000000000001          2.7419309878151665E-011
  0.13080000000000003          2.8980489882868277E-011
  0.13190000000000002          2.7762309812162655E-011
  0.13300000000000001          2.5275042475625398E-011
  0.13410000000000000          2.0675110928847218E-011
  0.13520000000000004          1.0014704343586089E-011
  0.13630000000000003         -1.2250741220076744E-011
  0.13740000000000002         -5.0074493163076994E-011
  0.13850000000000001         -1.0279524453871147E-010
  0.13960000000000000         -1.6438482519642861E-010
  0.14070000000000005         -2.2599111471066635E-010
  0.14180000000000004         -2.8087132619702970E-010
  0.14290000000000003         -3.2915686842827085E-010
  0.14400000000000002         -3.7962216703490981E-010
  0.14510000000000001         -4.4711334634683908E-010
  0.14620000000000000         -5.4680499017578654E-010
  0.14730000000000004         -6.8852112899975282E-010
  0.14840000000000003         -8.7460266806616005E-010
  0.14950000000000002         -1.1028771229604217E-009
  0.15060000000000001         -1.3732024406465371E-009
  0.15170000000000000         -1.6936815283585815E-009
  0.15280000000000005         -2.0825987601114093E-009
  0.15390000000000004         -2.5646615942065409E-009
  0.15500000000000003         -3.1638329733851833E-009
  0.15610000000000002         -3.8976075700247748E-009
  0.15720000000000001         -4.7771759881243270E-009
  0.15830000000000000         -5.8145097625583730E-009
  0.15940000000000004         -7.0328720624956986E-009
  0.16050000000000003         -8.4744993245067235E-009
  0.16160000000000002         -1.0200222888556709E-008
  0.16270000000000001         -1.2280374939166450E-008
  0.16380000000000000         -1.4781926793716593E-008
  0.16490000000000005         -1.7759893111701786E-008
  0.16600000000000004         -2.1259394245021213E-008
  0.16710000000000003         -2.5328839470262210E-008
  0.16820000000000002         -3.0037853093745071E-008
  0.16930000000000001         -3.5489932770360610E-008
  0.17040000000000000         -4.1821955676368816E-008
  0.17150000000000004         -4.9189893047696387E-008
  0.17260000000000003         -5.7748255954948036E-008
  0.17370000000000002         -6.7634992717557907E-008
  0.17480000000000001         -7.8971147843276412E-008
  0.17590000000000000         -9.1876266594681510E-008
  0.17700000000000005         -1.0649126380712914E-007
  0.17810000000000004         -1.2299560125939024E-007
  0.17920000000000003         -1.4160833927689964E-007
  0.18030000000000002         -1.6257138213404687E-007
  0.18140000000000001         -1.8612334429235489E-007
  0.18250000000000000         -2.1247788595246675E-007
  0.18360000000000004         -2.4181716185012192E-007
  0.18470000000000003         -2.7430229465608136E-007
  0.18580000000000002         -3.1009227541289874E-007
  0.18690000000000001         -3.4935712278638675E-007
  0.18800000000000000         -3.9227518300322117E-007
  0.18910000000000005         -4.3901286517211702E-007
  0.19020000000000004         -4.8969559429679066E-007
  0.19130000000000003         -5.4438544339063810E-007
  0.19240000000000002         -6.0307422700134339E-007
  0.19350000000000001         -6.6569316459208494E-007
  0.19460000000000005         -7.3212754614360165E-007
  0.19570000000000004         -8.0222298493026756E-007
  0.19680000000000003         -8.7577342355871224E-007
  0.19790000000000002         -9.5249242804129608E-007
  0.19900000000000001         -1.0319807870473596E-006
  0.20010000000000000         -1.1137058208987582E-006
  0.20120000000000005         -1.1970033710895223E-006
  0.20230000000000004         -1.2810966154574999E-006
  0.20340000000000003         -1.3651221024701954E-006
  0.20450000000000002         -1.4481432799584582E-006
  0.20560000000000000         -1.5291449244614341E-006
  0.20670000000000005         -1.6070115407273988E-006
  0.20780000000000004         -1.6805031464173226E-006
  0.20890000000000003         -1.7482486782682827E-006
