 -0.12000000000000000          0.0000000000000000
 -0.11889999999999999          0.0000000000000000
 -0.11780000000000000          0.0000000000000000
 -0.11670000000000000          0.0000000000000000
 -0.11559999999999999          0.0000000000000000
 -0.11449999999999999          0.0000000000000000
 -0.11340000000000000          0.0000000000000000
 -0.11230000000000000          0.0000000000000000
 -0.11119999999999999          0.0000000000000000
 -0.11009999999999999          0.0000000000000000
 -0.10900000000000000         -7.3486442891462547E-021
 -0.10790000000000000         -3.5948713659580524E-020
 -0.10679999999999999          1.1940911781586135E-019
 -0.10569999999999999          1.2662985397135405E-018
 -0.10460000000000000          2.1629013191508467E-018
 -0.10349999999999999         -1.0315943127077444E-017
 -0.10239999999999999         -5.3936394559581425E-017
 -0.10130000000000000         -4.9383642098926314E-017
 -0.10020000000000000          3.3359040021872972E-016
  -9.9099999999999994E-002     1.2838318504064636E-015
  -9.7999999999999990E-002     1.0562937074228961E-015
  -9.6899999999999986E-002    -5.4633341341865042E-015
  -9.5799999999999996E-002    -2.0097842118836640E-014
  -9.4699999999999993E-002    -2.0563083435445537E-014
  -9.3599999999999989E-002     5.0772808266735803E-014
  -9.2499999999999999E-002     2.1815725224569316E-013
  -9.1399999999999995E-002     2.8829418236356319E-013
  -9.0299999999999991E-002    -2.4432040592048399E-013
  -8.9200000000000002E-002    -1.6930739579409937E-012
  -8.8099999999999984E-002    -2.8569338735018324E-012
  -8.6999999999999994E-002    -1.9483506062852041E-013
  -8.5899999999999990E-002     9.3993406807824087E-012
  -8.4799999999999986E-002     2.0702377312442621E-011
  -8.3699999999999997E-002     1.3765555535727447E-011
  -8.2599999999999993E-002    -3.4713190655288884E-011
  -8.1499999999999989E-002    -1.1198596910899639E-010
  -8.0399999999999999E-002    -1.2823088424429585E-010
  -7.9299999999999995E-002     5.2377897158395470E-011
  -7.8199999999999992E-002     4.4807110799460759E-010
  -7.7100000000000002E-002     7.4408862404951037E-010
  -7.5999999999999984E-002     3.1305832925987431E-010
  -7.4899999999999994E-002    -1.2291093698379996E-009
  -7.3799999999999991E-002    -3.0930820127395009E-009
  -7.2699999999999987E-002    -2.9687454716764705E-009
  -7.1599999999999997E-002     1.4898154931941576E-009
  -7.0499999999999993E-002     9.3478842444483234E-009
  -6.9399999999999989E-002     1.3912708318741807E-008
  -6.8300000000000000E-002     5.4956821315954585E-009
  -6.7199999999999996E-002    -1.8853919314665291E-008
  -6.6099999999999992E-002    -4.4669675958175503E-008
  -6.5000000000000002E-002    -4.1587366439443940E-008
  -6.3899999999999985E-002     1.3517169605847812E-008
  -6.2799999999999995E-002     1.0173526732160099E-007
  -6.1699999999999991E-002     1.4898965616794158E-007
  -6.0599999999999994E-002     6.8538156483555213E-008
  -5.9499999999999990E-002    -1.4801987902046676E-007
  -5.8399999999999994E-002    -3.6249608115213050E-007
  -5.7299999999999990E-002    -3.4138761861868261E-007
  -5.6199999999999986E-002     4.8640387717568956E-008
  -5.5099999999999996E-002     6.2768816633251845E-007
  -5.3999999999999992E-002     9.0276159880886553E-007
  -5.2899999999999989E-002     4.1525171923240123E-007
  -5.1799999999999985E-002    -7.4231041935490794E-007
  -5.0699999999999995E-002    -1.7168806607514853E-006
  -4.9599999999999991E-002    -1.4022373306943337E-006
  -4.8499999999999988E-002     4.9808863877842668E-007
  -4.7399999999999998E-002     2.7247515390627086E-006
  -4.6299999999999994E-002     3.0306007374747423E-006
  -4.5199999999999990E-002     1.3581035318566137E-007
  -4.4099999999999986E-002    -4.3571130845521111E-006
  -4.2999999999999997E-002    -6.2219537539931480E-006
  -4.1899999999999993E-002    -1.8908018546426320E-006
  -4.0799999999999989E-002     7.2642501436348539E-006
  -3.9699999999999985E-002     1.3787238458462525E-005
  -3.8599999999999995E-002     8.9547993411542848E-006
  -3.7499999999999992E-002    -8.6017253124737181E-006
  -3.6399999999999988E-002    -2.7674832381308079E-005
  -3.5299999999999984E-002    -2.9690936571569182E-005
  -3.4199999999999994E-002    -3.8351377042999957E-006
  -3.3099999999999991E-002     3.8725705962860957E-005
  -3.1999999999999987E-002     6.6000313381664455E-005
  -3.0899999999999997E-002     4.6830547944409773E-005
  -2.9799999999999993E-002    -1.9884797438862734E-005
  -2.8699999999999989E-002    -9.3403505161404610E-005
  -2.7599999999999986E-002    -1.1386610276531428E-004
  -2.6499999999999996E-002    -4.9572234274819493E-005
  -2.5399999999999992E-002     6.7367960582487285E-005
  -2.4299999999999988E-002     1.5305801935028285E-004
  -2.3199999999999985E-002     1.3328803470358253E-004
  -2.2099999999999995E-002     1.0659222425601911E-005
  -2.0999999999999991E-002    -1.2301691458560526E-004
  -1.9899999999999987E-002    -1.5338431694544852E-004
  -1.8799999999999983E-002    -4.5353241148404777E-005
  -1.7699999999999994E-002     1.0777361603686586E-004
  -1.6599999999999990E-002     1.4733553689438850E-004
  -1.5499999999999986E-002    -7.9044293670449406E-006
  -1.4399999999999996E-002    -2.5590526638552547E-004
  -1.3299999999999992E-002    -3.5435627796687186E-004
  -1.2199999999999989E-002    -1.1338644253555685E-004
  -1.1099999999999985E-002     4.0089702815748751E-004
  -9.9999999999999950E-003     8.3718466339632869E-004
  -8.8999999999999913E-003     7.7838986180722713E-004
  -7.7999999999999875E-003     8.1196660175919533E-005
  -6.6999999999999837E-003    -9.2698627850040793E-004
  -5.5999999999999939E-003    -1.5908319037407637E-003
  -4.4999999999999901E-003    -1.3611709000542760E-003
  -3.3999999999999864E-003    -2.2441554756369442E-004
  -2.2999999999999826E-003     1.2103070039302111E-003
  -1.1999999999999927E-003     2.0765061490237713E-003
  -9.9999999999988987E-005     1.8349550664424896E-003
   1.0000000000000148E-003     6.5191113390028477E-004
   2.1000000000000185E-003    -7.2548998286947608E-004
   3.2000000000000084E-003    -1.5181885100901127E-003
   4.3000000000000121E-003    -1.4721323968842626E-003
   5.4000000000000159E-003    -9.8163704387843609E-004
   6.5000000000000058E-003    -6.6918181255459785E-004
   7.6000000000000234E-003    -7.5844314415007830E-004
   8.7000000000000133E-003    -7.8425480751320720E-004
   9.8000000000000032E-003     4.3612930312519893E-005
   1.0900000000000021E-002     2.0303770434111357E-003
   1.2000000000000011E-002     4.3793278746306896E-003
   1.3100000000000001E-002     5.3817355073988438E-003
   1.4200000000000018E-002     3.4898843150585890E-003
   1.5300000000000008E-002    -1.3601956889033318E-003
   1.6400000000000026E-002    -7.1644280105829239E-003
   1.7500000000000016E-002    -1.0649182833731174E-002
   1.8600000000000005E-002    -9.1860918328166008E-003
   1.9700000000000023E-002    -2.6668931823223829E-003
   2.0800000000000013E-002     6.0064829885959625E-003
   2.1900000000000003E-002     1.2379208579659462E-002
   2.3000000000000020E-002     1.3083321042358875E-002
   2.4100000000000010E-002     7.9420581459999084E-003
   2.5200000000000000E-002     2.8234419005457312E-005
   2.6300000000000018E-002    -6.4605893567204475E-003
   2.7400000000000008E-002    -9.0231252834200859E-003
   2.8500000000000025E-002    -8.2611935213208199E-003
   2.9600000000000015E-002    -6.7611788399517536E-003
   3.0700000000000005E-002    -6.3388305716216564E-003
   3.1800000000000023E-002    -5.9981578961014748E-003
   3.2900000000000013E-002    -2.5793353561311960E-003
   3.4000000000000002E-002     6.0690641403198242E-003
   3.5100000000000020E-002     1.7872851341962814E-002
   3.6200000000000010E-002     2.6272648945450783E-002
   3.7300000000000028E-002     2.3934667930006981E-002
   3.8400000000000017E-002     8.2512004300951958E-003
   3.9500000000000007E-002    -1.5443244948983192E-002
   4.0600000000000025E-002    -3.5862538963556290E-002
   4.1700000000000015E-002    -4.2246274650096893E-002
   4.2800000000000005E-002    -3.1113510951399803E-002
   4.3900000000000022E-002    -8.5157556459307671E-003
   4.5000000000000012E-002     1.3960270211100578E-002
   4.6100000000000002E-002     2.6683423668146133E-002
   4.7200000000000020E-002     2.7613015845417976E-002
   4.8300000000000010E-002     2.2101482376456261E-002
   4.9400000000000027E-002     1.7287259921431541E-002
   5.0500000000000017E-002     1.5625208616256714E-002
   5.1600000000000007E-002     1.2787828221917152E-002
   5.2700000000000025E-002     1.8124926136806607E-003
   5.3800000000000014E-002    -1.9564028829336166E-002
   5.4900000000000004E-002    -4.4237125664949417E-002
   5.6000000000000022E-002    -5.8020334690809250E-002
   5.7100000000000012E-002    -4.8213128000497818E-002
   5.8200000000000002E-002    -1.2921626679599285E-002
   5.9300000000000019E-002     3.5562060773372650E-002
   6.0400000000000009E-002     7.6406516134738922E-002
   6.1500000000000027E-002     9.1898955404758453E-002
   6.2600000000000017E-002     7.7703543007373810E-002
   6.3700000000000007E-002     4.4898066669702530E-002
   6.4800000000000024E-002     1.2403190135955811E-002
   6.5900000000000014E-002    -4.8870211467146873E-003
   6.7000000000000004E-002    -3.8700720760971308E-003
   6.8100000000000022E-002     8.4786852821707726E-003
   6.9200000000000012E-002     2.4444000795483589E-002
   7.0300000000000029E-002     4.4548738747835159E-002
   7.1400000000000019E-002     7.8193798661231995E-002
   7.2500000000000009E-002    0.13457170128822327
   7.3600000000000027E-002    0.21095940470695496
   7.4700000000000016E-002    0.28890120983123779
   7.5800000000000006E-002    0.34368112683296204
   7.6900000000000024E-002    0.36205038428306580
   7.8000000000000014E-002    0.35544010996818542
   7.9100000000000004E-002    0.35759177803993225
   8.0200000000000021E-002    0.40627932548522949
   8.1300000000000011E-002    0.52086395025253296
   8.2400000000000029E-002    0.69147819280624390
   8.3500000000000019E-002    0.88788640499114990
   8.4600000000000009E-002     1.0815852880477905
   8.5700000000000026E-002     1.2655231952667236
   8.6800000000000016E-002     1.4572758674621582
   8.7900000000000006E-002     1.6842644214630127
   8.9000000000000024E-002     1.9628804922103882
   9.0100000000000013E-002     2.2874410152435303
   9.1200000000000003E-002     2.6367917060852051
   9.2300000000000021E-002     2.9932632446289062
   9.3400000000000011E-002     3.3591673374176025
   9.4500000000000028E-002     3.7585768699645996
   9.5600000000000018E-002     4.2226653099060059
   9.6700000000000008E-002     4.7686986923217773
   9.7800000000000026E-002     5.3879561424255371
   9.8900000000000016E-002     6.0495805740356445
  0.10000000000000001          6.7181735038757324
  0.10110000000000002          7.3734431266784668
  0.10220000000000001          8.0162591934204102
  0.10330000000000003          8.6595478057861328
  0.10440000000000002          9.3104133605957031
  0.10550000000000001          9.9553823471069336
  0.10660000000000003          10.560607910156250
  0.10770000000000002          11.086398124694824
  0.10880000000000001          11.505816459655762
  0.10990000000000003          11.808012962341309
  0.11100000000000002          11.988398551940918
  0.11210000000000001          12.025137901306152
  0.11320000000000002          11.865697860717773
  0.11430000000000001          11.432823181152344
  0.11540000000000003          10.647733688354492
  0.11650000000000002          9.4582004547119141
  0.11760000000000001          7.8433289527893066
  0.11870000000000003          5.7949919700622559
  0.11980000000000002          3.2899754047393799
  0.12090000000000001         0.26926806569099426
  0.12200000000000003         -3.3572521209716797
  0.12310000000000001         -7.6804590225219727
  0.12420000000000003         -12.764314651489258
  0.12530000000000002         -18.628770828247070
  0.12640000000000001         -25.268821716308594
  0.12750000000000003         -32.674758911132812
  0.12860000000000002         -40.862949371337891
  0.12970000000000001         -49.866672515869141
  0.13080000000000003         -59.718650817871094
  0.13190000000000002         -70.425682067871094
  0.13300000000000001         -81.960380554199219
  0.13410000000000000         -94.258125305175781
  0.13520000000000004         -107.23059844970703
  0.13630000000000003         -120.78323364257812
  0.13740000000000002         -134.80670166015625
  0.13850000000000001         -149.18873596191406
  0.13960000000000000         -163.79574584960938
  0.14070000000000005         -178.48002624511719
  0.14180000000000004         -193.06269836425781
  0.14290000000000003         -207.34930419921875
  0.14400000000000002         -221.12484741210938
  0.14510000000000001         -234.17704772949219
  0.14620000000000000         -246.28651428222656
  0.14730000000000004         -257.22830200195312
  0.14840000000000003         -266.76214599609375
  0.14950000000000002         -274.62969970703125
  0.15060000000000001         -280.56271362304688
  0.15170000000000000         -284.31201171875000
  0.15280000000000005         -285.66308593750000
  0.15390000000000004         -284.43704223632812
  0.15500000000000003         -280.48355102539062
  0.15610000000000002         -273.67028808593750
  0.15720000000000001         -263.88446044921875
  0.15830000000000000         -251.04418945312500
  0.15940000000000004         -235.10548400878906
  0.16050000000000003         -216.06539916992188
  0.16160000000000002         -193.95358276367188
  0.16270000000000001         -168.84001159667969
  0.16380000000000000         -140.84147644042969
  0.16490000000000005         -110.14069366455078
  0.16600000000000004         -76.998710632324219
  0.16710000000000003         -41.740638732910156
  0.16820000000000002         -4.7161083221435547
  0.16930000000000001          33.715255737304688
  0.17040000000000000          73.185783386230469
  0.17150000000000004          113.30429077148438
  0.17260000000000003          153.63128662109375
  0.17370000000000002          193.70706176757812
  0.17480000000000001          233.02944946289062
  0.17590000000000000          271.11093139648438
  0.17700000000000005          307.46459960937500
  0.17810000000000004          341.62286376953125
  0.17920000000000003          373.12005615234375
  0.18030000000000002          401.53732299804688
  0.18140000000000001          426.48629760742188
  0.18250000000000000          447.66827392578125
  0.18360000000000004          464.83773803710938
  0.18470000000000003          477.79885864257812
  0.18580000000000002          486.37994384765625
  0.18690000000000001          490.43005371093750
  0.18800000000000000          489.84768676757812
  0.18910000000000005          484.61288452148438
  0.19020000000000004          474.79272460937500
  0.19130000000000003          460.55703735351562
  0.19240000000000002          442.16366577148438
  0.19350000000000001          419.93252563476562
  0.19460000000000005          394.21945190429688
  0.19570000000000004          365.39373779296875
  0.19680000000000003          333.81967163085938
  0.19790000000000002          299.86700439453125
  0.19900000000000001          263.93804931640625
  0.20010000000000000          226.49273681640625
  0.20120000000000005          188.05534362792969
  0.20230000000000004          149.17953491210938
  0.20340000000000003          110.39846038818359
  0.20450000000000002          72.185958862304688
  0.20560000000000000          34.959556579589844
  0.20670000000000005        -0.88732069730758667
  0.20780000000000004         -34.961467742919922
  0.20890000000000003         -66.883605957031250
