 -0.12000000000000000          0.0000000000000000
 -0.11889999999999999          0.0000000000000000
 -0.11780000000000000          0.0000000000000000
 -0.11670000000000000          0.0000000000000000
 -0.11559999999999999          0.0000000000000000
 -0.11449999999999999          0.0000000000000000
 -0.11340000000000000          0.0000000000000000
 -0.11230000000000000          0.0000000000000000
 -0.11119999999999999          0.0000000000000000
 -0.11009999999999999          0.0000000000000000
 -0.10900000000000000         -1.0652039340784354E-020
 -0.10790000000000000         -2.8735449917699503E-020
 -0.10679999999999999          2.7151130857196229E-019
 -0.10569999999999999          1.3846307588447373E-018
 -0.10460000000000000         -8.9533750329282979E-019
 -0.10349999999999999         -2.1908220976240535E-017
 -0.10239999999999999         -4.9583144827784303E-017
 -0.10130000000000000          8.8328635444347842E-017
 -0.10020000000000000          6.8501476150454352E-016
  -9.9099999999999994E-002     1.1392201387832234E-015
  -9.7999999999999990E-002    -1.8483112294783192E-015
  -9.6899999999999986E-002    -1.1988659542915611E-014
  -9.5799999999999996E-002    -1.9085891856751927E-014
  -9.4699999999999993E-002     1.8129566248313404E-014
  -9.3599999999999989E-002     1.3888685394900652E-013
  -9.2499999999999999E-002     2.3924287030629987E-013
  -9.1399999999999995E-002    -6.5708458910507944E-014
  -9.0299999999999991E-002    -1.1493058024378278E-012
  -8.9200000000000002E-002    -2.2882819770975171E-012
  -8.8099999999999984E-002    -6.4525630932149580E-013
  -8.6999999999999994E-002     6.9007035329027300E-012
  -8.5899999999999990E-002     1.6913507053240018E-011
  -8.4799999999999986E-002     1.2479056850367432E-011
  -8.3699999999999997E-002    -2.8458863737812479E-011
  -8.2599999999999993E-002    -9.7003655108451881E-011
  -8.1499999999999989E-002    -1.1139545535998607E-010
  -8.0399999999999999E-002     5.7696885463753844E-011
  -7.9299999999999995E-002     4.2712303138792151E-010
  -7.8199999999999992E-002     6.8145533660413093E-010
  -7.7100000000000002E-002     1.9495247083334277E-010
  -7.5999999999999984E-002    -1.3768604034680720E-009
  -7.4899999999999994E-002    -3.1124050003938919E-009
  -7.3799999999999991E-002    -2.5221913446671351E-009
  -7.2699999999999987E-002     2.6733764091346757E-009
  -7.1599999999999997E-002     1.0797711169630020E-008
  -7.0499999999999993E-002     1.3788560515592962E-008
  -6.9399999999999989E-002     1.2595007259363911E-009
  -6.8300000000000000E-002    -2.7466713348189842E-008
  -6.7199999999999996E-002    -5.1743725748565339E-008
  -6.6099999999999992E-002    -3.5015823129924684E-008
  -6.5000000000000002E-002     4.2891212359563724E-008
  -6.3899999999999985E-002     1.4363287448304618E-007
  -6.2799999999999995E-002     1.6446766437638871E-007
  -6.1699999999999991E-002     8.9023650673425436E-009
  -6.0599999999999994E-002    -2.8937608931300929E-007
  -5.9499999999999990E-002    -4.9953200687014032E-007
  -5.8399999999999994E-002    -3.1175378012449073E-007
  -5.7299999999999990E-002     3.5945879517385038E-007
  -5.6199999999999986E-002     1.1120803264930146E-006
  -5.5099999999999996E-002     1.1738526382032433E-006
  -5.3999999999999992E-002     2.6747214221245486E-008
  -5.2899999999999989E-002    -1.8460895034877467E-006
  -5.1799999999999985E-002    -2.8711624509014655E-006
  -5.0699999999999995E-002    -1.4682563005408156E-006
  -4.9599999999999991E-002     2.2091535356594250E-006
  -4.8499999999999988E-002     5.4547203944821376E-006
  -4.7399999999999998E-002     4.5670517465623561E-006
  -4.6299999999999994E-002    -1.6180553075173520E-006
  -4.5199999999999990E-002    -9.0785006250371225E-006
  -4.4099999999999986E-002    -1.0281666618539020E-005
  -4.2999999999999997E-002    -6.5121827219627448E-007
  -4.1899999999999993E-002     1.4803131307417061E-005
  -4.0799999999999989E-002     2.1940297301625833E-005
  -3.9699999999999985E-002     8.2190499597345479E-006
  -3.8599999999999995E-002    -2.2736869141226634E-005
  -3.7499999999999992E-002    -4.6595108869951218E-005
  -3.6399999999999988E-002    -3.3679421903798357E-005
  -3.5299999999999984E-002     2.2360341972671449E-005
  -3.4199999999999994E-002     8.6361374997068197E-005
  -3.3099999999999991E-002     9.7701376944314688E-005
  -3.1999999999999987E-002     1.9543231246643700E-005
  -3.0899999999999997E-002    -1.1414708569645882E-004
  -2.9799999999999993E-002    -2.0169855270069093E-004
  -2.8699999999999989E-002    -1.4391224249266088E-004
  -2.7599999999999986E-002     6.1516613641288131E-005
  -2.6499999999999996E-002     2.8358527924865484E-004
  -2.5399999999999992E-002     3.3433211501687765E-004
  -2.4299999999999988E-002     1.2239963689353317E-004
  -2.3199999999999985E-002    -2.3694700212217867E-004
  -2.2099999999999995E-002    -4.7133356565609574E-004
  -2.0999999999999991E-002    -3.5851873690262437E-004
  -1.9899999999999987E-002     6.0618491261266172E-005
  -1.8799999999999983E-002     4.6197010669857264E-004
  -1.7699999999999994E-002     4.7867899411357939E-004
  -1.6599999999999990E-002     3.9093843952286988E-005
  -1.5499999999999986E-002    -4.9624999519437551E-004
  -1.4399999999999996E-002    -5.8168440591543913E-004
  -1.3299999999999992E-002     2.0129480617470108E-005
  -1.2199999999999989E-002     9.0819684555754066E-004
  -1.1099999999999985E-002     1.2389717157930136E-003
  -9.9999999999999950E-003     4.0797659312374890E-004
  -8.8999999999999913E-003    -1.2891367077827454E-003
  -7.7999999999999875E-003    -2.6345476508140564E-003
  -6.6999999999999837E-003    -2.2959643974900246E-003
  -5.5999999999999939E-003     4.4064319808967412E-005
  -4.4999999999999901E-003     3.1447915825992823E-003
  -3.3999999999999864E-003     4.8426869325339794E-003
  -2.2999999999999826E-003     3.5706933122128248E-003
  -1.1999999999999927E-003    -3.2601927523501217E-004
  -9.9999999999988987E-005    -4.5687882229685783E-003
   1.0000000000000148E-003    -6.4058038406074047E-003
   2.1000000000000185E-003    -4.5680147595703602E-003
   3.2000000000000084E-003    -2.3737328592687845E-004
   4.3000000000000121E-003     3.7918903399258852E-003
   5.4000000000000159E-003     5.1880865357816219E-003
   6.5000000000000058E-003     3.7872849497944117E-003
   7.6000000000000234E-003     1.5295383054763079E-003
   8.7000000000000133E-003     6.0956727247685194E-004
   9.8000000000000032E-003     1.3403121847659349E-003
   1.0900000000000021E-002     1.6252035275101662E-003
   1.2000000000000011E-002    -1.2352545745670795E-003
   1.3100000000000001E-002    -7.6258741319179535E-003
   1.4200000000000018E-002    -1.4024596661329269E-002
   1.5300000000000008E-002    -1.4542907476425171E-002
   1.6400000000000026E-002    -5.1538324914872646E-003
   1.7500000000000016E-002     1.2176548130810261E-002
   1.8600000000000005E-002     2.8825901448726654E-002
   1.9700000000000023E-002     3.3750113099813461E-002
   2.0800000000000013E-002     2.0603206008672714E-002
   2.1900000000000003E-002    -6.8596540950238705E-003
   2.3000000000000020E-002    -3.5319909453392029E-002
   2.4100000000000010E-002    -4.9005754292011261E-002
   2.5200000000000000E-002    -3.9351023733615875E-002
   2.6300000000000018E-002    -1.0793717578053474E-002
   2.7400000000000008E-002     2.1652396768331528E-002
   2.8500000000000025E-002     4.1862893849611282E-002
   2.9600000000000015E-002     4.2647574096918106E-002
   3.0700000000000005E-002     2.9090436175465584E-002
   3.1800000000000023E-002     1.2704885564744473E-002
   3.2900000000000013E-002     1.1402938980609179E-003
   3.4000000000000002E-002    -7.8617129474878311E-003
   3.5100000000000020E-002    -2.2584136575460434E-002
   3.6200000000000010E-002    -4.6180088073015213E-002
   3.7300000000000028E-002    -6.8062067031860352E-002
   3.8400000000000017E-002    -6.7176237702369690E-002
   3.9500000000000007E-002    -2.7549142017960548E-002
   4.0600000000000025E-002     4.4565849006175995E-002
   4.1700000000000015E-002    0.11656572669744492
   4.2800000000000005E-002    0.14526933431625366
   4.3900000000000022E-002    0.10458870977163315
   4.5000000000000012E-002     6.2843002378940582E-003
   4.6100000000000002E-002   -0.10250432789325714
   4.7200000000000020E-002   -0.16583794355392456
   4.8300000000000010E-002   -0.15295334160327911
   4.9400000000000027E-002    -7.6508015394210815E-002
   5.0500000000000017E-002     1.7663549631834030E-002
   5.1600000000000007E-002     8.1901051104068756E-002
   5.2700000000000025E-002     9.6675164997577667E-002
   5.3800000000000014E-002     7.7987112104892731E-002
   5.4900000000000004E-002     5.8098696172237396E-002
   5.6000000000000022E-002     5.5612031370401382E-002
   5.7100000000000012E-002     5.8974750339984894E-002
   5.8200000000000002E-002     3.7169691175222397E-002
   5.9300000000000019E-002    -2.9933724552392960E-002
   6.0400000000000009E-002   -0.12548477947711945
   6.1500000000000027E-002   -0.19650512933731079
   6.2600000000000017E-002   -0.18541337549686432
   6.3700000000000007E-002    -7.2340056300163269E-002
   6.4800000000000024E-002    0.10246869921684265
   6.5900000000000014E-002    0.25563323497772217
   6.7000000000000004E-002    0.30953148007392883
   6.8100000000000022E-002    0.24151498079299927
   6.9200000000000012E-002     9.8874308168888092E-002
   7.0300000000000029E-002    -3.2618492841720581E-002
   7.1400000000000019E-002    -8.5524000227451324E-002
   7.2500000000000009E-002    -5.2064895629882812E-002
   7.3600000000000027E-002     2.0701473578810692E-002
   7.4700000000000016E-002     7.7821597456932068E-002
   7.5800000000000006E-002    0.10762471705675125
   7.6900000000000024E-002    0.15376590192317963
   7.8000000000000014E-002    0.27478197216987610
   7.9100000000000004E-002    0.48193258047103882
   8.0200000000000021E-002    0.70881891250610352
   8.1300000000000011E-002    0.84615671634674072
   8.2400000000000029E-002    0.82380288839340210
   8.3500000000000019E-002    0.67940050363540649
   8.4600000000000009E-002    0.55502927303314209
   8.5700000000000026E-002    0.61375880241394043
   8.6800000000000016E-002    0.93044674396514893
   8.7900000000000006E-002     1.4364242553710938
   8.9000000000000024E-002     1.9633833169937134
   9.0100000000000013E-002     2.3594484329223633
   9.1200000000000003E-002     2.5956234931945801
   9.2300000000000021E-002     2.7849187850952148
   9.3400000000000011E-002     3.0994501113891602
   9.4500000000000028E-002     3.6455309391021729
   9.5600000000000018E-002     4.3883886337280273
   9.6700000000000008E-002     5.1820106506347656
   9.7800000000000026E-002     5.8826403617858887
   9.8900000000000016E-002     6.4629592895507812
  0.10000000000000001          7.0424237251281738
  0.10110000000000002          7.8091616630554199
  0.10220000000000001          8.8869733810424805
  0.10330000000000003          10.242523193359375
  0.10440000000000002          11.700119018554688
  0.10550000000000001          13.058489799499512
  0.10660000000000003          14.226968765258789
  0.10770000000000002          15.284755706787109
  0.10880000000000001          16.417104721069336
  0.10990000000000003          17.770786285400391
  0.11100000000000002          19.329570770263672
  0.11210000000000001          20.909416198730469
  0.11320000000000002          22.277961730957031
  0.11430000000000001          23.316453933715820
  0.11540000000000003          24.093244552612305
  0.11650000000000002          24.794198989868164
  0.11760000000000001          25.543573379516602
  0.11870000000000003          26.261713027954102
  0.11980000000000002          26.667413711547852
  0.12090000000000001          26.442186355590820
  0.12200000000000003          25.425592422485352
  0.12310000000000001          23.704797744750977
  0.12420000000000003          21.510795593261719
  0.12530000000000002          18.999893188476562
  0.12640000000000001          16.077533721923828
  0.12750000000000003          12.403980255126953
  0.12860000000000002          7.5871295928955078
  0.12970000000000001          1.4081839323043823
  0.13080000000000003         -6.0533704757690430
  0.13190000000000002         -14.513309478759766
  0.13300000000000001         -23.699609756469727
  0.13410000000000000         -33.558063507080078
  0.13520000000000004         -44.294559478759766
  0.13630000000000003         -56.228332519531250
  0.13740000000000002         -69.582717895507812
  0.13850000000000001         -84.323989868164062
  0.13960000000000000         -100.17692565917969
  0.14070000000000005         -116.77542114257812
  0.14180000000000004         -133.84666442871094
  0.14290000000000003         -151.30310058593750
  0.14400000000000002         -169.18576049804688
  0.14510000000000001         -187.51713562011719
  0.14620000000000000         -206.14175415039062
  0.14730000000000004         -224.69647216796875
  0.14840000000000003         -242.72804260253906
  0.14950000000000002         -259.85092163085938
  0.15060000000000001         -275.85598754882812
  0.15170000000000000         -290.65554809570312
  0.15280000000000005         -304.12957763671875
  0.15390000000000004         -315.97689819335938
  0.15500000000000003         -325.69653320312500
  0.15610000000000002         -332.73983764648438
  0.15720000000000001         -336.71359252929688
  0.15830000000000000         -337.48345947265625
  0.15940000000000004         -335.09686279296875
  0.16050000000000003         -329.58917236328125
  0.16160000000000002         -320.82101440429688
  0.16270000000000001         -308.48654174804688
  0.16380000000000000         -292.27395629882812
  0.16490000000000005         -272.04534912109375
  0.16600000000000004         -247.91557312011719
  0.16710000000000003         -220.15011596679688
  0.16820000000000002         -189.02862548828125
  0.16930000000000001         -154.75093078613281
  0.17040000000000000         -117.47755432128906
  0.17150000000000004         -77.423721313476562
  0.17260000000000003         -34.958358764648438
  0.17370000000000002          9.4075384140014648
  0.17480000000000001          55.115867614746094
  0.17590000000000000          101.62185668945312
  0.17700000000000005          148.44038391113281
  0.17810000000000004          195.08036804199219
  0.17920000000000003          241.03286743164062
  0.18030000000000002          285.72622680664062
  0.18140000000000001          328.55795288085938
  0.18250000000000000          368.90231323242188
  0.18360000000000004          406.18319702148438
  0.18470000000000003          439.90386962890625
  0.18580000000000002          469.66983032226562
  0.18690000000000001          495.19387817382812
  0.18800000000000000          516.22473144531250
  0.18910000000000005          532.47796630859375
  0.19020000000000004          543.63458251953125
  0.19130000000000003          549.40979003906250
  0.19240000000000002          549.66174316406250
  0.19350000000000001          544.44970703125000
  0.19460000000000005          534.00299072265625
  0.19570000000000004          518.60455322265625
  0.19680000000000003          498.51104736328125
  0.19790000000000002          473.96127319335938
  0.19900000000000001          445.26281738281250
  0.20010000000000000          412.86041259765625
  0.20120000000000005          377.30722045898438
  0.20230000000000004          339.15313720703125
  0.20340000000000003          298.86987304687500
  0.20450000000000002          256.86477661132812
  0.20560000000000000          213.60238647460938
  0.20670000000000005          169.68168640136719
  0.20780000000000004          125.81015014648438
  0.20890000000000003          82.660583496093750
