 -0.12000000000000000          0.0000000000000000
 -0.11889999999999999          0.0000000000000000
 -0.11780000000000000          0.0000000000000000
 -0.11670000000000000          0.0000000000000000
 -0.11559999999999999          0.0000000000000000
 -0.11449999999999999          0.0000000000000000
 -0.11340000000000000         -4.6699731755250884E-012
 -0.11230000000000000         -8.2836905737626587E-012
 -0.11119999999999999          6.0559300629758894E-011
 -0.11009999999999999          2.2603391380826565E-010
 -0.10900000000000000         -7.4524428295141831E-011
 -0.10790000000000000         -2.0078836371340003E-009
 -0.10679999999999999         -4.4535153342906142E-009
 -0.10569999999999999          6.6217326066819737E-010
 -0.10460000000000000          2.3572765073254232E-008
 -0.10349999999999999          5.0346866231620879E-008
 -0.10239999999999999          1.5928117491625926E-008
 -0.10130000000000000         -1.5238681783102948E-007
 -0.10020000000000000         -3.7538157471317390E-007
  -9.9099999999999994E-002    -2.8190876832923095E-007
  -9.7999999999999990E-002     5.7266527164756553E-007
  -9.6899999999999986E-002     1.9567853541957447E-006
  -9.5799999999999996E-002     2.2715441900800215E-006
  -9.4699999999999993E-002    -7.3272690315207001E-007
  -9.3599999999999989E-002    -7.1040503826225176E-006
  -9.2499999999999999E-002    -1.1630763765424490E-005
  -9.1399999999999995E-002    -5.1932984206359833E-006
  -9.0299999999999991E-002     1.6414967831224203E-005
  -8.9200000000000002E-002     4.1014111047843471E-005
  -8.8099999999999984E-002     3.9482514694100246E-005
  -8.6999999999999994E-002    -1.2497846910264343E-005
  -8.5899999999999990E-002    -9.8881384474225342E-005
  -8.4799999999999986E-002    -1.4784584345761687E-004
  -8.3699999999999997E-002    -7.2296032158192247E-005
  -8.2599999999999993E-002     1.4017378271091729E-004
  -8.1499999999999989E-002     3.5909216967411339E-004
  -8.0399999999999999E-002     3.5878538619726896E-004
  -7.9299999999999995E-002     2.1741482214565622E-006
  -7.8199999999999992E-002    -5.6156265782192349E-004
  -7.7100000000000002E-002    -8.9331343770027161E-004
  -7.5999999999999984E-002    -5.6176207726821303E-004
  -7.4899999999999994E-002     4.2088172631338239E-004
  -7.3799999999999991E-002     1.4140855055302382E-003
  -7.2699999999999987E-002     1.5163173666223884E-003
  -7.1599999999999997E-002     3.3949842327274382E-004
  -7.0499999999999993E-002    -1.4340021880343556E-003
  -6.9399999999999989E-002    -2.3543685674667358E-003
  -6.8300000000000000E-002    -1.3682588469237089E-003
  -6.7199999999999996E-002     1.0316000552847981E-003
  -6.6099999999999992E-002     2.8316630050539970E-003
  -6.5000000000000002E-002     2.0545655861496925E-003
  -6.3899999999999985E-002    -1.2270509032532573E-003
  -6.2799999999999995E-002    -4.2996420525014400E-003
  -6.1699999999999991E-002    -3.6882392596453428E-003
  -6.0599999999999994E-002     1.5783073613420129E-003
  -5.9499999999999990E-002     8.0966083332896233E-003
  -5.8399999999999994E-002     9.8617030307650566E-003
  -5.7299999999999990E-002     3.0852754134684801E-003
  -5.6199999999999986E-002    -9.5739401876926422E-003
  -5.5099999999999996E-002    -1.9398294389247894E-002
  -5.3999999999999992E-002    -1.7430638894438744E-002
  -5.2899999999999989E-002    -1.8837009556591511E-003
  -5.1799999999999985E-002     1.8864555284380913E-002
  -5.0699999999999995E-002     3.0988130718469620E-002
  -4.9599999999999991E-002     2.4960465729236603E-002
  -4.8499999999999988E-002     3.1165170948952436E-003
  -4.7399999999999998E-002    -2.1201018244028091E-002
  -4.6299999999999994E-002    -3.2879225909709930E-002
  -4.5199999999999990E-002    -2.5871368125081062E-002
  -4.4099999999999986E-002    -7.2084851562976837E-003
  -4.2999999999999997E-002     9.0780258178710938E-003
  -4.1899999999999993E-002     1.3340204022824764E-002
  -4.0799999999999989E-002     7.7890255488455296E-003
  -3.9699999999999985E-002     3.8074427284300327E-003
  -3.8599999999999995E-002     1.1042674072086811E-002
  -3.7499999999999992E-002     2.7172842994332314E-002
  -3.6399999999999988E-002     3.7295095622539520E-002
  -3.5299999999999984E-002     2.4699270725250244E-002
  -3.4199999999999994E-002    -1.4323658309876919E-002
  -3.3099999999999991E-002    -6.3095435500144958E-002
  -3.1999999999999987E-002    -9.1726422309875488E-002
  -3.0899999999999997E-002    -7.5884200632572174E-002
  -2.9799999999999993E-002    -1.5203368850052357E-002
  -2.8699999999999989E-002     6.1943117529153824E-002
  -2.7599999999999986E-002    0.11260823905467987
  -2.6499999999999996E-002    0.10503941774368286
  -2.5399999999999992E-002     3.9832264184951782E-002
  -2.4299999999999988E-002    -4.8162072896957397E-002
  -2.3199999999999985E-002   -0.10966517031192780
  -2.2099999999999995E-002   -0.10997357219457626
  -2.0999999999999991E-002    -4.7487135976552963E-002
  -1.9899999999999987E-002     5.0796233117580414E-002
  -1.8799999999999983E-002    0.15226683020591736
  -1.7699999999999994E-002    0.24125602841377258
  -1.6599999999999990E-002    0.32269215583801270
  -1.5499999999999986E-002    0.40464827418327332
  -1.4399999999999996E-002    0.47706392407417297
  -1.3299999999999992E-002    0.50964176654815674
  -1.2199999999999989E-002    0.47685736417770386
  -1.1099999999999985E-002    0.39289513230323792
  -9.9999999999999950E-003    0.32544967532157898
  -8.8999999999999913E-003    0.36910501122474670
  -7.7999999999999875E-003    0.59009313583374023
  -6.6999999999999837E-003    0.98054164648056030
  -5.5999999999999939E-003     1.4588493108749390
  -4.4999999999999901E-003     1.9214675426483154
  -3.3999999999999864E-003     2.3127055168151855
  -2.2999999999999826E-003     2.6635460853576660
  -1.1999999999999927E-003     3.0715134143829346
  -9.9999999999988987E-005     3.6365799903869629
   1.0000000000000148E-003     4.4004788398742676
   2.1000000000000185E-003     5.3338565826416016
   3.2000000000000084E-003     6.3797430992126465
   4.3000000000000121E-003     7.5198874473571777
   5.4000000000000159E-003     8.8140630722045898
   6.5000000000000058E-003     10.382758140563965
   7.6000000000000234E-003     12.345243453979492
   8.7000000000000133E-003     14.757404327392578
   9.8000000000000032E-003     17.593635559082031
   1.0900000000000021E-002     20.786043167114258
   1.2000000000000011E-002     24.293878555297852
   1.3100000000000001E-002     28.155502319335938
   1.4200000000000018E-002     32.488250732421875
   1.5300000000000008E-002     37.438365936279297
   1.6400000000000026E-002     43.118591308593750
   1.7500000000000016E-002     49.578166961669922
   1.8600000000000005E-002     56.824592590332031
   1.9700000000000023E-002     64.875740051269531
   2.0800000000000013E-002     73.797119140625000
   2.1900000000000003E-002     83.689933776855469
   2.3000000000000020E-002     94.637329101562500
   2.4100000000000010E-002     106.65221405029297
   2.5200000000000000E-002     119.67381286621094
   2.6300000000000018E-002     133.62426757812500
   2.7400000000000008E-002     148.48442077636719
   2.8500000000000025E-002     164.32717895507812
   2.9600000000000015E-002     181.27481079101562
   3.0700000000000005E-002     199.39880371093750
   3.1800000000000023E-002     218.63024902343750
   3.2900000000000013E-002     238.74186706542969
   3.4000000000000002E-002     259.41381835937500
   3.5100000000000020E-002     280.33676147460938
   3.6200000000000010E-002     301.28448486328125
   3.7300000000000028E-002     322.11074829101562
   3.8400000000000017E-002     342.68292236328125
   3.9500000000000007E-002     362.80010986328125
   4.0600000000000025E-002     382.14398193359375
   4.1700000000000015E-002     400.28204345703125
   4.2800000000000005E-002     416.70425415039062
   4.3900000000000022E-002     430.86163330078125
   4.5000000000000012E-002     442.19409179687500
   4.6100000000000002E-002     450.13873291015625
   4.7200000000000020E-002     454.14270019531250
   4.8300000000000010E-002     453.67431640625000
   4.9400000000000027E-002     448.24258422851562
   5.0500000000000017E-002     437.40408325195312
   5.1600000000000007E-002     420.74456787109375
   5.2700000000000025E-002     397.85067749023438
   5.3800000000000014E-002     368.27737426757812
   5.4900000000000004E-002     331.55059814453125
   5.6000000000000022E-002     287.21588134765625
   5.7100000000000012E-002     234.92054748535156
   5.8200000000000002E-002     174.50590515136719
   5.9300000000000019E-002     106.04684448242188
   6.0400000000000009E-002     29.835382461547852
   6.1500000000000027E-002    -53.694057464599609
   6.2600000000000017E-002    -144.03907775878906
   6.3700000000000007E-002    -240.65924072265625
   6.4800000000000024E-002    -342.94161987304688
   6.5900000000000014E-002    -450.14758300781250
   6.7000000000000004E-002    -561.36328125000000
   6.8100000000000022E-002    -675.48608398437500
   6.9200000000000012E-002    -791.23364257812500
   7.0300000000000029E-002    -907.15655517578125
   7.1400000000000019E-002    -1021.6482543945312
   7.2500000000000009E-002    -1132.9739990234375
   7.3600000000000027E-002    -1239.3367919921875
   7.4700000000000016E-002    -1338.9633789062500
   7.5800000000000006E-002    -1430.1746826171875
   7.6900000000000024E-002    -1511.3947753906250
   7.8000000000000014E-002    -1581.1085205078125
   7.9100000000000004E-002    -1637.8177490234375
   8.0200000000000021E-002    -1680.0538330078125
   8.1300000000000011E-002    -1706.4573974609375
   8.2400000000000029E-002    -1715.8774414062500
   8.3500000000000019E-002    -1707.4272460937500
   8.4600000000000009E-002    -1680.4820556640625
   8.5700000000000026E-002    -1634.6464843750000
   8.6800000000000016E-002    -1569.7606201171875
   8.7900000000000006E-002    -1485.9536132812500
   8.9000000000000024E-002    -1383.7138671875000
   9.0100000000000013E-002    -1263.9019775390625
   9.1200000000000003E-002    -1127.6977539062500
   9.2300000000000021E-002    -976.52062988281250
   9.3400000000000011E-002    -811.97186279296875
   9.4500000000000028E-002    -635.85321044921875
   9.5600000000000018E-002    -450.19531250000000
   9.6700000000000008E-002    -257.27755737304688
   9.7800000000000026E-002    -59.552650451660156
   9.8900000000000016E-002     140.43617248535156
  0.10000000000000001          340.12890625000000
  0.10110000000000002          536.95593261718750
  0.10220000000000001          728.33819580078125
  0.10330000000000003          911.70721435546875
  0.10440000000000002          1084.6099853515625
  0.10550000000000001          1244.8098144531250
  0.10660000000000003          1390.3580322265625
  0.10770000000000002          1519.5872802734375
  0.10880000000000001          1631.0601806640625
  0.10990000000000003          1723.5639648437500
  0.11100000000000002          1796.1508789062500
  0.11210000000000001          1848.2109375000000
  0.11320000000000002          1879.5100097656250
  0.11430000000000001          1890.1519775390625
  0.11540000000000003          1880.5142822265625
  0.11650000000000002          1851.2186279296875
  0.11760000000000001          1803.1564941406250
  0.11870000000000003          1737.5478515625000
  0.11980000000000002          1655.9296875000000
  0.12090000000000001          1560.0686035156250
  0.12200000000000003          1451.8197021484375
  0.12310000000000001          1333.0421142578125
  0.12420000000000003          1205.6151123046875
  0.12530000000000002          1071.4952392578125
  0.12640000000000001          932.75103759765625
  0.12750000000000003          791.47253417968750
  0.12860000000000002          649.65618896484375
  0.12970000000000001          509.10739135742188
  0.13080000000000003          371.45312500000000
  0.13190000000000002          238.21493530273438
  0.13300000000000001          110.86769866943359
  0.13410000000000000         -9.2466020584106445
  0.13520000000000004         -121.01245117187500
  0.13630000000000003         -223.64738464355469
  0.13740000000000002         -316.64041137695312
  0.13850000000000001         -399.64602661132812
  0.13960000000000000         -472.37612915039062
  0.14070000000000005         -534.62121582031250
  0.14180000000000004         -586.37255859375000
  0.14290000000000003         -627.90356445312500
  0.14400000000000002         -659.70922851562500
  0.14510000000000001         -682.35754394531250
  0.14620000000000000         -696.34918212890625
  0.14730000000000004         -702.12915039062500
  0.14840000000000003         -700.24652099609375
  0.14950000000000002         -691.48022460937500
  0.15060000000000001         -676.80889892578125
  0.15170000000000000         -657.20599365234375
  0.15280000000000005         -633.44024658203125
  0.15390000000000004         -606.04742431640625
  0.15500000000000003         -575.50170898437500
  0.15610000000000002         -542.43151855468750
  0.15720000000000001         -507.65780639648438
  0.15830000000000000         -472.01916503906250
  0.15940000000000004         -436.11825561523438
  0.16050000000000003         -400.27212524414062
  0.16160000000000002         -364.64843750000000
  0.16270000000000001         -329.55264282226562
  0.16380000000000000         -295.52252197265625
  0.16490000000000005         -263.14666748046875
  0.16600000000000004         -232.80245971679688
  0.16710000000000003         -204.51434326171875
  0.16820000000000002         -178.12738037109375
  0.16930000000000001         -153.61192321777344
  0.17040000000000000         -131.23515319824219
  0.17150000000000004         -111.41029357910156
  0.17260000000000003         -94.409927368164062
  0.17370000000000002         -80.145545959472656
  0.17480000000000001         -68.270706176757812
  0.17590000000000000         -58.480766296386719
  0.17700000000000005         -50.764606475830078
  0.17810000000000004         -45.324333190917969
  0.17920000000000003         -42.290824890136719
  0.18030000000000002         -41.506740570068359
  0.18140000000000001         -42.550262451171875
  0.18250000000000000         -44.996444702148438
  0.18360000000000004         -48.650428771972656
  0.18470000000000003         -53.506168365478516
  0.18580000000000002         -59.511516571044922
  0.18690000000000001         -66.333427429199219
  0.18800000000000000         -73.408996582031250
  0.18910000000000005         -80.183883666992188
  0.19020000000000004         -86.347366333007812
  0.19130000000000003         -91.821029663085938
  0.19240000000000002         -96.519920349121094
  0.19350000000000001         -100.13883209228516
  0.19460000000000005         -102.16622161865234
  0.19570000000000004         -102.09346008300781
  0.19680000000000003         -99.631347656250000
  0.19790000000000002         -94.701049804687500
  0.19900000000000001         -87.274131774902344
  0.20010000000000000         -77.195831298828125
  0.20120000000000005         -64.233032226562500
  0.20230000000000004         -48.211444854736328
  0.20340000000000003         -29.156246185302734
  0.20450000000000002         -7.2515573501586914
  0.20560000000000000          17.327520370483398
  0.20670000000000005          44.466300964355469
  0.20780000000000004          74.047370910644531
  0.20890000000000003          105.81797790527344
