 -0.12000000000000000          0.0000000000000000
 -0.11889999999999999          0.0000000000000000
 -0.11780000000000000          0.0000000000000000
 -0.11670000000000000          0.0000000000000000
 -0.11559999999999999          0.0000000000000000
 -0.11449999999999999          0.0000000000000000
 -0.11340000000000000          0.0000000000000000
 -0.11230000000000000          0.0000000000000000
 -0.11119999999999999          0.0000000000000000
 -0.11009999999999999          0.0000000000000000
 -0.10900000000000000          0.0000000000000000
 -0.10790000000000000         -8.8763695781360137E-039
 -0.10679999999999999         -3.5236261972616742E-037
 -0.10569999999999999         -5.1246430997081672E-036
 -0.10460000000000000         -4.0753025959862613E-035
 -0.10349999999999999         -2.0866817815158088E-034
 -0.10239999999999999         -7.3532635855955484E-034
 -0.10130000000000000         -1.7736455695931701E-033
 -0.10020000000000000         -2.5114423948348710E-033
  -9.9099999999999994E-002     1.4740222762675166E-034
  -9.7999999999999990E-002     1.0312400350780780E-032
  -9.6899999999999986E-002     2.3567743379025285E-032
  -9.5799999999999996E-002     1.1154273976476348E-032
  -9.4699999999999993E-002    -7.0603035406715578E-032
  -9.3599999999999989E-002    -1.8716110557323484E-031
  -9.2499999999999999E-002    -7.2254816558604040E-032
  -9.1399999999999995E-002     6.6376606594040286E-031
  -9.0299999999999991E-002     1.5942263153648569E-030
  -8.9200000000000002E-002     5.0505067028621581E-033
  -8.8099999999999984E-002    -7.8435031710594614E-030
  -8.6999999999999994E-002    -1.7230682826895595E-029
  -8.5899999999999990E-002    -4.4982421329978521E-031
  -8.4799999999999986E-002     8.1829585552605412E-029
  -8.3699999999999997E-002     1.9275253366049176E-028
  -8.2599999999999993E-002     8.0678896577613725E-029
  -8.1499999999999989E-002    -6.5078809861297429E-028
  -8.0399999999999999E-002    -1.8387534958265254E-027
  -7.9299999999999995E-002    -1.5660612675937311E-027
  -7.8199999999999992E-002     3.6469578908751804E-027
  -7.7100000000000002E-002     1.4067775011733770E-026
  -7.5999999999999984E-002     1.7745188788377512E-026
  -7.4899999999999994E-002    -1.1094146881319655E-026
  -7.3799999999999991E-002    -8.4979178198318411E-026
  -7.2699999999999987E-002    -1.4449609574359192E-025
  -7.1599999999999997E-002    -2.9466250518498501E-026
  -7.0499999999999993E-002     3.9504931399065179E-025
  -6.9399999999999989E-002     9.0889378334421466E-025
  -6.8300000000000000E-002     6.7807303317274003E-025
  -6.7199999999999996E-002    -1.2856501031960832E-024
  -6.6099999999999992E-002    -4.5304573665377640E-024
  -6.5000000000000002E-002    -5.4487478637697450E-024
  -6.3899999999999985E-002     1.6117910366090955E-024
  -6.2799999999999995E-002     1.7767313797622923E-023
  -6.1699999999999991E-002     3.0404125547734435E-023
  -6.0599999999999994E-002     1.3118503629474850E-023
  -5.9499999999999990E-002    -5.1507555779364173E-023
  -5.8399999999999994E-002    -1.3072956220757019E-022
  -5.7299999999999990E-002    -1.2252721370702281E-022
  -5.6199999999999986E-002     8.1375956420032156E-023
  -5.5099999999999996E-002     4.3954269409858161E-022
  -5.3999999999999992E-002     6.2944935761978983E-022
  -5.2899999999999989E-002     1.6664830511022987E-022
  -5.1799999999999985E-002    -1.0974957040603453E-021
  -5.0699999999999995E-002    -2.3700639020397906E-021
  -4.9599999999999991E-002    -1.9337224938470172E-021
  -4.8499999999999988E-002     1.5481576766079430E-021
  -4.7399999999999998E-002     6.8321370434729455E-021
  -4.6299999999999994E-002     9.0144551802702072E-021
  -4.5199999999999990E-002     2.1314006868403263E-021
  -4.4099999999999986E-002    -1.4300495531447077E-020
  -4.2999999999999997E-002    -2.9381203326290656E-020
  -4.1899999999999993E-002    -2.3587704632977409E-020
  -4.0799999999999989E-002     1.5361176952461607E-020
  -3.9699999999999985E-002     7.1361743862002000E-020
  -3.8599999999999995E-002     9.4449795862080434E-020
  -3.7499999999999992E-002     3.0564643520086883E-020
  -3.6399999999999988E-002    -1.1974867545731437E-019
  -3.5299999999999984E-002    -2.5874057049233266E-019
  -3.4199999999999994E-002    -2.2586096832396237E-019
  -3.3099999999999991E-002     7.2285459036979380E-020
  -3.1999999999999987E-002     5.1177824764899504E-019
  -3.0899999999999997E-002     7.3152399895132359E-019
  -2.9799999999999993E-002     3.5389257807098526E-019
  -2.8699999999999989E-002    -6.3136230123971429E-019
  -2.7599999999999986E-002    -1.6210613117889315E-018
  -2.6499999999999996E-002    -1.6329991823892968E-018
  -2.5399999999999992E-002    -6.7921092566436216E-020
  -2.4299999999999988E-002     2.4710273380977684E-018
  -2.3199999999999985E-002     4.0958427056991952E-018
  -2.2099999999999995E-002     2.7727453956343948E-018
  -2.0999999999999991E-002    -1.7973805462213207E-018
  -1.9899999999999987E-002    -7.0167737857597085E-018
  -1.8799999999999983E-002    -8.4247278325535675E-018
  -1.7699999999999994E-002    -2.9804856026224936E-018
  -1.6599999999999990E-002     7.4901775221299318E-018
  -1.5499999999999986E-002     1.5853717150411727E-017
  -1.4399999999999996E-002     1.3921244568475543E-017
  -1.3299999999999992E-002    -6.1951159479639677E-019
  -1.2199999999999989E-002    -1.9902038329919751E-017
  -1.1099999999999985E-002    -2.9123288979983293E-017
  -9.9999999999999950E-003    -1.7131686381387778E-017
  -8.8999999999999913E-003     1.2614420796191804E-017
  -7.7999999999999875E-003     4.0416421923700256E-017
  -6.6999999999999837E-003     4.2493426119706606E-017
  -5.5999999999999939E-003     1.0381442596701843E-017
  -4.4999999999999901E-003    -3.7494161564395370E-017
  -3.3999999999999864E-003    -6.4608338024328216E-017
  -2.2999999999999826E-003    -4.3408833816394540E-017
  -1.1999999999999927E-003     1.8363881091626370E-017
  -9.9999999999988987E-005     7.5726896154127088E-017
   1.0000000000000148E-003     7.7078575449487740E-017
   2.1000000000000185E-003     8.6111437369403555E-018
   3.2000000000000084E-003    -8.3630388531389554E-017
   4.3000000000000121E-003    -1.1972837179219137E-016
   5.4000000000000159E-003    -4.9378229028997767E-017
   6.5000000000000058E-003     9.3954952534811026E-017
   7.6000000000000234E-003     1.9911499952638377E-016
   8.7000000000000133E-003     1.5450521526584799E-016
   9.8000000000000032E-003    -5.2388865364947818E-017
   1.0900000000000021E-002    -2.9428976553202469E-016
   1.2000000000000011E-002    -3.7310035792252497E-016
   1.3100000000000001E-002    -1.6802454931829627E-016
   1.4200000000000018E-002     2.4240873281490278E-016
   1.5300000000000008E-002     5.9254830393840941E-016
   1.6400000000000026E-002     5.9693101122618077E-016
   1.7500000000000016E-002     1.7018934053835165E-016
   1.8600000000000005E-002    -4.6692511222892015E-016
   1.9700000000000023E-002    -9.0137275779862388E-016
   2.0800000000000013E-002    -8.0867225444125157E-016
   2.1900000000000003E-002    -2.0408001549561286E-016
   2.3000000000000020E-002     5.3930582457725382E-016
   2.4100000000000010E-002     9.4851056482979932E-016
   2.5200000000000000E-002     8.0538878416077948E-016
   2.6300000000000018E-002     3.1222537055277928E-016
   2.7400000000000008E-002    -9.5303792946309395E-017
   2.8500000000000025E-002    -1.6253529936405557E-016
   2.9600000000000015E-002    -9.8652842105744691E-017
   3.0700000000000005E-002    -4.1392935768343197E-016
   3.1800000000000023E-002    -1.3496912031543272E-015
   3.2900000000000013E-002    -2.3583262841626049E-015
   3.4000000000000002E-002    -2.2076965093282414E-015
   3.5100000000000020E-002     1.0532376919585414E-016
   3.6200000000000010E-002     4.1550837003392384E-015
   3.7300000000000028E-002     7.6162110946849208E-015
   3.8400000000000017E-002     7.2965899883020886E-015
   3.9500000000000007E-002     1.4310843990010058E-015
   4.0600000000000025E-002    -8.1944169603043876E-015
   4.1700000000000015E-002    -1.6125350769838169E-014
   4.2800000000000005E-002    -1.5989478214769107E-014
   4.3900000000000022E-002    -4.9737761957278307E-015
   4.5000000000000012E-002     1.2859433976648502E-014
   4.6100000000000002E-002     2.7324032657793582E-014
   4.7200000000000020E-002     2.7612643887977434E-014
   4.8300000000000010E-002     9.8479506342209755E-015
   4.9400000000000027E-002    -1.8302591362514935E-014
   5.0500000000000017E-002    -4.0103211956755633E-014
   5.1600000000000007E-002    -3.9350629959383765E-014
   5.2700000000000025E-002    -1.1950368571502033E-014
   5.3800000000000014E-002     2.8379518719301271E-014
   5.4900000000000004E-002     5.5786321742634648E-014
   5.6000000000000022E-002     4.7985334645670938E-014
   5.7100000000000012E-002     3.1218849814979412E-015
   5.8200000000000002E-002    -5.4009111094023565E-014
   5.9300000000000019E-002    -8.3419565471889306E-014
   6.0400000000000009E-002    -5.5220381761124371E-014
   6.1500000000000027E-002     2.5836288742643078E-014
   6.2600000000000017E-002     1.1423032116562870E-013
   6.3700000000000007E-002     1.4511354899833517E-013
   6.4800000000000024E-002     7.5514579669661713E-014
   6.5900000000000014E-002    -7.8240941557648075E-014
   6.7000000000000004E-002    -2.3395207212478786E-013
   6.8100000000000022E-002    -2.8081782233770058E-013
   6.9200000000000012E-002    -1.4721259150932142E-013
   7.0300000000000029E-002     1.3841834308522122E-013
   7.1400000000000019E-002     4.3610365427389219E-013
   7.2500000000000009E-002     5.5330268361811208E-013
   7.3600000000000027E-002     3.5463076702643703E-013
   7.4700000000000016E-002    -1.3506841587025697E-013
   7.5800000000000006E-002    -7.0168643031415234E-013
   7.6900000000000024E-002    -1.0236296402524325E-012
   7.8000000000000014E-002    -8.4030634013576577E-013
   7.9100000000000004E-002    -1.2374933163698115E-013
   8.0200000000000021E-002     8.5064117208433210E-013
   8.1300000000000011E-002     1.5986477549731481E-012
   8.2400000000000029E-002     1.6640803318646036E-012
   8.3500000000000019E-002     8.8422097335033589E-013
   8.4600000000000009E-002    -4.6838704789720076E-013
   8.5700000000000026E-002    -1.7727860195451695E-012
   8.6800000000000016E-002    -2.3603504133856701E-012
   8.7900000000000006E-002    -1.8835219842139317E-012
   8.9000000000000024E-002    -5.4317357903177488E-013
   9.0100000000000013E-002     9.7974796678390597E-013
   9.1200000000000003E-002     1.8841542909209252E-012
   9.2300000000000021E-002     1.7167720153463129E-012
   9.3400000000000011E-002     6.7361632764828538E-013
   9.4500000000000028E-002    -4.7158913059341945E-013
   9.5600000000000018E-002    -8.1167191023912011E-013
   9.6700000000000008E-002     1.1149281910032005E-013
   9.7800000000000026E-002     1.9362365443614804E-012
   9.8900000000000016E-002     3.5793085075702669E-012
  0.10000000000000001          3.7921501876148067E-012
  0.10110000000000002          1.8728167888032443E-012
  0.10220000000000001         -1.8963897292778586E-012
  0.10330000000000003         -6.3752844149667087E-012
  0.10440000000000002         -1.0198957130225228E-011
  0.10550000000000001         -1.2514498118343376E-011
  0.10660000000000003         -1.3308034362002896E-011
  0.10770000000000002         -1.3041802013336046E-011
  0.10880000000000001         -1.1784300098238720E-011
  0.10990000000000003         -8.4224962074164189E-012
  0.11100000000000002         -6.0009034416955154E-013
  0.11210000000000001          1.4368522864571798E-011
  0.11320000000000002          3.8008513003617850E-011
  0.11430000000000001          6.9521555179363759E-011
  0.11540000000000003          1.0583731113733563E-010
  0.11650000000000002          1.4315190699498714E-010
  0.11760000000000001          1.7931595097664399E-010
  0.11870000000000003          2.1578228093233065E-010
  0.11980000000000002          2.5789820279342734E-010
  0.12090000000000001          3.1319241644567342E-010
  0.12200000000000003          3.8852066008843167E-010
  0.12310000000000001          4.8776233052549856E-010
  0.12420000000000003          6.1162086506527658E-010
  0.12530000000000002          7.5993306092314583E-010
  0.12640000000000001          9.3534968659270135E-010
  0.12750000000000003          1.1462401028339286E-009
  0.12860000000000002          1.4069131415439529E-009
  0.12970000000000001          1.7347322467387016E-009
  0.13080000000000003          2.1456398879848848E-009
  0.13190000000000002          2.6508264472369092E-009
  0.13300000000000001          3.2569447139252361E-009
  0.13410000000000000          3.9704088905523349E-009
  0.13520000000000004          4.8039225930551765E-009
  0.13630000000000003          5.7818549947796782E-009
  0.13740000000000002          6.9414554104696435E-009
  0.13850000000000001          8.3290601082808280E-009
  0.13960000000000000          9.9932906394428755E-009
  0.14070000000000005          1.1979086167457353E-008
  0.14180000000000004          1.4326143826792759E-008
  0.14290000000000003          1.7072945723839439E-008
  0.14400000000000002          2.0264435462991059E-008
  0.14510000000000001          2.3959263018014099E-008
  0.14620000000000000          2.8232760129753842E-008
  0.14730000000000004          3.3174220703813262E-008
  0.14840000000000003          3.8880340724745110E-008
  0.14950000000000002          4.5448789620650132E-008
  0.15060000000000001          5.2975792641518638E-008
  0.15170000000000000          6.1558871777833701E-008
  0.15280000000000005          7.1302821424978902E-008
  0.15390000000000004          8.2324838501790509E-008
  0.15500000000000003          9.4755229440579569E-008
  0.15610000000000002          1.0873283429191360E-007
  0.15720000000000001          1.2439743102277134E-007
  0.15830000000000000          1.4188314878538222E-007
  0.15940000000000004          1.6131629365645495E-007
  0.16050000000000003          1.8281753000337631E-007
  0.16160000000000002          2.0650576004754839E-007
  0.16270000000000001          2.3249906178079982E-007
  0.16380000000000000          2.6090984306392784E-007
  0.16490000000000005          2.9183493666096183E-007
  0.16600000000000004          3.2534396154915157E-007
  0.16710000000000003          3.6147139326203614E-007
  0.16820000000000002          4.0021510017140827E-007
  0.16930000000000001          4.4153992462270253E-007
  0.17040000000000000          4.8538134933551191E-007
  0.17150000000000004          5.3164410473982571E-007
  0.17260000000000003          5.8019236348627601E-007
  0.17370000000000002          6.3083439272304531E-007
  0.17480000000000001          6.8330700742080808E-007
  0.17590000000000000          7.3726681648622616E-007
  0.17700000000000005          7.9229187122109579E-007
  0.17810000000000004          8.4789218135483679E-007
  0.17920000000000003          9.0352205006638542E-007
  0.18030000000000002          9.5858661097736331E-007
  0.18140000000000001          1.0124380196430138E-006
  0.18250000000000000          1.0643647101460374E-006
  0.18360000000000004          1.1135790600746986E-006
  0.18470000000000003          1.1592134114835062E-006
  0.18580000000000002          1.2003289384665550E-006
  0.18690000000000001          1.2359362244751537E-006
  0.18800000000000000          1.2650218650378520E-006
  0.18910000000000005          1.2865716598753352E-006
  0.19020000000000004          1.2995856195630040E-006
  0.19130000000000003          1.3030854688622640E-006
  0.19240000000000002          1.2961202173755737E-006
  0.19350000000000001          1.2777754818671383E-006
  0.19460000000000005          1.2471903119148919E-006
  0.19570000000000004          1.2035812915200950E-006
  0.19680000000000003          1.1462714155641152E-006
  0.19790000000000002          1.0747155556600774E-006
  0.19900000000000001          9.8852228802570608E-007
  0.20010000000000000          8.8746816118145944E-007
  0.20120000000000005          7.7151059940661071E-007
  0.20230000000000004          6.4080052197823534E-007
  0.20340000000000003          4.9569740667720907E-007
  0.20450000000000002          3.3678406907711178E-007
  0.20560000000000000          1.6487609855175833E-007
  0.20670000000000005         -1.8976979987428422E-008
  0.20780000000000004         -2.1349968903905392E-007
  0.20890000000000003         -4.1720403487488511E-007
