 -0.12000000000000000          0.0000000000000000
 -0.11889999999999999          0.0000000000000000
 -0.11780000000000000          0.0000000000000000
 -0.11670000000000000          0.0000000000000000
 -0.11559999999999999         -7.2593301736226744E-016
 -0.11449999999999999         -1.1546122097424918E-014
 -0.11340000000000000         -5.4975419832778427E-014
 -0.11230000000000000         -1.2728785581984925E-013
 -0.11119999999999999         -1.1884604086444261E-013
 -0.11009999999999999          1.7294116984832575E-013
 -0.10900000000000000          7.9508209911705041E-013
 -0.10790000000000000          1.3125351500109517E-012
 -0.10679999999999999          9.1503562539563266E-013
 -0.10569999999999999         -7.5354322391293915E-013
 -0.10460000000000000         -2.6956223711516181E-012
 -0.10349999999999999         -2.9120874548566045E-012
 -0.10239999999999999         -4.2555401476990218E-013
 -0.10130000000000000          2.7977893439501411E-012
 -0.10020000000000000          2.8327049907128643E-012
  -9.9099999999999994E-002    -1.8725591823670618E-012
  -9.7999999999999990E-002    -6.7689313355823177E-012
  -9.6899999999999986E-002    -3.5047054234432773E-012
  -9.5799999999999996E-002     1.1312455312773029E-011
  -9.4699999999999993E-002     2.8538209989603658E-011
  -9.3599999999999989E-002     3.0038183745917379E-011
  -9.2499999999999999E-002     4.4101675436558629E-012
  -9.1399999999999995E-002    -3.7851995843274366E-011
  -9.0299999999999991E-002    -6.6637480256037662E-011
  -8.9200000000000002E-002    -5.5225844730610874E-011
  -8.8099999999999984E-002    -5.9086910711436680E-012
  -8.6999999999999994E-002     4.7330295932512811E-011
  -8.5899999999999990E-002     6.6317652758218770E-011
  -8.4799999999999986E-002     4.3592032761274879E-011
  -8.3699999999999997E-002     1.0311122615458412E-011
  -8.2599999999999993E-002     5.6494821841501786E-012
  -8.1499999999999989E-002     3.4995617514965716E-011
  -8.0399999999999999E-002     5.9864224688510603E-011
  -7.9299999999999995E-002     3.4466200726779306E-011
  -7.8199999999999992E-002    -4.3942183225453846E-011
  -7.7100000000000002E-002    -1.2283182804218029E-010
  -7.5999999999999984E-002    -1.3823020506009698E-010
  -7.4899999999999994E-002    -7.5424215484343193E-011
  -7.3799999999999991E-002     1.4533883645195811E-011
  -7.2699999999999987E-002     6.3083711865363767E-011
  -7.1599999999999997E-002     5.1782238219555410E-011
  -7.0499999999999993E-002     3.0408411899607302E-011
  -6.9399999999999989E-002     6.4282315581642990E-011
  -6.8300000000000000E-002     1.6303465522060634E-010
  -6.7199999999999996E-002     2.6566551736273425E-010
  -6.6099999999999992E-002     3.0063243561251340E-010
  -6.5000000000000002E-002     2.6020322008157848E-010
  -6.3899999999999985E-002     2.1008011996670461E-010
  -6.2799999999999995E-002     2.2212268135923807E-010
  -6.1699999999999991E-002     3.0199998057867106E-010
  -6.0599999999999994E-002     3.9299602461184691E-010
  -5.9499999999999990E-002     4.5599682363395289E-010
  -5.8399999999999994E-002     5.3775844888193092E-010
  -5.7299999999999990E-002     7.4366324209762524E-010
  -5.6199999999999986E-002     1.1318752601852111E-009
  -5.5099999999999996E-002     1.6393644219903081E-009
  -5.3999999999999992E-002     2.1301589381295116E-009
  -5.2899999999999989E-002     2.5318958041253836E-009
  -5.1799999999999985E-002     2.9250517563639278E-009
  -5.0699999999999995E-002     3.4852563057796715E-009
  -4.9599999999999991E-002     4.3276551231485882E-009
  -4.8499999999999988E-002     5.4119406733832420E-009
  -4.7399999999999998E-002     6.6141363497251859E-009
  -4.6299999999999994E-002     7.8992332674943100E-009
  -4.5199999999999990E-002     9.4141707762673832E-009
  -4.4099999999999986E-002     1.1392986998259858E-008
  -4.2999999999999997E-002     1.3961949818508401E-008
  -4.1899999999999993E-002     1.7049087475129454E-008
  -4.0799999999999989E-002     2.0506343290094264E-008
  -3.9699999999999985E-002     2.4331104242492074E-008
  -3.8599999999999995E-002     2.8757515480037910E-008
  -3.7499999999999992E-002     3.4111625524246847E-008
  -3.6399999999999988E-002     4.0572501802671468E-008
  -3.5299999999999984E-002     4.8094580762381156E-008
  -3.4199999999999994E-002     5.6591471064848520E-008
  -3.3099999999999991E-002     6.6204762561028474E-008
  -3.1999999999999987E-002     7.7373357498800033E-008
  -3.0899999999999997E-002     9.0609368896821252E-008
  -2.9799999999999993E-002     1.0619326218375136E-007
  -2.8699999999999989E-002     1.2410390581862885E-007
  -2.7599999999999986E-002     1.4427190819787938E-007
  -2.6499999999999996E-002     1.6690822235432279E-007
  -2.5399999999999992E-002     1.9256499683706352E-007
  -2.4299999999999988E-002     2.2185088255355367E-007
  -2.3199999999999985E-002     2.5508703060950211E-007
  -2.2099999999999995E-002     2.9227155096123170E-007
  -2.0999999999999991E-002     3.3341251537422067E-007
  -1.9899999999999987E-002     3.7889577697569621E-007
  -1.8799999999999983E-002     4.2948852296831319E-007
  -1.7699999999999994E-002     4.8593511792205391E-007
  -1.6599999999999990E-002     5.4852836228747037E-007
  -1.5499999999999986E-002     6.1709260990028270E-007
  -1.4399999999999996E-002     6.9141282210694044E-007
  -1.3299999999999992E-002     7.7168215284473263E-007
  -1.2199999999999989E-002     8.5849819697614294E-007
  -1.1099999999999985E-002     9.5238135600084206E-007
  -9.9999999999999950E-003     1.0532789929129649E-006
  -8.8999999999999913E-003     1.1605517329371651E-006
  -7.7999999999999875E-003     1.2734584515783354E-006
  -6.6999999999999837E-003     1.3916426269133808E-006
  -5.5999999999999939E-003     1.5151013030845206E-006
  -4.4999999999999901E-003     1.6436331407021498E-006
  -3.3999999999999864E-003     1.7762969264367712E-006
  -2.2999999999999826E-003     1.9114131646347232E-006
  -1.1999999999999927E-003     2.0470990875764983E-006
  -9.9999999999988987E-005     2.1817829747305950E-006
   1.0000000000000148E-003     2.3141494693845743E-006
   2.1000000000000185E-003     2.4425517040072009E-006
   3.2000000000000084E-003     2.5644703782745637E-006
   4.3000000000000121E-003     2.6765737857203931E-006
   5.4000000000000159E-003     2.7753264930652222E-006
   6.5000000000000058E-003     2.8575427677424159E-006
   7.6000000000000234E-003     2.9203333724581171E-006
   8.7000000000000133E-003     2.9605103009089362E-006
   9.8000000000000032E-003     2.9740742775175022E-006
   1.0900000000000021E-002     2.9563225325546227E-006
   1.2000000000000011E-002     2.9024924970144639E-006
   1.3100000000000001E-002     2.8083231882192194E-006
   1.4200000000000018E-002     2.6700104172050487E-006
   1.5300000000000008E-002     2.4836722332111094E-006
   1.6400000000000026E-002     2.2449553398473654E-006
   1.7500000000000016E-002     1.9492713363433722E-006
   1.8600000000000005E-002     1.5925081697787391E-006
   1.9700000000000023E-002     1.1715816299329163E-006
   2.0800000000000013E-002     6.8436219180512126E-007
   2.1900000000000003E-002     1.2916635228066298E-007
   2.3000000000000020E-002    -4.9555222858543857E-007
   2.4100000000000010E-002    -1.1908864507859107E-006
   2.5200000000000000E-002    -1.9567594335967442E-006
   2.6300000000000018E-002    -2.7914470592804719E-006
   2.7400000000000008E-002    -3.6917306260875193E-006
   2.8500000000000025E-002    -4.6534196371794678E-006
   2.9600000000000015E-002    -5.6716139624768402E-006
   3.0700000000000005E-002    -6.7403657340037171E-006
   3.1800000000000023E-002    -7.8520342867705040E-006
   3.2900000000000013E-002    -8.9969726104754955E-006
   3.4000000000000002E-002    -1.0163849765376654E-005
   3.5100000000000020E-002    -1.1340278433635831E-005
   3.6200000000000010E-002    -1.2513130968727637E-005
   3.7300000000000028E-002    -1.3668290193891153E-005
   3.8400000000000017E-002    -1.4790203749726061E-005
   3.9500000000000007E-002    -1.5861856809351593E-005
   4.0600000000000025E-002    -1.6865369616425596E-005
   4.1700000000000015E-002    -1.7782804206945002E-005
   4.2800000000000005E-002    -1.8596574591356330E-005
   4.3900000000000022E-002    -1.9289298506919295E-005
   4.5000000000000012E-002    -1.9843502741423436E-005
   4.6100000000000002E-002    -2.0241797756170854E-005
   4.7200000000000020E-002    -2.0467632566578686E-005
   4.8300000000000010E-002    -2.0506189684965648E-005
   4.9400000000000027E-002    -2.0344818040030077E-005
   5.0500000000000017E-002    -1.9972925656475127E-005
   5.1600000000000007E-002    -1.9381768652237952E-005
   5.2700000000000025E-002    -1.8564685888122767E-005
   5.3800000000000014E-002    -1.7517802916700020E-005
   5.4900000000000004E-002    -1.6240759578067809E-005
   5.6000000000000022E-002    -1.4736917364643887E-005
   5.7100000000000012E-002    -1.3013021998631302E-005
   5.8200000000000002E-002    -1.1078800525865518E-005
   5.9300000000000019E-002    -8.9469676822773181E-006
   6.0400000000000009E-002    -6.6336128838884179E-006
   6.1500000000000027E-002    -4.1585117287468165E-006
   6.2600000000000017E-002    -1.5449136299139354E-006
   6.3700000000000007E-002     1.1811354170276900E-006
   6.4800000000000024E-002     3.9914807530294638E-006
   6.5900000000000014E-002     6.8561716943804640E-006
   6.7000000000000004E-002     9.7434713097754866E-006
   6.8100000000000022E-002     1.2619992958207149E-005
   6.9200000000000012E-002     1.5451289073098451E-005
   7.0300000000000029E-002     1.8202754290541634E-005
   7.1400000000000019E-002     2.0840448996750638E-005
   7.2500000000000009E-002     2.3331558622885495E-005
   7.3600000000000027E-002     2.5644600100349635E-005
   7.4700000000000016E-002     2.7749774744734168E-005
   7.5800000000000006E-002     2.9619621273013763E-005
   7.6900000000000024E-002     3.1229817977873608E-005
   7.8000000000000014E-002     3.2559742976445705E-005
   7.9100000000000004E-002     3.3592648833291605E-005
   8.0200000000000021E-002     3.4315638913540170E-005
   8.1300000000000011E-002     3.4719821996986866E-005
   8.2400000000000029E-002     3.4800654248101637E-005
   8.3500000000000019E-002     3.4558273910079151E-005
   8.4600000000000009E-002     3.3997486752923578E-005
   8.5700000000000026E-002     3.3127445931313559E-005
   8.6800000000000016E-002     3.1961244530975819E-005
   8.7900000000000006E-002     3.0515717298840173E-005
   8.9000000000000024E-002     2.8811362426495180E-005
   9.0100000000000013E-002     2.6872166927205399E-005
   9.1200000000000003E-002     2.4725064577069134E-005
   9.2300000000000021E-002     2.2399179215426557E-005
   9.3400000000000011E-002     1.9925126252928749E-005
   9.4500000000000028E-002     1.7334607036900707E-005
   9.5600000000000018E-002     1.4660161468782462E-005
   9.6700000000000008E-002     1.1934764188481495E-005
   9.7800000000000026E-002     9.1911251729470678E-006
   9.8900000000000016E-002     6.4608793763909489E-006
  0.10000000000000001          3.7740148854936706E-006
  0.10110000000000002          1.1586645314309862E-006
  0.10220000000000001         -1.3589544778369600E-006
  0.10330000000000003         -3.7547790725511732E-006
  0.10440000000000002         -6.0074048633396160E-006
  0.10550000000000001         -8.0985992099158466E-006
  0.10660000000000003         -1.0013490282290149E-005
  0.10770000000000002         -1.1740379704860970E-005
  0.10880000000000001         -1.3270461749925744E-005
  0.10990000000000003         -1.4597767403756734E-005
  0.11100000000000002         -1.5719362636446021E-005
  0.11210000000000001         -1.6635496649541892E-005
  0.11320000000000002         -1.7349397239740938E-005
  0.11430000000000001         -1.7866732378024608E-005
  0.11540000000000003         -1.8195070879301056E-005
  0.11650000000000002         -1.8343653209740296E-005
  0.11760000000000001         -1.8323418771615252E-005
  0.11870000000000003         -1.8146973161492497E-005
  0.11980000000000002         -1.7828233467298560E-005
  0.12090000000000001         -1.7381802535965107E-005
  0.12200000000000003         -1.6822456018417142E-005
  0.12310000000000001         -1.6164978660526685E-005
  0.12420000000000003         -1.5424249795614742E-005
  0.12530000000000002         -1.4615247891924810E-005
  0.12640000000000001         -1.3752738595940173E-005
  0.12750000000000003         -1.2850740858993959E-005
  0.12860000000000002         -1.1922166777367238E-005
  0.12970000000000001         -1.0978827958751936E-005
  0.13080000000000003         -1.0031691999756731E-005
  0.13190000000000002         -9.0910243670805357E-006
  0.13300000000000001         -8.1662028605933301E-006
  0.13410000000000000         -7.2653624556551222E-006
  0.13520000000000004         -6.3952065829653293E-006
  0.13630000000000003         -5.5611694733670447E-006
  0.13740000000000002         -4.7677767724962905E-006
  0.13850000000000001         -4.0188670027418993E-006
  0.13960000000000000         -3.3175092539750040E-006
  0.14070000000000005         -2.6657612579583656E-006
  0.14180000000000004         -2.0645868517021881E-006
  0.14290000000000003         -1.5140728919504909E-006
  0.14400000000000002         -1.0137965773537871E-006
  0.14510000000000001         -5.6304793361050542E-007
  0.14620000000000000         -1.6077302689154749E-007
  0.14730000000000004          1.9461708689050283E-007
  0.14840000000000003          5.0530815087768133E-007
  0.14950000000000002          7.7389478292388958E-007
  0.15060000000000001          1.0030761359303142E-006
  0.15170000000000000          1.1954723504459253E-006
  0.15280000000000005          1.3536651977119618E-006
  0.15390000000000004          1.4803507610849920E-006
  0.15500000000000003          1.5784027027621050E-006
  0.15610000000000002          1.6507573263879749E-006
  0.15720000000000001          1.7002167851387640E-006
  0.15830000000000000          1.7293382370553445E-006
  0.15940000000000004          1.7404796608389006E-006
  0.16050000000000003          1.7359202502120752E-006
  0.16160000000000002          1.7179187352667213E-006
  0.16270000000000001          1.6886513094505062E-006
  0.16380000000000000          1.6500940773767070E-006
  0.16490000000000005          1.6039564343373058E-006
  0.16600000000000004          1.5517146039201180E-006
  0.16710000000000003          1.4947027011658065E-006
  0.16820000000000002          1.4341777614390594E-006
  0.16930000000000001          1.3713158750761067E-006
  0.17040000000000000          1.3071580724499654E-006
  0.17150000000000004          1.2425585964592756E-006
  0.17260000000000003          1.1781817192968447E-006
  0.17370000000000002          1.1145474445584114E-006
  0.17480000000000001          1.0520980140427127E-006
  0.17590000000000000          9.9124531516281422E-007
  0.17700000000000005          9.3236764087123447E-007
  0.17810000000000004          8.7576449914195109E-007
  0.17920000000000003          8.2161244563394575E-007
  0.18030000000000002          7.6997088171992800E-007
  0.18140000000000001          7.2085100555341342E-007
  0.18250000000000000          6.7429692762743798E-007
  0.18360000000000004          6.3040482700671419E-007
  0.18470000000000003          5.8925462553816033E-007
  0.18580000000000002          5.5081369509935030E-007
  0.18690000000000001          5.1491304020601092E-007
  0.18800000000000000          4.8133648533621454E-007
  0.18910000000000005          4.4995061898589483E-007
  0.19020000000000004          4.2075089368154295E-007
  0.19130000000000003          3.9376962490678125E-007
  0.19240000000000002          3.6892856769554783E-007
  0.19350000000000001          3.4598579645717109E-007
  0.19460000000000005          3.2464282639921294E-007
  0.19570000000000004          3.0471844070234511E-007
  0.19680000000000003          2.8621909109460830E-007
  0.19790000000000002          2.6922685947283753E-007
  0.19900000000000001          2.5370658818246739E-007
  0.20010000000000000          2.3941970539453905E-007
  0.20120000000000005          2.2603356342187908E-007
  0.20230000000000004          2.1332215283109690E-007
  0.20340000000000003          2.0126088884353521E-007
  0.20450000000000002          1.8992238892678870E-007
  0.20560000000000000          1.7927999351741164E-007
  0.20670000000000005          1.6911943134800822E-007
  0.20780000000000004          1.5915094309093547E-007
  0.20890000000000003          1.4921134550149873E-007
