 -0.12000000000000000          0.0000000000000000
 -0.11889999999999999          0.0000000000000000
 -0.11780000000000000          0.0000000000000000
 -0.11670000000000000          0.0000000000000000
 -0.11559999999999999          0.0000000000000000
 -0.11449999999999999          0.0000000000000000
 -0.11340000000000000          0.0000000000000000
 -0.11230000000000000          0.0000000000000000
 -0.11119999999999999          0.0000000000000000
 -0.11009999999999999          0.0000000000000000
 -0.10900000000000000          0.0000000000000000
 -0.10790000000000000          0.0000000000000000
 -0.10679999999999999          0.0000000000000000
 -0.10569999999999999          0.0000000000000000
 -0.10460000000000000          0.0000000000000000
 -0.10349999999999999          1.2580712677641185E-033
 -0.10239999999999999          3.0546734155093825E-032
 -0.10130000000000000          2.2703551964521799E-031
 -0.10020000000000000          4.8124508325771689E-031
  -9.9099999999999994E-002    -2.8011278063710585E-030
  -9.7999999999999990E-002    -2.1831720436240087E-029
  -9.6899999999999986E-002    -5.1304282046610412E-029
  -9.5799999999999996E-002     6.3436443008565832E-029
  -9.4699999999999993E-002     7.4408110808406418E-028
  -9.3599999999999989E-002     1.9040762247152794E-027
  -9.2499999999999999E-002     1.4013860721463588E-028
  -9.1399999999999995E-002    -1.2916467957674680E-026
  -9.0299999999999991E-002    -3.7489446636710310E-026
  -8.9200000000000002E-002    -2.7028488513578824E-026
  -8.8099999999999984E-002     1.2844472382270409E-025
  -8.6999999999999994E-002     4.5251265403631198E-025
  -8.5899999999999990E-002     5.0257120328369542E-025
  -8.4799999999999986E-002    -7.4591487380652074E-025
  -8.3699999999999997E-002    -3.6012249741199149E-024
  -8.2599999999999993E-002    -4.8214728876392266E-024
  -8.1499999999999989E-002     2.6942386564445246E-024
  -8.0399999999999999E-002     2.0426589152671921E-023
  -7.9299999999999995E-002     2.7257078562325560E-023
  -7.8199999999999992E-002    -1.6223074399442100E-023
  -7.7100000000000002E-002    -1.0341708352159276E-022
  -7.5999999999999984E-002    -9.2245582480651093E-023
  -7.4899999999999994E-002     2.2300070378155044E-022
  -7.3799999999999991E-002     6.8796067295119582E-022
  -7.2699999999999987E-002     3.1120868157911417E-022
  -7.1599999999999997E-002    -2.1401234437246043E-021
  -7.0499999999999993E-002    -5.5041692519561674E-021
  -6.9399999999999989E-002    -3.4225862041313791E-021
  -6.8300000000000000E-002     1.2373878793711703E-020
  -6.7199999999999996E-002     3.7404473989491426E-020
  -6.6099999999999992E-002     3.7543249693118535E-020
  -6.5000000000000002E-002    -3.8874125137579536E-020
  -6.3899999999999985E-002    -1.9087740641816930E-019
  -6.2799999999999995E-002    -2.7139718349682411E-019
  -6.1699999999999991E-002    -8.6350668536182004E-021
  -6.0599999999999994E-002     7.0974045601368103E-019
  -5.9499999999999990E-002     1.3878898504581962E-018
  -5.8399999999999994E-002     8.4606566292549614E-019
  -5.7299999999999990E-002    -1.8115391899712377E-018
  -5.6199999999999986E-002    -5.3452510444850155E-018
  -5.5099999999999996E-002    -5.4886796132083414E-018
  -5.3999999999999992E-002     2.2947160652787750E-018
  -5.2899999999999989E-002     1.6170735774533900E-017
  -5.1799999999999985E-002     2.3023278639935492E-017
  -5.0699999999999995E-002     4.8948309350248844E-018
  -4.9599999999999991E-002    -3.9898474511344053E-017
  -4.8499999999999988E-002    -7.6240674576196025E-017
  -4.7399999999999998E-002    -4.3560853069369535E-017
  -4.6299999999999994E-002     8.3374736782551465E-017
  -4.5199999999999990E-002     2.2119939839256952E-016
  -4.4099999999999986E-002     1.8602994191297073E-016
  -4.2999999999999997E-002    -1.4574865483158204E-016
  -4.1899999999999993E-002    -6.0150493620179479E-016
  -4.0799999999999989E-002    -6.6323516215047130E-016
  -3.9699999999999985E-002     1.4295684747232167E-016
  -3.8599999999999995E-002     1.5438890705427814E-015
  -3.7499999999999992E-002     2.1841640282293856E-015
  -3.6399999999999988E-002     4.6367441153559496E-016
  -3.5299999999999984E-002    -3.5208432171271106E-015
  -3.4199999999999994E-002    -6.5602993991212364E-015
  -3.3099999999999991E-002    -3.8038826645839241E-015
  -3.1999999999999987E-002     6.3243926764979148E-015
  -3.0899999999999997E-002     1.7271589635380578E-014
  -2.9799999999999993E-002     1.5914556456518569E-014
  -2.8699999999999989E-002    -6.2209750358358483E-015
  -2.7599999999999986E-002    -3.8603845055502906E-014
  -2.6499999999999996E-002    -4.9825899970604853E-014
  -2.5399999999999992E-002    -1.0154048859600893E-014
  -2.4299999999999988E-002     7.1004691655409541E-014
  -2.3199999999999985E-002     1.2769993396055668E-013
  -2.2099999999999995E-002     7.5794920470148575E-014
  -2.0999999999999991E-002    -9.9746369475704755E-014
  -1.9899999999999987E-002    -2.7937347530856971E-013
  -1.8799999999999983E-002    -2.5819862740916744E-013
  -1.7699999999999994E-002     7.1509523291973104E-014
  -1.6599999999999990E-002     5.3175871908908712E-013
  -1.5499999999999986E-002     6.8091810401932351E-013
  -1.4399999999999996E-002     1.5460386876969823E-013
  -1.3299999999999992E-002    -8.6978324933054130E-013
  -1.2199999999999989E-002    -1.5432504449700013E-012
  -1.1099999999999985E-002    -9.0098311840772216E-013
  -9.9999999999999950E-003     1.1207637465662779E-012
  -8.8999999999999913E-003     3.0871824194256270E-012
  -7.7999999999999875E-003     2.8003957659727963E-012
  -6.6999999999999837E-003    -7.0000911534320864E-013
  -5.5999999999999939E-003    -5.3921619773411589E-012
  -4.4999999999999901E-003    -6.8527961083475475E-012
  -3.3999999999999864E-003    -1.7769364538816612E-012
  -2.2999999999999826E-003     7.8585003088216254E-012
  -1.1999999999999927E-003     1.4181496255094572E-011
  -9.9999999999988987E-005     8.8392635225198468E-012
   1.0000000000000148E-003    -8.3616238932826548E-012
   2.1000000000000185E-003    -2.5248643453767983E-011
   3.2000000000000084E-003    -2.4136897341930919E-011
   4.3000000000000121E-003     2.2614705247336886E-012
   5.4000000000000159E-003     3.8421633929974774E-011
   6.5000000000000058E-003     5.1718532234623638E-011
   7.6000000000000234E-003     1.8464698520181955E-011
   8.7000000000000133E-003    -4.7815980341869846E-011
   9.8000000000000032E-003    -9.4185395593804344E-011
   1.0900000000000021E-002    -6.5559356554611981E-011
   1.2000000000000011E-002     4.0265502737613090E-011
   1.3100000000000001E-002     1.4877311882433020E-010
   1.4200000000000018E-002     1.5296888755678140E-010
   1.5300000000000008E-002     7.8903368214144898E-012
   1.6400000000000026E-002    -2.0045383408717754E-010
   1.7500000000000016E-002    -2.9087576791653191E-010
   1.8600000000000005E-002    -1.3109006935518863E-010
   1.9700000000000023E-002     2.1372287273280222E-010
   2.0800000000000013E-002     4.7399340008524860E-010
   2.1900000000000003E-002     3.6781680479158751E-010
   2.3000000000000020E-002    -1.2797901627337183E-010
   2.4100000000000010E-002    -6.6720973190825816E-010
   2.5200000000000000E-002    -7.4665351679215064E-010
   2.6300000000000018E-002    -1.4087564448317380E-010
   2.7400000000000008E-002     7.9120410223509907E-010
   2.8500000000000025E-002     1.2660410497744579E-009
   2.9600000000000015E-002     6.9297850791016913E-010
   3.0700000000000005E-002    -7.0435296484205878E-010
   3.1800000000000023E-002    -1.8573657056819570E-009
   3.2900000000000013E-002    -1.6158187010617553E-009
   3.4000000000000002E-002     1.9231620462800691E-010
   3.5100000000000020E-002     2.3256032655183390E-009
   3.6200000000000010E-002     2.9022280134682887E-009
   3.7300000000000028E-002     9.8026009531793079E-010
   3.8400000000000017E-002    -2.3237045621016250E-009
   3.9500000000000007E-002    -4.3420333994959037E-009
   4.0600000000000025E-002    -2.9270517121204875E-009
   4.1700000000000015E-002     1.4517883561993017E-009
   4.2800000000000005E-002     5.5185771508092785E-009
   4.3900000000000022E-002     5.5323399195117418E-009
   4.5000000000000012E-002     5.8708865546819311E-010
   4.6100000000000002E-002    -5.9395843798881742E-009
   4.7200000000000020E-002    -8.5188061049734642E-009
   4.8300000000000010E-002    -4.0077501317625774E-009
   4.9400000000000027E-002     5.0251323102656897E-009
   5.0500000000000017E-002     1.1443669123423206E-008
   5.1600000000000007E-002     9.0159204546580440E-009
   5.2700000000000025E-002    -1.8599553008868952E-009
   5.3800000000000014E-002    -1.3250847530343890E-008
   5.4900000000000004E-002    -1.5297976219130760E-008
   5.6000000000000022E-002    -4.5272972037935233E-009
   5.7100000000000012E-002     1.2011238226250498E-008
   5.8200000000000002E-002     2.1112464665407060E-008
   5.9300000000000019E-002     1.3843809654190409E-008
   6.0400000000000009E-002    -6.1091935954493692E-009
   6.1500000000000027E-002    -2.3730418519107843E-008
   6.2600000000000017E-002    -2.3872267718161311E-008
   6.3700000000000007E-002    -4.1136609674197189E-009
   6.4800000000000024E-002     2.1508574477024922E-008
   6.5900000000000014E-002     3.2247580605826442E-008
   6.7000000000000004E-002     1.7268442675799633E-008
   6.8100000000000022E-002    -1.4075316911998925E-008
   6.9200000000000012E-002    -3.7672627684059989E-008
   7.0300000000000029E-002    -3.2983049180757007E-008
   7.1400000000000019E-002    -3.9496134141003836E-010
   7.2500000000000009E-002     3.6821472093606644E-008
   7.3600000000000027E-002     4.9067057972251860E-008
   7.4700000000000016E-002     2.3703478291281499E-008
   7.5800000000000006E-002    -2.3165812379488671E-008
   7.6900000000000024E-002    -5.6860663733004913E-008
   7.8000000000000014E-002    -4.9905750643119973E-008
   7.9100000000000004E-002    -4.2281893541940008E-009
   8.0200000000000021E-002     4.7951917991895243E-008
   8.1300000000000011E-002     6.6793361952477426E-008
   8.2400000000000029E-002     3.5168788770079118E-008
   8.3500000000000019E-002    -2.6207464642880041E-008
   8.4600000000000009E-002    -7.1622309860686073E-008
   8.5700000000000026E-002    -6.3529967064823722E-008
   8.6800000000000016E-002    -2.4304860346546775E-009
   8.7900000000000006E-002     6.9533214741568372E-008
   8.9000000000000024E-002     9.6463217857944983E-008
   9.0100000000000013E-002     5.0165361642484640E-008
   9.1200000000000003E-002    -4.4679982380557703E-008
   9.2300000000000021E-002    -1.2250700365257217E-007
   9.3400000000000011E-002    -1.2141997274284222E-007
   9.4500000000000028E-002    -3.0666754469166335E-008
   9.5600000000000018E-002     9.4600061117944279E-008
   9.6700000000000008E-002     1.6675933522947162E-007
   9.7800000000000026E-002     1.2808681049136794E-007
   9.8900000000000016E-002    -2.1367296820784532E-009
  0.10000000000000001         -1.3420800826224877E-007
  0.10110000000000002         -1.6998730245632032E-007
  0.10220000000000001         -7.8513025414395088E-008
  0.10330000000000003          7.3067745631760772E-008
  0.10440000000000002          1.6361748578219704E-007
  0.10550000000000001          1.1099032093397909E-007
  0.10660000000000003         -5.5545257282574312E-008
  0.10770000000000002         -2.0532829125841090E-007
  0.10880000000000001         -2.0130737254930864E-007
  0.10990000000000003         -1.3196797432613039E-008
  0.11100000000000002          2.4147459498635726E-007
  0.11210000000000001          3.7100502936482371E-007
  0.11320000000000002          2.5225034505638178E-007
  0.11430000000000001         -6.4141637778902805E-008
  0.11540000000000003         -3.7360288729360036E-007
  0.11650000000000002         -4.5882254084972374E-007
  0.11760000000000001         -2.5196246156156121E-007
  0.11870000000000003          1.0663620031436949E-007
  0.11980000000000002          3.6511647749648546E-007
  0.12090000000000001          3.4583283081701666E-007
  0.12200000000000003          8.1094015058624791E-008
  0.12310000000000001         -2.0785596177574917E-007
  0.12420000000000003         -2.7867761787092604E-007
  0.12530000000000002         -5.8954658044285679E-008
  0.12640000000000001          2.8606015689547348E-007
  0.12750000000000003          4.6709294565516757E-007
  0.12860000000000002          2.8860361567240034E-007
  0.12970000000000001         -1.8852634298127668E-007
  0.13080000000000003         -6.6472074422563310E-007
  0.13190000000000002         -7.9796410545895924E-007
  0.13300000000000001         -4.4633276274907985E-007
  0.13410000000000000          2.1525843862946203E-007
  0.13520000000000004          7.9453849366473150E-007
  0.13630000000000003          9.3863758365841932E-007
  0.13740000000000002          5.7439439160589245E-007
  0.13850000000000001         -3.9251254690952919E-008
  0.13960000000000000         -4.9356407316736295E-007
  0.14070000000000005         -5.2666683814095450E-007
  0.14180000000000004         -2.2128561738554708E-007
  0.14290000000000003          5.3376698616602880E-008
  0.14400000000000002         -6.7341758835937071E-008
  0.14510000000000001         -6.2531336197935161E-007
  0.14620000000000000         -1.2459507843232132E-006
  0.14730000000000004         -1.3762305570708122E-006
  0.14840000000000003         -7.1279623625741806E-007
  0.14950000000000002          4.9266412815995864E-007
  0.15060000000000001          1.5106796809050138E-006
  0.15170000000000000          1.5884322692727437E-006
  0.15280000000000005          4.8156505272345385E-007
  0.15390000000000004         -1.3296054248712608E-006
  0.15500000000000003         -2.9283469302754384E-006
  0.15610000000000002         -3.5738542010221863E-006
  0.15720000000000001         -3.1998281428968767E-006
  0.15830000000000000         -2.4272635528177489E-006
  0.15940000000000004         -2.0774718905158807E-006
  0.16050000000000003         -2.5552590159350075E-006
  0.16160000000000002         -3.5802067941403948E-006
  0.16270000000000001         -4.4796793190471362E-006
  0.16380000000000000         -4.8168117245950270E-006
  0.16490000000000005         -4.8524921112402808E-006
  0.16600000000000004         -5.4537817959499080E-006
  0.16710000000000003         -7.4829822551691905E-006
  0.16820000000000002         -1.1110938430647366E-005
  0.16930000000000001         -1.5580675608362071E-005
  0.17040000000000000         -1.9632323528639972E-005
  0.17150000000000004         -2.2322918084682897E-005
  0.17260000000000003         -2.3680266167502850E-005
  0.17370000000000002         -2.4735443730605766E-005
  0.17480000000000001         -2.6905992854153737E-005
  0.17590000000000000         -3.1146621040534228E-005
  0.17700000000000005         -3.7439142033690587E-005
  0.17810000000000004         -4.4957756472285837E-005
  0.17920000000000003         -5.2778617828153074E-005
  0.18030000000000002         -6.0619495343416929E-005
  0.18140000000000001         -6.9071822508703917E-005
  0.18250000000000000         -7.9134035331662744E-005
  0.18360000000000004         -9.1366156993899494E-005
  0.18470000000000003         -1.0529725841479376E-004
  0.18580000000000002         -1.1958862160099670E-004
  0.18690000000000001         -1.3292870426084846E-004
  0.18800000000000000         -1.4507726882584393E-004
  0.18910000000000005         -1.5727514983154833E-004
  0.19020000000000004         -1.7162665608339012E-004
  0.19130000000000003         -1.8978709704242647E-004
  0.19240000000000002         -2.1184317301958799E-004
  0.19350000000000001         -2.3620211868546903E-004
  0.19460000000000005         -2.6063059340231121E-004
  0.19570000000000004         -2.8366662445478141E-004
  0.19680000000000003         -3.0540805892087519E-004
  0.19790000000000002         -3.2704265322536230E-004
  0.19900000000000001         -3.4953636350110173E-004
  0.20010000000000000         -3.7252757465466857E-004
  0.20120000000000005         -3.9431769982911646E-004
  0.20230000000000004         -4.1303987381979823E-004
  0.20340000000000003         -4.2802831740118563E-004
  0.20450000000000002         -4.4033411541022360E-004
  0.20560000000000000         -4.5181642053648829E-004
  0.20670000000000005         -4.6356703387573361E-004
  0.20780000000000004         -4.7463565715588629E-004
  0.20890000000000003         -4.8214025446213782E-004
