 -0.12000000000000000          0.0000000000000000
 -0.11889999999999999          0.0000000000000000
 -0.11780000000000000          0.0000000000000000
 -0.11670000000000000          0.0000000000000000
 -0.11559999999999999          0.0000000000000000
 -0.11449999999999999          0.0000000000000000
 -0.11340000000000000          0.0000000000000000
 -0.11230000000000000          0.0000000000000000
 -0.11119999999999999          0.0000000000000000
 -0.11009999999999999         -7.5770418877011047E-041
 -0.10900000000000000         -3.4192613565350033E-028
 -0.10790000000000000         -5.9884688505288380E-027
 -0.10679999999999999         -1.6360643914355287E-026
 -0.10569999999999999          5.2917578383129671E-026
 -0.10460000000000000          3.0869576753230376E-025
 -0.10349999999999999          2.6765204953907307E-025
 -0.10239999999999999         -3.9549465062375947E-025
 -0.10130000000000000          3.8183388223277016E-024
 -0.10020000000000000          2.0315971921101868E-023
  -9.9099999999999994E-002     5.3574829679396621E-024
  -9.7999999999999990E-002    -1.8040779372393995E-022
  -9.6899999999999986E-002    -4.8950972443703632E-022
  -9.5799999999999996E-002     9.9242519961022756E-024
  -9.4699999999999993E-002     2.6963295022972844E-021
  -9.3599999999999989E-002     5.2417918429618430E-021
  -9.2499999999999999E-002    -2.7335376856789590E-021
  -9.1399999999999995E-002    -2.7878897931055527E-020
  -9.0299999999999991E-002    -3.6434817978788499E-020
  -8.9200000000000002E-002     5.4277323511383363E-020
  -8.8099999999999984E-002     2.4322855586273933E-019
  -8.6999999999999994E-002     2.0209906785513788E-019
  -8.5899999999999990E-002    -6.1881221358844428E-019
  -8.4799999999999986E-002    -1.9271002506531246E-018
  -8.3699999999999997E-002    -1.2032025467572141E-018
  -8.2599999999999993E-002     4.9447727916881910E-018
  -8.1499999999999989E-002     1.3833524546058276E-017
  -8.0399999999999999E-002     9.2756584548589093E-018
  -7.9299999999999995E-002    -2.9112198142328302E-017
  -7.8199999999999992E-002    -8.6915936689571645E-017
  -7.7100000000000002E-002    -7.5434828606029070E-017
  -7.5999999999999984E-002     1.2272137594618642E-016
  -7.4899999999999994E-002     4.6206849000720458E-016
  -7.3799999999999991E-002     5.2862468617295180E-016
  -7.2699999999999987E-002    -2.9768393243066171E-016
  -7.1599999999999997E-002    -2.0185942862714651E-015
  -7.0499999999999993E-002    -3.0129065695376976E-015
  -6.9399999999999989E-002    -3.8530448803662736E-016
  -6.8300000000000000E-002     6.9558379509841215E-015
  -6.7199999999999996E-002     1.3867337115313010E-014
  -6.6099999999999992E-002     8.6789299705324093E-015
  -6.5000000000000002E-002    -1.7042729803360245E-014
  -6.3899999999999985E-002    -5.1271436233997828E-014
  -6.2799999999999995E-002    -5.4156840416299489E-014
  -6.1699999999999991E-002     1.6756307306302817E-014
  -6.0599999999999994E-002     1.4846396410428133E-013
  -5.9499999999999990E-002     2.2865018797609262E-013
  -5.8399999999999994E-002     9.2843084836944778E-014
  -5.7299999999999990E-002    -3.0842814196725374E-013
  -5.6199999999999986E-002    -7.2833384288934219E-013
  -5.5099999999999996E-002    -6.5454835562069936E-013
  -5.3999999999999992E-002     2.9030819631905306E-013
  -5.2899999999999989E-002     1.7563484304081626E-012
  -5.1799999999999985E-002     2.4569556458800735E-012
  -5.0699999999999995E-002     9.2144803072499956E-013
  -4.9599999999999991E-002    -2.9202655918434837E-012
  -4.8499999999999988E-002    -6.5553500128161380E-012
  -4.7399999999999998E-002    -5.7970867689559824E-012
  -4.6299999999999994E-002     1.7378147532100361E-012
  -4.5199999999999990E-002     1.2728469320211319E-011
  -4.4099999999999986E-002     1.7908143717939102E-011
  -4.2999999999999997E-002     8.1403555771157629E-012
  -4.1899999999999993E-002    -1.5834372008026320E-011
  -4.0799999999999989E-002    -3.8249695077931499E-011
  -3.9699999999999985E-002    -3.5922563534911863E-011
  -3.8599999999999995E-002     2.2226677963369270E-012
  -3.7499999999999992E-002     5.7604362252438118E-011
  -3.6399999999999988E-002     8.5521915937919824E-011
  -3.5299999999999984E-002     4.6693066080304873E-011
  -3.4199999999999994E-002    -5.1731178368755922E-011
  -3.3099999999999991E-002    -1.4257262037631612E-010
  -3.1999999999999987E-002    -1.3825321443229634E-010
  -3.0899999999999997E-002    -7.0346228842221488E-012
  -2.9799999999999993E-002     1.7454677980754375E-010
  -2.8699999999999989E-002     2.5446081353132240E-010
  -2.7599999999999986E-002     1.2410522609587385E-010
  -2.6499999999999996E-002    -1.6103973710100417E-010
  -2.5399999999999992E-002    -3.7721367696087126E-010
  -2.4299999999999988E-002    -2.9145719171455820E-010
  -2.3199999999999985E-002     1.1345024225614626E-010
  -2.2099999999999995E-002     5.4555426842739859E-010
  -2.0999999999999991E-002     5.7992649571407729E-010
  -1.9899999999999987E-002     2.7276741629332453E-011
  -1.8799999999999983E-002    -7.9570217081935580E-010
  -1.7699999999999994E-002    -1.1880363359751480E-009
  -1.6599999999999990E-002    -5.9388127748872064E-010
  -1.5499999999999986E-002     8.2550105640058442E-010
  -1.4399999999999996E-002     2.0951909096567438E-009
  -1.3299999999999992E-002     2.0381420995365216E-009
  -1.2199999999999989E-002     2.4760066219565684E-010
  -1.1099999999999985E-002    -2.3444188812503460E-009
  -9.9999999999999950E-003    -3.9003826834972287E-009
  -8.8999999999999913E-003    -2.9705782278458505E-009
  -7.7999999999999875E-003     2.7038044025889388E-010
  -6.6999999999999837E-003     3.8884477859821857E-009
  -5.5999999999999939E-003     5.4430988605248563E-009
  -4.4999999999999901E-003     3.7823157938991883E-009
  -3.3999999999999864E-003    -3.7288446635440026E-011
  -2.2999999999999826E-003    -3.5403238118899132E-009
  -1.1999999999999927E-003    -4.7798813795906831E-009
  -9.9999999999988987E-005    -3.8207996766462112E-009
   1.0000000000000148E-003    -2.3970778695319134E-009
   2.1000000000000185E-003    -1.9289492225742885E-009
   3.2000000000000084E-003    -1.6959259552256384E-009
   4.3000000000000121E-003     8.5445450714826083E-010
   5.4000000000000159E-003     7.3744148565421213E-009
   6.5000000000000058E-003     1.5551927745605214E-008
   7.6000000000000234E-003     1.8816320945803471E-008
   8.7000000000000133E-003     1.0294423091751951E-008
   9.8000000000000032E-003    -1.0953018936274937E-008
   1.0900000000000021E-002    -3.6094668587337126E-008
   1.2000000000000011E-002    -4.9232205867611404E-008
   1.3100000000000001E-002    -3.6654345336731747E-008
   1.4200000000000018E-002     2.5531032843364761E-009
   1.5300000000000008E-002     5.2119119686716894E-008
   1.6400000000000026E-002     8.5111757641695849E-008
   1.7500000000000016E-002     7.9061159397045056E-008
   1.8600000000000005E-002     3.0760645586277159E-008
   1.9700000000000023E-002    -3.9378495131349120E-008
   2.0800000000000013E-002    -9.7560501899343345E-008
   2.1900000000000003E-002    -1.1576368308396598E-007
   2.3000000000000020E-002    -8.7345775057205890E-008
   2.4100000000000010E-002    -2.8393115414371679E-008
   2.5200000000000000E-002     3.5752556470909277E-008
   2.6300000000000018E-002     8.7802526138587861E-008
   2.7400000000000008E-002     1.2501041624090261E-007
   2.8500000000000025E-002     1.4882927246162745E-007
   2.9600000000000015E-002     1.4741742404568510E-007
   3.0700000000000005E-002     9.0787516171557017E-008
   3.1800000000000023E-002    -4.7923915502648120E-008
   3.2900000000000013E-002    -2.5341765308437323E-007
   3.4000000000000002E-002    -4.4205108906680194E-007
   3.5100000000000020E-002    -4.8182630507655813E-007
   3.6200000000000010E-002    -2.6581662382345680E-007
   3.7300000000000028E-002     1.9591078626029850E-007
   3.8400000000000017E-002     7.2955202767838881E-007
   3.9500000000000007E-002     1.0478867125129729E-006
   4.0600000000000025E-002     8.9496467126084768E-007
   4.1700000000000015E-002     2.1492859048073159E-007
   4.2800000000000005E-002    -7.5974725177721455E-007
   4.3900000000000022E-002    -1.5756038465041608E-006
   4.5000000000000012E-002    -1.7708250652503508E-006
   4.6100000000000002E-002    -1.1300844562356445E-006
   4.7200000000000020E-002     1.6218984910659444E-007
   4.8300000000000010E-002     1.5705725218139326E-006
   4.9400000000000027E-002     2.4513033167748991E-006
   5.0500000000000017E-002     2.3683294330111400E-006
   5.1600000000000007E-002     1.3135422705090008E-006
   5.2700000000000025E-002    -2.9044235816399297E-007
   5.3800000000000014E-002    -1.8069617908621698E-006
   5.4900000000000004E-002    -2.6993559458786104E-006
   5.6000000000000022E-002    -2.7649148250927915E-006
   5.7100000000000012E-002    -2.1598636976703311E-006
   5.8200000000000002E-002    -1.2144009815528129E-006
   5.9300000000000019E-002    -1.6990998119588370E-007
   6.0400000000000009E-002     9.7382462627115311E-007
   6.1500000000000027E-002     2.3779373350404451E-006
   6.2600000000000017E-002     4.0829399949867878E-006
   6.3700000000000007E-002     5.7161564654959814E-006
   6.4800000000000024E-002     6.4314344854210546E-006
   6.5900000000000014E-002     5.2193349802111742E-006
   6.7000000000000004E-002     1.5011127061373511E-006
   6.8100000000000022E-002    -4.3012760215785395E-006
   6.9200000000000012E-002    -1.0599139386613206E-005
   7.0300000000000029E-002    -1.5100509699550383E-005
   7.1400000000000019E-002    -1.5797157175256844E-005
   7.2500000000000009E-002    -1.2030292054987440E-005
   7.3600000000000027E-002    -5.0498074415370669E-006
   7.4700000000000016E-002     2.3362615593217836E-006
   7.5800000000000006E-002     6.9709708441228278E-006
   7.6900000000000024E-002     6.8616232056234500E-006
   7.8000000000000014E-002     2.1844759885431668E-006
   7.9100000000000004E-002    -4.8443876039520546E-006
   8.0200000000000021E-002    -1.1263878150201880E-005
   8.1300000000000011E-002    -1.5158358110055537E-005
   8.2400000000000029E-002    -1.6886015146154375E-005
   8.3500000000000019E-002    -1.8910192011388211E-005
   8.4600000000000009E-002    -2.4192417185984666E-005
   8.5700000000000026E-002    -3.4043499908873933E-005
   8.6800000000000016E-002    -4.6820900024611577E-005
   8.7900000000000006E-002    -5.8508016081757619E-005
   8.9000000000000024E-002    -6.5111526055258701E-005
   9.0100000000000013E-002    -6.5586471464480986E-005
   9.1200000000000003E-002    -6.3438885263161846E-005
   9.2300000000000021E-002    -6.5732361690599726E-005
   9.3400000000000011E-002    -7.9717843618700717E-005
   9.4500000000000028E-002    -1.0884610674110128E-004
   9.5600000000000018E-002    -1.5053348033687767E-004
   9.6700000000000008E-002    -1.9721593707798551E-004
   9.7800000000000026E-002    -2.4035887327043641E-004
   9.8900000000000016E-002    -2.7526856865732040E-004
  0.10000000000000001         -3.0393514316526894E-004
  0.10110000000000002         -3.3417783561160135E-004
  0.10220000000000001         -3.7550873821598339E-004
  0.10330000000000003         -4.3411826482039271E-004
  0.10440000000000002         -5.0991959869857700E-004
  0.10550000000000001         -5.9737812262023967E-004
  0.10660000000000003         -6.8955309689039792E-004
  0.10770000000000002         -7.8276684507721682E-004
  0.10880000000000001         -8.7900302605696653E-004
  0.10990000000000003         -9.8454894032321536E-004
  0.11100000000000002         -1.1058044619857385E-003
  0.11210000000000001         -1.2450374197213853E-003
  0.11320000000000002         -1.3987901620565741E-003
  0.11430000000000001         -1.5599910402669278E-003
  0.11540000000000003         -1.7223466420544817E-003
  0.11650000000000002         -1.8839903641490630E-003
  0.11760000000000001         -2.0480158273129007E-003
  0.11870000000000003         -2.2193943150339707E-003
  0.11980000000000002         -2.4004010483620586E-003
  0.12090000000000001         -2.5875682476905843E-003
  0.12200000000000003         -2.7722513768819669E-003
  0.12310000000000001         -2.9445674736050306E-003
  0.12420000000000003         -3.0979448929426448E-003
  0.12530000000000002         -3.2312846742567638E-003
  0.12640000000000001         -3.3472259528932054E-003
  0.12750000000000003         -3.4472129773345547E-003
  0.12860000000000002         -3.5268520005044203E-003
  0.12970000000000001         -3.5742330364879763E-003
  0.13080000000000003         -3.5726013593372474E-003
  0.13190000000000002         -3.5061123780903000E-003
  0.13300000000000001         -3.3650340046730469E-003
  0.13410000000000000         -3.1477294396606023E-003
  0.13520000000000004         -2.8578920755532480E-003
  0.13630000000000003         -2.4990709498522012E-003
  0.13740000000000002         -2.0695382263509064E-003
  0.13850000000000001         -1.5609479742122697E-003
  0.13960000000000000         -9.6074340399339409E-004
  0.14070000000000005         -2.5815720437084573E-004
  0.14180000000000004          5.5096996948126860E-004
  0.14290000000000003          1.4626642223447251E-003
  0.14400000000000002          2.4670329876242971E-003
  0.14510000000000001          3.5532473120836422E-003
  0.14620000000000000          4.7133024781939419E-003
  0.14730000000000004          5.9424676001067923E-003
  0.14840000000000003          7.2364346124226681E-003
  0.14950000000000002          8.5866367444389705E-003
  0.15060000000000001          9.9775614216916185E-003
  0.15170000000000000          1.1386157013475015E-002
  0.15280000000000005          1.2785331346093602E-002
  0.15390000000000004          1.4147355221210777E-002
  0.15500000000000003          1.5446225181220704E-002
  0.15610000000000002          1.6656868159769588E-002
  0.15720000000000001          1.7753470689056815E-002
  0.15830000000000000          1.8707189708946543E-002
  0.15940000000000004          1.9487569108603702E-002
  0.16050000000000003          2.0065365359185367E-002
  0.16160000000000002          2.0416390150783628E-002
  0.16270000000000001          2.0522896200416616E-002
  0.16380000000000000          2.0371783524749790E-002
  0.16490000000000005          1.9949879497287791E-002
  0.16600000000000004          1.9240109249947623E-002
  0.16710000000000003          1.8221490085123197E-002
  0.16820000000000002          1.6874233260749088E-002
  0.16930000000000001          1.5188272111116275E-002
  0.17040000000000000          1.3170666061340344E-002
  0.17150000000000004          1.0847003199158855E-002
  0.17260000000000003          8.2554072141636948E-003
  0.17370000000000002          5.4361252114168666E-003
  0.17480000000000001          2.4220964405680134E-003
  0.17590000000000000         -7.6343619730351157E-004
  0.17700000000000005         -4.1005602106451806E-003
  0.17810000000000004         -7.5615872628983566E-003
  0.17920000000000003         -1.1101557873188804E-002
  0.18030000000000002         -1.4656269922851548E-002
  0.18140000000000001         -1.8150359392164847E-002
  0.18250000000000000         -2.1508567035196598E-002
  0.18360000000000004         -2.4667505174873337E-002
  0.18470000000000003         -2.7578223496673271E-002
  0.18580000000000002         -3.0202865600583443E-002
  0.18690000000000001         -3.2505419105288626E-002
  0.18800000000000000         -3.4445583820340055E-002
  0.18910000000000005         -3.5979218780991272E-002
  0.19020000000000004         -3.7063393741842796E-002
  0.19130000000000003         -3.7665043026205484E-002
  0.19240000000000002         -3.7767060101028802E-002
  0.19350000000000001         -3.7368293851610529E-002
  0.19460000000000005         -3.6478880792852775E-002
  0.19570000000000004         -3.5113334655758353E-002
  0.19680000000000003         -3.3288110047575571E-002
  0.19790000000000002         -3.1022513285276197E-002
  0.19900000000000001         -2.8345102444288246E-002
  0.20010000000000000         -2.5297144427892923E-002
  0.20120000000000005         -2.1932678297159711E-002
  0.20230000000000004         -1.8312852829692711E-002
  0.20340000000000003         -1.4499302953479972E-002
  0.20450000000000002         -1.0549323633311831E-002
  0.20560000000000000         -6.5164840780188756E-003
  0.20670000000000005         -2.4554179981344823E-003
  0.20780000000000004          1.5732926549392276E-003
  0.20890000000000003          5.5022621527312790E-003
