 -0.12000000000000000          0.0000000000000000
 -0.11889999999999999          0.0000000000000000
 -0.11780000000000000          0.0000000000000000
 -0.11670000000000000          0.0000000000000000
 -0.11559999999999999          0.0000000000000000
 -0.11449999999999999          0.0000000000000000
 -0.11340000000000000          0.0000000000000000
 -0.11230000000000000          0.0000000000000000
 -0.11119999999999999          0.0000000000000000
 -0.11009999999999999          0.0000000000000000
 -0.10900000000000000         -2.4452817389973605E-037
 -0.10790000000000000         -1.9410978967129854E-035
 -0.10679999999999999         -4.0001567663253575E-034
 -0.10569999999999999         -4.0528679533971443E-033
 -0.10460000000000000         -2.5104633182432315E-032
 -0.10349999999999999         -1.0403086213463667E-031
 -0.10239999999999999         -2.9342772269830498E-031
 -0.10130000000000000         -5.1610591988389492E-031
 -0.10020000000000000         -2.6542058237470929E-031
  -9.9099999999999994E-002     1.4012783216321850E-030
  -9.7999999999999990E-002     4.4679310237466448E-030
  -9.6899999999999986E-002     4.9121922805608246E-030
  -9.5799999999999996E-002    -5.9193122059950580E-030
  -9.4699999999999993E-002    -3.0932592550249829E-029
  -9.3599999999999989E-002    -4.5159289595426973E-029
  -9.2499999999999999E-002     1.0249644186853657E-029
  -9.1399999999999995E-002     1.6769090081372891E-028
  -9.0299999999999991E-002     3.0447698158885917E-028
  -8.9200000000000002E-002     8.1455768568930926E-029
  -8.8099999999999984E-002    -8.1234251717846152E-028
  -8.6999999999999994E-002    -1.9929915954227772E-027
  -8.5899999999999990E-002    -1.6104745602622618E-027
  -8.4799999999999986E-002     3.3725117182420327E-027
  -8.3699999999999997E-002     1.3461045449493570E-026
  -8.2599999999999993E-002     1.7803291783683742E-026
  -8.1499999999999989E-002    -1.1505945370168645E-026
  -8.0399999999999999E-002    -9.2959332093389099E-026
  -7.9299999999999995E-002    -1.5122928241463778E-025
  -7.8199999999999992E-002     4.8192304642344743E-026
  -7.7100000000000002E-002     6.8127013851018106E-025
  -7.5999999999999984E-002     1.1703796769653128E-024
  -7.4899999999999994E-002    -3.1297208389170531E-025
  -7.3799999999999991E-002    -5.1489042002779541E-024
  -7.2699999999999987E-002    -9.1798023823795762E-024
  -7.1599999999999997E-002     7.8380711713551997E-025
  -7.0499999999999993E-002     3.5586821788178889E-023
  -6.9399999999999989E-002     7.0228108584472631E-023
  -6.8300000000000000E-002     1.8952470022634383E-023
  -6.7199999999999996E-002    -2.0196987399675000E-022
  -6.6099999999999992E-002    -4.7714669633028304E-022
  -6.5000000000000002E-002    -3.1885603803384598E-022
  -6.3899999999999985E-002     8.5784415343172223E-022
  -6.2799999999999995E-002     2.7115564110340366E-021
  -6.1699999999999991E-002     2.8767102096929944E-021
  -6.0599999999999994E-002    -2.1674521098363569E-021
  -5.9499999999999990E-002    -1.2471034549389038E-020
  -5.8399999999999994E-002    -1.8513528339571384E-020
  -5.7299999999999990E-002    -2.3475906811105606E-021
  -5.6199999999999986E-002     4.4531268276792245E-020
  -5.5099999999999996E-002     9.1901284706547234E-020
  -5.3999999999999992E-002     6.2790789160411627E-020
  -5.2899999999999989E-002    -1.0933735375271861E-019
  -5.1799999999999985E-002    -3.5979714837975363E-019
  -5.0699999999999995E-002    -4.1374460131014912E-019
  -4.9599999999999991E-002     7.3421514060138536E-020
  -4.8499999999999988E-002     1.0907881845226516E-018
  -4.7399999999999998E-002     1.8443077431423728E-018
  -4.6299999999999994E-002     9.4952372707691754E-019
  -4.5199999999999990E-002    -2.3106196465308727E-018
  -4.4099999999999986E-002    -6.2331293432065718E-018
  -4.2999999999999997E-002    -6.3313487691411183E-018
  -4.1899999999999993E-002     1.6658203649269056E-018
  -4.0799999999999989E-002     1.5984998985430018E-017
  -3.9699999999999985E-002     2.4973861514202912E-017
  -3.8599999999999995E-002     1.2170812932666354E-017
  -3.7499999999999992E-002    -2.7732748739444900E-017
  -3.6399999999999988E-002    -7.2016375684451020E-017
  -3.5299999999999984E-002    -7.2165354221494270E-017
  -3.4199999999999994E-002     1.0876018848030974E-017
  -3.3099999999999991E-002     1.5279251464649980E-016
  -3.1999999999999987E-002     2.4172337728145565E-016
  -3.0899999999999997E-002     1.3571041443411212E-016
  -2.9799999999999993E-002    -2.0103698345815278E-016
  -2.8699999999999989E-002    -5.7826965778830686E-016
  -2.7599999999999986E-002    -6.2227249000257573E-016
  -2.6499999999999996E-002    -4.8960214960805319E-017
  -2.5399999999999992E-002     9.7169004494788687E-016
  -2.4299999999999988E-002     1.6911338899616799E-015
  -2.3199999999999985E-002     1.1850418683726025E-015
  -2.2099999999999995E-002    -8.0922631986787429E-016
  -2.0999999999999991E-002    -3.2253805491911551E-015
  -1.9899999999999987E-002    -3.9551225148985476E-015
  -1.8799999999999983E-002    -1.3408688256130816E-015
  -1.7699999999999994E-002     3.9582569603198621E-015
  -1.6599999999999990E-002     8.3775353191054003E-015
  -1.5499999999999986E-002     7.3675213743381110E-015
  -1.4399999999999996E-002    -7.9451944562337548E-016
  -1.3299999999999992E-002    -1.2057281917137418E-014
  -1.2199999999999989E-002    -1.7711118419842624E-014
  -1.1099999999999985E-002    -1.0319841159465819E-014
  -9.9999999999999950E-003     9.0053671510386020E-015
  -8.8999999999999913E-003     2.8161124826378905E-014
  -7.7999999999999875E-003     3.0583517082781800E-014
  -6.6999999999999837E-003     8.2229424888690707E-015
  -5.5999999999999939E-003    -2.8399429075759430E-014
  -4.4999999999999901E-003    -5.3085638505477248E-014
  -3.3999999999999864E-003    -4.1571845114550185E-014
  -2.2999999999999826E-003     7.0006290532349108E-015
  -1.1999999999999927E-003     6.2479548986783817E-014
  -9.9999999999988987E-005     8.0756642963520503E-014
   1.0000000000000148E-003     3.7630939624154827E-014
   2.1000000000000185E-003    -4.5400982913489443E-014
   3.2000000000000084E-003    -1.0802857631879437E-013
   4.3000000000000121E-003    -9.3203995411329787E-014
   5.4000000000000159E-003     3.1616032034276426E-015
   6.5000000000000058E-003     1.1606301586041673E-013
   7.6000000000000234E-003     1.5103941860238057E-013
   8.7000000000000133E-003     5.8877680291988255E-014
   9.8000000000000032E-003    -1.1057504873757465E-013
   1.0900000000000021E-002    -2.2675596480798560E-013
   1.2000000000000011E-002    -1.7050167430265190E-013
   1.3100000000000001E-002     6.0661850163293979E-014
   1.4200000000000018E-002     3.1949792746351069E-013
   1.5300000000000008E-002     3.9263446552188774E-013
   1.6400000000000026E-002     1.5882828635193497E-013
   1.7500000000000016E-002    -2.8930883296668375E-013
   1.8600000000000005E-002    -6.6447498545119110E-013
   1.9700000000000023E-002    -6.5834165376144060E-013
   2.0800000000000013E-002    -1.6683547176144647E-013
   2.1900000000000003E-002     5.9122585299720143E-013
   2.3000000000000020E-002     1.1642611787848756E-012
   2.4100000000000010E-002     1.1311822789225601E-012
   2.5200000000000000E-002     3.7789083385912636E-013
   2.6300000000000018E-002    -7.9178260085563390E-013
   2.7400000000000008E-002    -1.7860783381798417E-012
   2.8500000000000025E-002    -2.0203901485854603E-012
   2.9600000000000015E-002    -1.2117963967342438E-012
   3.0700000000000005E-002     4.6512636407355923E-013
   3.1800000000000023E-002     2.3982630117935777E-012
   3.2900000000000013E-002     3.6968045812046935E-012
   3.4000000000000002E-002     3.4624035409602794E-012
   3.5100000000000020E-002     1.1857790140415436E-012
   3.6200000000000010E-002    -2.7716251602832864E-012
   3.7300000000000028E-002    -6.8457496615881297E-012
   3.8400000000000017E-002    -8.5129481589008016E-012
   3.9500000000000007E-002    -5.4349415593013539E-012
   4.0600000000000025E-002     2.7268339496122618E-012
   4.1700000000000015E-002     1.2863773414528712E-011
   4.2800000000000005E-002     1.8790569794591150E-011
   4.3900000000000022E-002     1.4248231067215400E-011
   4.5000000000000012E-002    -2.3946753868048232E-012
   4.6100000000000002E-002    -2.4610646853773233E-011
   4.7200000000000020E-002    -3.8755394726752712E-011
   4.8300000000000010E-002    -3.1068987660365366E-011
   4.9400000000000027E-002     2.0781920021667455E-012
   5.0500000000000017E-002     4.7169768091492870E-011
   5.1600000000000007E-002     7.6479836352838504E-011
   5.2700000000000025E-002     6.2779857701311670E-011
   5.3800000000000014E-002    -6.0242099936963500E-013
   5.4900000000000004E-002    -8.7247875590890089E-011
   5.6000000000000022E-002    -1.4460641017954856E-010
   5.7100000000000012E-002    -1.2225902235041275E-010
   5.8200000000000002E-002    -8.3225770025618928E-012
   5.9300000000000019E-002     1.4942008741414270E-010
   6.0400000000000009E-002     2.5761373589894276E-010
   6.1500000000000027E-002     2.2768344154489029E-010
   6.2600000000000017E-002     3.8121453910244796E-011
   6.3700000000000007E-002    -2.3116530911693189E-010
   6.4800000000000024E-002    -4.2422473867098631E-010
   6.5900000000000014E-002    -3.9332803680736106E-010
   6.7000000000000004E-002    -1.0043546549987070E-010
   6.8100000000000022E-002     3.2872146671358848E-010
   6.9200000000000012E-002     6.4687827316944890E-010
   7.0300000000000029E-002     6.1960075958822358E-010
   7.1400000000000019E-002     1.8412556201941044E-010
   7.2500000000000009E-002    -4.6790787910921949E-010
   7.3600000000000027E-002    -9.5720975590296575E-010
   7.4700000000000016E-002    -9.2353857894522662E-010
   7.5800000000000006E-002    -2.6739860325974973E-010
   7.6900000000000024E-002     7.2489797497965469E-010
   7.8000000000000014E-002     1.4806625925345429E-009
   7.9100000000000004E-002     1.4483119148422929E-009
   8.0200000000000021E-002     4.5721670893783539E-010
   8.1300000000000011E-002    -1.0913059345085685E-009
   8.2400000000000029E-002    -2.3576181007456398E-009
   8.3500000000000019E-002    -2.4991866354184822E-009
   8.4600000000000009E-002    -1.1884704331777129E-009
   8.5700000000000026E-002     1.0966549890412125E-009
   8.6800000000000016E-002     3.2279885431307775E-009
   8.7900000000000006E-002     4.0001491008467838E-009
   8.9000000000000024E-002     2.8280415786952062E-009
   9.0100000000000013E-002     1.5531018138226216E-010
   9.1200000000000003E-002    -2.7138065128440303E-009
   9.2300000000000021E-002    -4.3204537725216596E-009
   9.3400000000000011E-002    -3.9105194638011653E-009
   9.4500000000000028E-002    -1.9183616917217705E-009
   9.5600000000000018E-002     2.7557170434455713E-010
   9.6700000000000008E-002     1.2329243181952165E-009
   9.7800000000000026E-002     4.7432524574730905E-010
   9.8900000000000016E-002    -1.0485383672431681E-009
  0.10000000000000001         -1.4310364004899156E-009
  0.10110000000000002          9.2922086691871186E-010
  0.10220000000000001          6.0253544376109858E-009
  0.10330000000000003          1.1762862683895037E-008
  0.10440000000000002          1.4784268920209342E-008
  0.10550000000000001          1.2285057415795109E-008
  0.10660000000000003          3.8039265071176942E-009
  0.10770000000000002         -8.1762365766735456E-009
  0.10880000000000001         -1.9385751670597529E-008
  0.10990000000000003         -2.6195470681500410E-008
  0.11100000000000002         -2.7929257129244434E-008
  0.11210000000000001         -2.7553511472433456E-008
  0.11320000000000002         -3.0081135804493897E-008
  0.11430000000000001         -3.9431256482203025E-008
  0.11540000000000003         -5.5612165539287162E-008
  0.11650000000000002         -7.4165853902741219E-008
  0.11760000000000001         -8.8625036198664020E-008
  0.11870000000000003         -9.4874714307024988E-008
  0.11980000000000002         -9.4888903845458117E-008
  0.12090000000000001         -9.7313161973033857E-008
  0.12200000000000003         -1.1399272636936075E-007
  0.12310000000000001         -1.5399039909880230E-007
  0.12420000000000003         -2.1845106346063403E-007
  0.12530000000000002         -2.9961410064061056E-007
  0.12640000000000001         -3.8513991285071825E-007
  0.12750000000000003         -4.6578554702136898E-007
  0.12860000000000002         -5.4218202194533660E-007
  0.12970000000000001         -6.2655811916556559E-007
  0.13080000000000003         -7.3792455168586457E-007
  0.13190000000000002         -8.9308821316080866E-007
  0.13300000000000001         -1.0986263987433631E-006
  0.13410000000000000         -1.3488026979757706E-006
  0.13520000000000004         -1.6311641957145184E-006
  0.13630000000000003         -1.9369840629224200E-006
  0.13740000000000002         -2.2705305582348956E-006
  0.13850000000000001         -2.6514167075220030E-006
  0.13960000000000000         -3.1081469842320075E-006
  0.14070000000000005         -3.6662449929281138E-006
  0.14180000000000004         -4.3378827285778243E-006
  0.14290000000000003         -5.1194292609579861E-006
  0.14400000000000002         -5.9988119573972654E-006
  0.14510000000000001         -6.9686452661699150E-006
  0.14620000000000000         -8.0373329183203168E-006
  0.14730000000000004         -9.2311847765813582E-006
  0.14840000000000003         -1.0585885320324451E-005
  0.14950000000000002         -1.2132148185628466E-005
  0.15060000000000001         -1.3884146028431132E-005
  0.15170000000000000         -1.5837953469599597E-005
  0.15280000000000005         -1.7981130440603010E-005
  0.15390000000000004         -2.0307459635660052E-005
  0.15500000000000003         -2.2827403881819919E-005
  0.15610000000000002         -2.5567011107341386E-005
  0.15720000000000001         -2.8555061362567358E-005
  0.15830000000000000         -3.1805851904209703E-005
  0.15940000000000004         -3.5308141377754509E-005
  0.16050000000000003         -3.9027381717460230E-005
  0.16160000000000002         -4.2920521082123742E-005
  0.16270000000000001         -4.6954301069490612E-005
  0.16380000000000000         -5.1115148380631581E-005
  0.16490000000000005         -5.5403630540240556E-005
  0.16600000000000004         -5.9815272834384814E-005
  0.16710000000000003         -6.4318424847442657E-005
  0.16820000000000002         -6.8842440668959171E-005
  0.16930000000000001         -7.3283983510918915E-005
  0.17040000000000000         -7.7528544352389872E-005
  0.17150000000000004         -8.1474929174873978E-005
  0.17260000000000003         -8.5048188338987529E-005
  0.17370000000000002         -8.8192886323668063E-005
  0.17480000000000001         -9.0850451670121402E-005
  0.17590000000000000         -9.2933558335062116E-005
  0.17700000000000005         -9.4313152658287436E-005
  0.17810000000000004         -9.4826507847756147E-005
  0.17920000000000003         -9.4302573415916413E-005
  0.18030000000000002         -9.2591595603153110E-005
  0.18140000000000001         -8.9582827058620751E-005
  0.18250000000000000         -8.5201732872519642E-005
  0.18360000000000004         -7.9390520113520324E-005
  0.18470000000000003         -7.2085189458448440E-005
  0.18580000000000002         -6.3204417529050261E-005
  0.18690000000000001         -5.2656319894595072E-005
  0.18800000000000000         -4.0360806451644748E-005
  0.18910000000000005         -2.6275678465026431E-005
  0.19020000000000004         -1.0411608855065424E-005
  0.19130000000000003          7.1693439167574979E-006
  0.19240000000000002          2.6368712497060187E-005
  0.19350000000000001          4.7068162530194968E-005
  0.19460000000000005          6.9136694946791977E-005
  0.19570000000000004          9.2423804744612426E-005
  0.19680000000000003          1.1674241977743804E-004
  0.19790000000000002          1.4185429608915001E-004
  0.19900000000000001          1.6746754408814013E-004
  0.20010000000000000          1.9324943423271179E-004
  0.20120000000000005          2.1884802845306695E-004
  0.20230000000000004          2.4391032638959587E-004
  0.20340000000000003          2.6808740221895278E-004
  0.20450000000000002          2.9102587723173201E-004
  0.20560000000000000          3.1235427013598382E-004
  0.20670000000000005          3.3167545916512609E-004
  0.20780000000000004          3.4857395803555846E-004
  0.20890000000000003          3.6263768561184406E-004
