 -0.12000000000000000          0.0000000000000000
 -0.11889999999999999          0.0000000000000000
 -0.11780000000000000          0.0000000000000000
 -0.11670000000000000          0.0000000000000000
 -0.11559999999999999          0.0000000000000000
 -0.11449999999999999          0.0000000000000000
 -0.11340000000000000          0.0000000000000000
 -0.11230000000000000          0.0000000000000000
 -0.11119999999999999          0.0000000000000000
 -0.11009999999999999         -7.9673079664157491E-029
 -0.10900000000000000          2.6090043325879178E-028
 -0.10790000000000000          1.8655327813312521E-027
 -0.10679999999999999         -7.5218703907119896E-027
 -0.10569999999999999         -5.2827512654467413E-026
 -0.10460000000000000         -1.0321256557569480E-026
 -0.10349999999999999          5.8916929662285037E-025
 -0.10239999999999999          1.5105961569025704E-024
 -0.10130000000000000         -1.2161389342792417E-024
 -0.10020000000000000         -1.3449082891555862E-023
  -9.9099999999999994E-002    -2.2263092049906266E-023
  -9.7999999999999990E-002     2.9329163724851487E-023
  -9.6899999999999986E-002     1.8420345161194998E-022
  -9.5799999999999996E-002     2.5383516873030104E-022
  -9.4699999999999993E-002    -3.1238089101894915E-022
  -9.3599999999999989E-002    -1.7757281695719046E-021
  -9.2499999999999999E-002    -2.4568007362906513E-021
  -9.1399999999999995E-002     1.7998014276088635E-021
  -9.0299999999999991E-002     1.2813009109194359E-020
  -8.9200000000000002E-002     1.9801117357954000E-020
  -8.8099999999999984E-002    -3.2505994816380142E-021
  -8.6999999999999994E-002    -7.0584904944541066E-020
  -8.5899999999999990E-002    -1.2966368879437830E-019
  -8.4799999999999986E-002    -4.2853884935028220E-020
  -8.3699999999999997E-002     2.9163113280381929E-019
  -8.2599999999999993E-002     6.8148867087860350E-019
  -8.1499999999999989E-002     5.1180497592253816E-019
  -8.0399999999999999E-002    -8.1979182173139776E-019
  -7.9299999999999995E-002    -2.8436424255508554E-018
  -7.8199999999999992E-002    -3.2656923079519491E-018
  -7.7100000000000002E-002     8.2014109874504827E-019
  -7.5999999999999984E-002     9.1719630932645702E-018
  -7.4899999999999994E-002     1.4814940428445184E-017
  -7.3799999999999991E-002     6.2785994614786117E-018
  -7.2699999999999987E-002    -2.1042604589344618E-017
  -7.1599999999999997E-002    -5.0831681318204492E-017
  -7.0499999999999993E-002    -4.6024024879985040E-017
  -6.9399999999999989E-002     2.2745812483983155E-017
  -6.8300000000000000E-002     1.3131808538145555E-016
  -6.7199999999999996E-002     1.8278945855457180E-016
  -6.6099999999999992E-002     6.3176296478096813E-017
  -6.5000000000000002E-002    -2.3413308857133026E-016
  -6.3899999999999985E-002    -5.1205984515851678E-016
  -6.2799999999999995E-002    -4.4000741101680335E-016
  -6.1699999999999991E-002     1.6724973916468520E-016
  -6.0599999999999994E-002     1.0357181124637867E-015
  -5.9499999999999990E-002     1.4179633292524447E-015
  -5.8399999999999994E-002     5.9308505812917262E-016
  -5.7299999999999990E-002    -1.3458566850021070E-015
  -5.6199999999999986E-002    -3.1000829887103259E-015
  -5.5099999999999996E-002    -2.8191894992253812E-015
  -5.3999999999999992E-002     3.1106236784641953E-016
  -5.2899999999999989E-002     4.7114179047111782E-015
  -5.1799999999999985E-002     6.7997539192441326E-015
  -5.0699999999999995E-002     3.5745476470818750E-015
  -4.9599999999999991E-002    -4.2089397491915613E-015
  -4.8499999999999988E-002    -1.1188467517644473E-014
  -4.7399999999999998E-002    -1.0689668449731255E-014
  -4.6299999999999994E-002    -5.7716872671511308E-016
  -4.5199999999999990E-002     1.3094397528085056E-014
  -4.4099999999999986E-002     1.8999518213054511E-014
  -4.2999999999999997E-002     9.5122206552472610E-015
  -4.1899999999999993E-002    -1.0909388796249021E-014
  -4.0799999999999989E-002    -2.6231858211208520E-014
  -3.9699999999999985E-002    -2.0612489173192985E-014
  -3.8599999999999995E-002     6.3952046308883743E-015
  -3.7499999999999992E-002     3.4777986968135416E-014
  -3.6399999999999988E-002     3.7077386652465197E-014
  -3.5299999999999984E-002     2.4409280901458970E-015
  -3.4199999999999994E-002    -4.7896714670597404E-014
  -3.3099999999999991E-002    -7.0767698613031366E-014
  -3.1999999999999987E-002    -3.4615810651922319E-014
  -3.0899999999999997E-002     4.8081381405625997E-014
  -2.9799999999999993E-002     1.1926791748228388E-013
  -2.8699999999999989E-002     1.1376902024629043E-013
  -2.7599999999999986E-002     1.3380127152182349E-014
  -2.6499999999999996E-002    -1.2673285272775392E-013
  -2.5399999999999992E-002    -2.0734674014647597E-013
  -2.4299999999999988E-002    -1.5593147432990673E-013
  -2.3199999999999985E-002     1.2520688560382562E-014
  -2.2099999999999995E-002     1.9521149562280737E-013
  -2.0999999999999991E-002     2.6935691090773650E-013
  -1.9899999999999987E-002     1.8133751607512377E-013
  -1.8799999999999983E-002    -1.1128207899710908E-014
  -1.7699999999999994E-002    -1.7987484602927789E-013
  -1.6599999999999990E-002    -2.2224228208612973E-013
  -1.5499999999999986E-002    -1.3807890649007032E-013
  -1.4399999999999996E-002    -2.4679678805694487E-014
  -1.3299999999999992E-002     1.0392588584140754E-014
  -1.2199999999999989E-002    -4.9457383040308819E-014
  -1.1099999999999985E-002    -1.0128761707400152E-013
  -9.9999999999999950E-003    -3.1056452423167081E-015
  -8.8999999999999913E-003     2.8682080582126401E-013
  -7.7999999999999875E-003     6.2110500119796908E-013
  -6.6999999999999837E-003     7.1554876824100888E-013
  -5.5999999999999939E-003     3.3907376689387703E-013
  -4.4999999999999901E-003    -4.7353684558618103E-013
  -3.3999999999999864E-003    -1.3478397000929454E-012
  -2.2999999999999826E-003    -1.7302726092183196E-012
  -1.1999999999999927E-003    -1.2242574575632714E-012
  -9.9999999999988987E-005     1.0167048274242405E-013
   1.0000000000000148E-003     1.6605400865107867E-012
   2.1000000000000185E-003     2.6331306926530296E-012
   3.2000000000000084E-003     2.4459306108282064E-012
   4.3000000000000121E-003     1.1327025472088192E-012
   5.4000000000000159E-003    -6.7941621295988797E-013
   6.5000000000000058E-003    -2.1653033099172658E-012
   7.6000000000000234E-003    -2.8006232315885837E-012
   8.7000000000000133E-003    -2.5966713588371215E-012
   9.8000000000000032E-003    -1.9059391651726765E-012
   1.0900000000000021E-002    -9.8852013814126893E-013
   1.2000000000000011E-002     2.5023977031149447E-013
   1.3100000000000001E-002     2.0651781066499675E-012
   1.4200000000000018E-002     4.3386991048499635E-012
   1.5300000000000008E-002     6.1910277251997492E-012
   1.6400000000000026E-002     6.2025267734411305E-012
   1.7500000000000016E-002     3.2802664664405290E-012
   1.8600000000000005E-002    -2.3527755264873829E-012
   1.9700000000000023E-002    -8.7913096941116819E-012
   2.0800000000000013E-002    -1.3118830674563320E-011
   2.1900000000000003E-002    -1.2845905762726151E-011
   2.3000000000000020E-002    -7.2956406541035967E-012
   2.4100000000000010E-002     1.8937373370830901E-012
   2.5200000000000000E-002     1.1441353940655485E-011
   2.6300000000000018E-002     1.7863146725694001E-011
   2.7400000000000008E-002     1.8882111152418446E-011
   2.8500000000000025E-002     1.4150102096988082E-011
   2.9600000000000015E-002     5.1123523817087069E-012
   3.0700000000000005E-002    -5.6897412128997793E-012
   3.1800000000000023E-002    -1.5430146743655726E-011
   3.2900000000000013E-002    -2.1645586364971159E-011
   3.4000000000000002E-002    -2.2708990937703177E-011
   3.5100000000000020E-002    -1.8238232105116658E-011
   3.6200000000000010E-002    -9.4288379187679183E-012
   3.7300000000000028E-002     9.3702411281537668E-013
   3.8400000000000017E-002     9.1593538309453493E-012
   3.9500000000000007E-002     1.2100251356450542E-011
   4.0600000000000025E-002     9.0799468638325109E-012
   4.1700000000000015E-002     3.2541957410009426E-012
   4.2800000000000005E-002     1.4338114029399662E-012
   4.3900000000000022E-002     1.1925476231522403E-011
   4.5000000000000012E-002     4.1128569300274975E-011
   4.6100000000000002E-002     9.0621433967985610E-011
   4.7200000000000020E-002     1.5651087370560646E-010
   4.8300000000000010E-002     2.3163640450185596E-010
   4.9400000000000027E-002     3.0946098461548388E-010
   5.0500000000000017E-002     3.8737840712954608E-010
   5.1600000000000007E-002     4.6763409811134693E-010
   5.2700000000000025E-002     5.5585663849555544E-010
   5.3800000000000014E-002     6.5898231316197098E-010
   5.4900000000000004E-002     7.8466783071107216E-010
   5.6000000000000022E-002     9.4278584938933818E-010
   5.7100000000000012E-002     1.1474738936811946E-009
   5.8200000000000002E-002     1.4172805151702050E-009
   5.9300000000000019E-002     1.7721647482815683E-009
   6.0400000000000009E-002     2.2286541501159718E-009
   6.1500000000000027E-002     2.7963651394458111E-009
   6.2600000000000017E-002     3.4787515090783927E-009
   6.3700000000000007E-002     4.2784864540124090E-009
   6.4800000000000024E-002     5.2050319609975304E-009
   6.5900000000000014E-002     6.2806964074013649E-009
   6.7000000000000004E-002     7.5425532486406155E-009
   6.8100000000000022E-002     9.0400851249228253E-009
   6.9200000000000012E-002     1.0830541796735815E-008
   7.0300000000000029E-002     1.2974644469920804E-008
   7.1400000000000019E-002     1.5534311614828766E-008
   7.2500000000000009E-002     1.8572588800225276E-008
   7.3600000000000027E-002     2.2154933887463812E-008
   7.4700000000000016E-002     2.6350807758035444E-008
   7.5800000000000006E-002     3.1235288133757422E-008
   7.6900000000000024E-002     3.6891062649146988E-008
   7.8000000000000014E-002     4.3411521488678773E-008
   7.9100000000000004E-002     5.0905018866842511E-008
   8.0200000000000021E-002     5.9498855620176982E-008
   8.1300000000000011E-002     6.9340551078767021E-008
   8.2400000000000029E-002     8.0594169560299633E-008
   8.3500000000000019E-002     9.3431985703773535E-008
   8.4600000000000009E-002     1.0802489924799374E-007
   8.5700000000000026E-002     1.2453686792923691E-007
   8.6800000000000016E-002     1.4312716700715100E-007
   8.7900000000000006E-002     1.6395959789861081E-007
   8.9000000000000024E-002     1.8721250683029211E-007
   9.0100000000000013E-002     2.1308258624230803E-007
   9.1200000000000003E-002     2.4177811042136454E-007
   9.2300000000000021E-002     2.7350424147698504E-007
   9.3400000000000011E-002     3.0844702791910095E-007
   9.4500000000000028E-002     3.4676261861932289E-007
   9.5600000000000018E-002     3.8857490380905801E-007
   9.6700000000000008E-002     4.3397861304583785E-007
   9.7800000000000026E-002     4.8304303845725372E-007
   9.8900000000000016E-002     5.3581271686198306E-007
  0.10000000000000001          5.9230325177850318E-007
  0.10110000000000002          6.5249270164713380E-007
  0.10220000000000001          7.1630933007327258E-007
  0.10330000000000003          7.8361659916481585E-007
  0.10440000000000002          8.5419759443539078E-007
  0.10550000000000001          9.2774257609562483E-007
  0.10660000000000003          1.0038439768322860E-006
  0.10770000000000002          1.0819985618581995E-006
  0.10880000000000001          1.1616156143645640E-006
  0.10990000000000003          1.2420255188771989E-006
  0.11100000000000002          1.3224831718616770E-006
  0.11210000000000001          1.4021647984918673E-006
  0.11320000000000002          1.4801598808844574E-006
  0.11430000000000001          1.5554627452729619E-006
  0.11540000000000003          1.6269673324131873E-006
  0.11650000000000002          1.6934703808146878E-006
  0.11760000000000001          1.7536854102218058E-006
  0.11870000000000003          1.8062677327179699E-006
  0.11980000000000002          1.8498468534744461E-006
  0.12090000000000001          1.8830565977623337E-006
  0.12200000000000003          1.9045571661990834E-006
  0.12310000000000001          1.9130454802507302E-006
  0.12420000000000003          1.9072614350079675E-006
  0.12530000000000002          1.8859973351936787E-006
  0.12640000000000001          1.8481208599041565E-006
  0.12750000000000003          1.7926086002262309E-006
  0.12860000000000002          1.7185859633173095E-006
  0.12970000000000001          1.6253665080512292E-006
  0.13080000000000003          1.5124832088986295E-006
  0.13190000000000002          1.3797176734442473E-006
  0.13300000000000001          1.2271219702597591E-006
  0.13410000000000000          1.0550345450610621E-006
  0.13520000000000004          8.6408726929221302E-007
  0.13630000000000003          6.5520407588337548E-007
  0.13740000000000002          4.2959666757269588E-007
  0.13850000000000001          1.8876413321322616E-007
  0.13960000000000000         -6.5502405277584330E-008
  0.14070000000000005         -3.3111476227531966E-007
  0.14180000000000004         -6.0569090010176296E-007
  0.14290000000000003         -8.8657236574363196E-007
  0.14400000000000002         -1.1708556257872260E-006
  0.14510000000000001         -1.4554320841853041E-006
  0.14620000000000000         -1.7370326759191812E-006
  0.14730000000000004         -2.0122754449403146E-006
  0.14840000000000003         -2.2777180674893316E-006
  0.14950000000000002         -2.5299120807176223E-006
  0.15060000000000001         -2.7654555196932051E-006
  0.15170000000000000         -2.9810405521857319E-006
  0.15280000000000005         -3.1734964522911469E-006
  0.15390000000000004         -3.3398389405192574E-006
  0.15500000000000003         -3.4773236166074639E-006
  0.15610000000000002         -3.5835080325341551E-006
  0.15720000000000001         -3.6563103549269726E-006
  0.15830000000000000         -3.6940557492926018E-006
  0.15940000000000004         -3.6955077575839823E-006
  0.16050000000000003         -3.6598880797100719E-006
  0.16160000000000002         -3.5868988561560400E-006
  0.16270000000000001         -3.4767394936352503E-006
  0.16380000000000000         -3.3301180337730329E-006
  0.16490000000000005         -3.1482493341172813E-006
  0.16600000000000004         -2.9328364234970650E-006
  0.16710000000000003         -2.6860454909183318E-006
  0.16820000000000002         -2.4104826934490120E-006
  0.16930000000000001         -2.1091664166306145E-006
  0.17040000000000000         -1.7854913494375069E-006
  0.17150000000000004         -1.4431780073209666E-006
  0.17260000000000003         -1.0862117960641626E-006
  0.17370000000000002         -7.1878224616739317E-007
  0.17480000000000001         -3.4522602732067753E-007
  0.17590000000000000          3.0027319297687427E-008
  0.17700000000000005          4.0251765653920302E-007
  0.17810000000000004          7.6782822588938870E-007
  0.17920000000000003          1.1216623079235433E-006
  0.18030000000000002          1.4599090718547814E-006
  0.18140000000000001          1.7786920807338902E-006
  0.18250000000000000          2.0744062112498796E-006
  0.18360000000000004          2.3437582967744675E-006
  0.18470000000000003          2.5838144210865721E-006
  0.18580000000000002          2.7920461889152648E-006
  0.18690000000000001          2.9663658551726257E-006
  0.18800000000000000          3.1051397400005953E-006
  0.18910000000000005          3.2071923214971321E-006
  0.19020000000000004          3.2718139664211776E-006
  0.19130000000000003          3.2987716167554026E-006
  0.19240000000000002          3.2883165204111720E-006
  0.19350000000000001          3.2411694519396406E-006
  0.19460000000000005          3.1584859243594110E-006
  0.19570000000000004          3.0418088954320410E-006
  0.19680000000000003          2.8930312510055955E-006
  0.19790000000000002          2.7143653369421372E-006
  0.19900000000000001          2.5083154469029978E-006
  0.20010000000000000          2.2776389414502773E-006
  0.20120000000000005          2.0252950889698695E-006
  0.20230000000000004          1.7543933381602983E-006
  0.20340000000000003          1.4681504580948967E-006
  0.20450000000000002          1.1698556363626267E-006
  0.20560000000000000          8.6282864231179701E-007
  0.20670000000000005          5.5036133517205599E-007
  0.20780000000000004          2.3565267781577859E-007
  0.20890000000000003         -7.8244589474252280E-008
