 -0.12000000000000000          0.0000000000000000
 -0.11889999999999999          0.0000000000000000
 -0.11780000000000000          0.0000000000000000
 -0.11670000000000000          0.0000000000000000
 -0.11559999999999999          0.0000000000000000
 -0.11449999999999999          0.0000000000000000
 -0.11340000000000000          0.0000000000000000
 -0.11230000000000000          0.0000000000000000
 -0.11119999999999999          0.0000000000000000
 -0.11009999999999999          0.0000000000000000
 -0.10900000000000000          0.0000000000000000
 -0.10790000000000000          0.0000000000000000
 -0.10679999999999999         -1.0338175785049133E-035
 -0.10569999999999999         -3.3022340869959909E-034
 -0.10460000000000000         -3.2322825303949682E-033
 -0.10349999999999999         -2.2445616471730329E-032
 -0.10239999999999999         -9.5481767962278619E-032
 -0.10130000000000000         -1.8008580507563550E-031
 -0.10020000000000000          1.0843331182239280E-031
  -9.9099999999999994E-002     8.6158770627135801E-031
  -9.7999999999999990E-002     1.6751664365037205E-031
  -9.6899999999999986E-002     9.8916495452203347E-031
  -9.5799999999999996E-002     2.8978802825510817E-029
  -9.4699999999999993E-002     7.2468326205481747E-029
  -9.3599999999999989E-002    -1.5302236835591949E-028
  -9.2499999999999999E-002    -1.0246467305225079E-027
  -9.1399999999999995E-002    -9.8406748289076609E-028
  -9.0299999999999991E-002     5.3193345358519701E-027
  -8.9200000000000002E-002     1.7126444504772247E-026
  -8.8099999999999984E-002     1.0907073794694540E-027
  -8.6999999999999994E-002    -9.5977341353441673E-026
  -8.5899999999999990E-002    -1.8852296520584893E-025
  -8.4799999999999986E-002     1.3785345551332346E-025
  -8.3699999999999997E-002     1.1784144225002151E-024
  -8.2599999999999993E-002     1.5241046110435750E-024
  -8.1499999999999989E-002    -2.5281716029819233E-024
  -8.0399999999999999E-002    -1.1219095385936371E-023
  -7.9299999999999995E-002    -9.5859671409552447E-024
  -7.8199999999999992E-002     2.8729086700580726E-023
  -7.7100000000000002E-002     8.9867192094958709E-023
  -7.5999999999999984E-002     4.9531815776914698E-023
  -7.4899999999999994E-002    -2.5304151155077628E-022
  -7.3799999999999991E-002    -6.4106452034471504E-022
  -7.2699999999999987E-002    -2.3808387575066999E-022
  -7.1599999999999997E-002     1.8553917614021916E-021
  -7.0499999999999993E-002     4.2154444758184248E-021
  -6.9399999999999989E-002     1.3661925831046778E-021
  -6.8300000000000000E-002    -1.1608308596509671E-020
  -6.7199999999999996E-002    -2.5825283119895901E-020
  -6.6099999999999992E-002    -1.0330404215201175E-020
  -6.5000000000000002E-002     6.2042811091510552E-020
  -6.3899999999999985E-002     1.4616835893316351E-019
  -6.2799999999999995E-002     8.2758127816223305E-020
  -6.1699999999999991E-002    -2.7835400509294235E-019
  -6.0599999999999994E-002    -7.5100327519633484E-019
  -5.9499999999999990E-002    -5.9163085186483755E-019
  -5.8399999999999994E-002     9.9867976215849376E-019
  -5.7299999999999990E-002     3.4349913639231772E-018
  -5.6199999999999986E-002     3.5987311457925896E-018
  -5.5099999999999996E-002    -2.4518061422038736E-018
  -5.3999999999999992E-002    -1.3696847839082770E-017
  -5.2899999999999989E-002    -1.8558505109231521E-017
  -5.1799999999999985E-002     5.5949964135567461E-019
  -5.0699999999999995E-002     4.6263361318421133E-017
  -4.9599999999999991E-002     8.1407893191802477E-017
  -4.8499999999999988E-002     3.5979732829153686E-017
  -4.7399999999999998E-002    -1.2502370414107004E-016
  -4.6299999999999994E-002    -3.0340823402789485E-016
  -4.5199999999999990E-002    -2.5375645967904824E-016
  -4.4099999999999986E-002     2.2622000089896218E-016
  -4.2999999999999997E-002     9.4947681766437966E-016
  -4.1899999999999993E-002     1.1690620624270581E-015
  -4.0799999999999989E-002     1.8940196022365540E-017
  -3.9699999999999985E-002    -2.4089358674863389E-015
  -3.8599999999999995E-002    -4.1917055933302517E-015
  -3.7499999999999992E-002    -2.3059608015392127E-015
  -3.6399999999999988E-002     4.4528674503089075E-015
  -3.5299999999999984E-002     1.2147334224924759E-014
  -3.4199999999999994E-002     1.1939335120331098E-014
  -3.3099999999999991E-002    -3.1891620556412717E-015
  -3.1999999999999987E-002    -2.8058394976470009E-014
  -3.0899999999999997E-002    -4.1110246039614481E-014
  -2.9799999999999993E-002    -1.6769407517876027E-014
  -2.8699999999999989E-002     4.7246027348648439E-014
  -2.7599999999999986E-002     1.0864922107617012E-013
  -2.6499999999999996E-002     9.5249857805755622E-014
  -2.5399999999999992E-002    -3.4630494815095919E-014
  -2.4299999999999988E-002    -2.2245866173470352E-013
  -2.3199999999999985E-002    -3.0355855632976936E-013
  -2.2099999999999995E-002    -1.1573419089402903E-013
  -2.0999999999999991E-002     3.2174003045115640E-013
  -1.9899999999999987E-002     7.1017323965971713E-013
  -1.8799999999999983E-002     6.1279697679064715E-013
  -1.7699999999999994E-002    -1.6945371158778172E-013
  -1.6599999999999990E-002    -1.2481093632568663E-012
  -1.5499999999999986E-002    -1.7074800774674603E-012
  -1.4399999999999996E-002    -7.4332207056215793E-013
  -1.3299999999999992E-002     1.4641842425999751E-012
  -1.2199999999999989E-002     3.4125317589089876E-012
  -1.1099999999999985E-002     3.0912874256910916E-012
  -9.9999999999999950E-003    -2.9653292625206329E-013
  -8.8999999999999913E-003    -4.9835877612147694E-012
  -7.7999999999999875E-003    -7.1639439172543895E-012
  -6.6999999999999837E-003    -3.7256365527371660E-012
  -5.5999999999999939E-003     4.5044979031516608E-012
  -4.4999999999999901E-003     1.1918641421027054E-011
  -3.3999999999999864E-003     1.1473289332486480E-011
  -2.2999999999999826E-003     6.8306959481040375E-013
  -1.1999999999999927E-003    -1.4405976411779875E-011
  -9.9999999999988987E-005    -2.1751324699725849E-011
   1.0000000000000148E-003    -1.2298093099438745E-011
   2.1000000000000185E-003     1.0755818978525067E-011
   3.2000000000000084E-003     3.0949881546504798E-011
   4.3000000000000121E-003     2.9437161042089599E-011
   5.4000000000000159E-003     1.4435245533628294E-012
   6.5000000000000058E-003    -3.5186745878101888E-011
   7.6000000000000234E-003    -4.9667912144224502E-011
   8.7000000000000133E-003    -2.2700695490041056E-011
   9.8000000000000032E-003     3.2506514840990874E-011
   1.0900000000000021E-002     7.2966986619515950E-011
   1.2000000000000011E-002     5.6770321082977304E-011
   1.3100000000000001E-002    -1.8112036176409774E-011
   1.4200000000000018E-002    -1.0022228186246096E-010
   1.5300000000000008E-002    -1.1573047381530088E-010
   1.6400000000000026E-002    -2.8753388559010773E-011
   1.7500000000000016E-002     1.1510679215342989E-010
   1.8600000000000005E-002     2.0539184242274189E-010
   1.9700000000000023E-002     1.4522148761297871E-010
   2.0800000000000013E-002    -6.0594619599729782E-011
   2.1900000000000003E-002    -2.8147997821470483E-010
   2.3000000000000020E-002    -3.3781252795073158E-010
   2.4100000000000010E-002    -1.3809275944964838E-010
   2.5200000000000000E-002     2.2414482769850252E-010
   2.6300000000000018E-002     5.0316706357023122E-010
   2.7400000000000008E-002     4.6470011172417003E-010
   2.8500000000000025E-002     7.4023696894354174E-011
   2.9600000000000015E-002    -4.3891354439828945E-010
   3.0700000000000005E-002    -7.1266431644900763E-010
   3.1800000000000023E-002    -5.1396986666674138E-010
   3.2900000000000013E-002     6.2793069355304709E-011
   3.4000000000000002E-002     6.2602156791768948E-010
   3.5100000000000020E-002     7.5816719569132829E-010
   3.6200000000000010E-002     3.4423891515089622E-010
   3.7300000000000028E-002    -3.0278651808046675E-010
   3.8400000000000017E-002    -6.5438582330656914E-010
   3.9500000000000007E-002    -3.9168238097353480E-010
   4.0600000000000025E-002     2.8315361166875164E-010
   4.1700000000000015E-002     7.3886652351973225E-010
   4.2800000000000005E-002     4.0961059544208922E-010
   4.3900000000000022E-002    -6.5682459471361199E-010
   4.5000000000000012E-002    -1.6674583935838427E-009
   4.6100000000000002E-002    -1.5843900635914565E-009
   4.7200000000000020E-002     2.2195764323718059E-011
   4.8300000000000010E-002     2.4117667862810777E-009
   4.9400000000000027E-002     3.9449434829919028E-009
   5.0500000000000017E-002     3.1561115942935203E-009
   5.1600000000000007E-002    -6.9072005060011321E-011
   5.2700000000000025E-002    -4.1234584635674310E-009
   5.3800000000000014E-002    -6.5380243441381936E-009
   5.4900000000000004E-002    -5.5851905322867879E-009
   5.6000000000000022E-002    -1.4971698325538796E-009
   5.7100000000000012E-002     3.6380511936329185E-009
   5.8200000000000002E-002     7.2675971907187886E-009
   5.9300000000000019E-002     7.9865785096444597E-009
   6.0400000000000009E-002     6.0975482440994710E-009
   6.1500000000000027E-002     2.7296289673017782E-009
   6.2600000000000017E-002    -1.5424314048217980E-009
   6.3700000000000007E-002    -7.0460641765635046E-009
   6.4800000000000024E-002    -1.3645037988396780E-008
   6.5900000000000014E-002    -1.8776031396328108E-008
   6.7000000000000004E-002    -1.7214112801866577E-008
   6.8100000000000022E-002    -4.1225316493864739E-009
   6.9200000000000012E-002     1.9751464463979573E-008
   7.0300000000000029E-002     4.4621472738981538E-008
   7.1400000000000019E-002     5.4114995151621770E-008
   7.2500000000000009E-002     3.4466307141656216E-008
   7.3600000000000027E-002    -1.4064754694231851E-008
   7.4700000000000016E-002    -7.1617662911194202E-008
   7.5800000000000006E-002    -1.0536871997146591E-007
   7.6900000000000024E-002    -8.7549125282748719E-008
   7.8000000000000014E-002    -1.5316510726393062E-008
   7.9100000000000004E-002     8.1021084952226374E-008
   8.0200000000000021E-002     1.5001681674675638E-007
   8.1300000000000011E-002     1.4762318301109190E-007
   8.2400000000000029E-002     6.6191908842938574E-008
   8.3500000000000019E-002    -5.5600764881091891E-008
   8.4600000000000009E-002    -1.5173304745985661E-007
   8.5700000000000026E-002    -1.6812684577871551E-007
   8.6800000000000016E-002    -9.8150266580887546E-008
   8.7900000000000006E-002     1.0675878847621334E-008
   8.9000000000000024E-002     8.6942684163204831E-008
   9.0100000000000013E-002     8.5369492808240466E-008
   9.1200000000000003E-002     2.2430736379419614E-008
   9.2300000000000021E-002    -3.1205331652017776E-008
   9.3400000000000011E-002    -2.7059849916355461E-009
   9.4500000000000028E-002     1.1853497028369020E-007
   9.5600000000000018E-002     2.5201899234161829E-007
   9.6700000000000008E-002     2.6397191277283127E-007
   9.7800000000000026E-002     5.9891220871577389E-008
   9.8900000000000016E-002    -3.2377579373132903E-007
  0.10000000000000001         -6.9729094320791773E-007
  0.10110000000000002         -8.0004548408396658E-007
  0.10220000000000001         -4.5808386062162754E-007
  0.10330000000000003          2.7174229444426601E-007
  0.10440000000000002          1.0710673450375907E-006
  0.10550000000000001          1.4904962881701067E-006
  0.10660000000000003          1.1948359315283597E-006
  0.10770000000000002          1.9354342839505989E-007
  0.10880000000000001         -1.0902703024839866E-006
  0.10990000000000003         -1.9874796635122038E-006
  0.11100000000000002         -1.9310980405862210E-006
  0.11210000000000001         -8.0816852232601377E-007
  0.11320000000000002          8.9550877646615845E-007
  0.11430000000000001          2.2806570996181108E-006
  0.11540000000000003          2.4951191335276235E-006
  0.11650000000000002          1.2408301017785561E-006
  0.11760000000000001         -9.6659891823946964E-007
  0.11870000000000003         -2.9776026622130303E-006
  0.11980000000000002         -3.5861476135323755E-006
  0.12090000000000001         -2.2193992208485724E-006
  0.12200000000000003          6.5365770751668606E-007
  0.12310000000000001          3.6727035421790788E-006
  0.12420000000000003          5.2732580115844030E-006
  0.12530000000000002          4.5603082980960608E-006
  0.12640000000000001          1.8616841543916962E-006
  0.12750000000000003         -1.4090838931224425E-006
  0.12860000000000002         -3.5654622934089275E-006
  0.12970000000000001         -3.6950202684238320E-006
  0.13080000000000003         -2.2969904875935754E-006
  0.13190000000000002         -1.0488347470527515E-006
  0.13300000000000001         -1.7460027947890921E-006
  0.13410000000000000         -5.0086573537555523E-006
  0.13520000000000004         -9.5909417723305523E-006
  0.13630000000000003         -1.2858103218604811E-005
  0.13740000000000002         -1.2311573300394230E-005
  0.13850000000000001         -7.3296114351251163E-006
  0.13960000000000000         -1.3800460330060105E-008
  0.14070000000000005          5.5587333918083459E-006
  0.14180000000000004          5.4501456361322198E-006
  0.14290000000000003         -1.8014560509982402E-006
  0.14400000000000002         -1.4070958968659397E-005
  0.14510000000000001         -2.6611971406964585E-005
  0.14620000000000000         -3.4730986953945830E-005
  0.14730000000000004         -3.6665576772065833E-005
  0.14840000000000003         -3.4870256058638915E-005
  0.14950000000000002         -3.4752778447000310E-005
  0.15060000000000001         -4.1449377022217959E-005
  0.15170000000000000         -5.6560558732599020E-005
  0.15280000000000005         -7.6979733421467245E-005
  0.15390000000000004         -9.6783915068954229E-005
  0.15500000000000003         -1.1124227603431791E-004
  0.15610000000000002         -1.2049085489707068E-004
  0.15720000000000001         -1.3038436009082943E-004
  0.15830000000000000         -1.4961035049054772E-004
  0.15940000000000004         -1.8451704818289727E-004
  0.16050000000000003         -2.3478997172787786E-004
  0.16160000000000002         -2.9291593818925321E-004
  0.16270000000000001         -3.4826385672204196E-004
  0.16380000000000000         -3.9373122854158282E-004
  0.16490000000000005         -4.3102141353301704E-004
  0.16600000000000004         -4.7102750977501273E-004
  0.16710000000000003         -5.2857038099318743E-004
  0.16820000000000002         -6.1410240596160293E-004
  0.16930000000000001         -7.2722666664049029E-004
  0.17040000000000000         -8.5612857947126031E-004
  0.17150000000000004         -9.8382192663848400E-004
  0.17260000000000003         -1.0978260543197393E-003
  0.17370000000000002         -1.1978680267930031E-003
  0.17480000000000001         -1.2966691283509135E-003
  0.17590000000000000         -1.4131187926977873E-003
  0.17700000000000005         -1.5614387812092900E-003
  0.17810000000000004         -1.7424788093194366E-003
  0.17920000000000003         -1.9423947669565678E-003
  0.18030000000000002         -2.1396086085587740E-003
  0.18140000000000001         -2.3161752615123987E-003
  0.18250000000000000         -2.4667205289006233E-003
  0.18360000000000004         -2.5998950004577637E-003
  0.18470000000000003         -2.7312699239701033E-003
  0.18580000000000002         -2.8717943932861090E-003
  0.18690000000000001         -3.0192048288881779E-003
  0.18800000000000000         -3.1566724646836519E-003
  0.18910000000000005         -3.2604013103991747E-003
  0.19020000000000004         -3.3116398844867945E-003
  0.19130000000000003         -3.3049443736672401E-003
  0.19240000000000002         -3.2480279915034771E-003
  0.19350000000000001         -3.1532398425042629E-003
  0.19460000000000005         -3.0256712343543768E-003
  0.19570000000000004         -2.8553751762956381E-003
  0.19680000000000003         -2.6186343748122454E-003
  0.19790000000000002         -2.2886942606419325E-003
  0.19900000000000001         -1.8485834589228034E-003
  0.20010000000000000         -1.2995231663808227E-003
  0.20120000000000005         -6.5766798797994852E-004
  0.20230000000000004          5.6070955906761810E-005
  0.20340000000000003          8.2998798461630940E-004
  0.20450000000000002          1.6690298216417432E-003
  0.20560000000000000          2.5910057593137026E-003
  0.20670000000000005          3.6155637353658676E-003
  0.20780000000000004          4.7488417476415634E-003
  0.20890000000000003          5.9762685559689999E-003
