 -0.12000000000000000         -3.0056173727643909E-006
 -0.11889999999999999         -7.2107241066987626E-006
 -0.11780000000000000         -7.2634725256648380E-006
 -0.11670000000000000         -4.4526300371217076E-006
 -0.11559999999999999         -2.8334422950138105E-006
 -0.11449999999999999         -4.9506943469168618E-006
 -0.11340000000000000         -9.3075814220355824E-006
 -0.11230000000000000         -1.2197977412142791E-005
 -0.11119999999999999         -1.1900751815119293E-005
 -0.11009999999999999         -1.0752031812444329E-005
 -0.10900000000000000         -1.2869201782450546E-005
 -0.10790000000000000         -1.9908980902982876E-005
 -0.10679999999999999         -2.9340930268517695E-005
 -0.10569999999999999         -3.7093595892656595E-005
 -0.10460000000000000         -4.1842275095405057E-005
 -0.10349999999999999         -4.6478628064505756E-005
 -0.10239999999999999         -5.5249482102226466E-005
 -0.10130000000000000         -6.9578461989294738E-005
 -0.10020000000000000         -8.6942462075967342E-005
  -9.9099999999999994E-002    -1.0395167919341475E-004
  -9.7999999999999990E-002    -1.2037171836709604E-004
  -9.6899999999999986E-002    -1.3985464465804398E-004
  -9.5799999999999996E-002    -1.6661681002005935E-004
  -9.4699999999999993E-002    -2.0155675883870572E-004
  -9.3599999999999989E-002    -2.4188416136894375E-004
  -9.2499999999999999E-002    -2.8464337810873985E-004
  -9.1399999999999995E-002    -3.3044346491806209E-004
  -9.0299999999999991E-002    -3.8351173861883581E-004
  -8.9200000000000002E-002    -4.4805437210015953E-004
  -8.8099999999999984E-002    -5.2475515985861421E-004
  -8.6999999999999994E-002    -6.1106000794097781E-004
  -8.5899999999999990E-002    -7.0490658981725574E-004
  -8.4799999999999986E-002    -8.0795952817425132E-004
  -8.3699999999999997E-002    -9.2496763681992888E-004
  -8.2599999999999993E-002    -1.0599389206618071E-003
  -8.1499999999999989E-002    -1.2131382245570421E-003
  -8.0399999999999999E-002    -1.3819942250847816E-003
  -7.9299999999999995E-002    -1.5648846747353673E-003
  -7.8199999999999992E-002    -1.7637899145483971E-003
  -7.7100000000000002E-002    -1.9830346573144197E-003
  -7.5999999999999984E-002    -2.2254802752286196E-003
  -7.4899999999999994E-002    -2.4901628494262695E-003
  -7.3799999999999991E-002    -2.7737943455576897E-003
  -7.2699999999999987E-002    -3.0744536779820919E-003
  -7.1599999999999997E-002    -3.3935043029487133E-003
  -7.0499999999999993E-002    -3.7337008398026228E-003
  -6.9399999999999989E-002    -4.0954588912427425E-003
  -6.8300000000000000E-002    -4.4751656241714954E-003
  -6.7199999999999996E-002    -4.8672212287783623E-003
  -6.6099999999999992E-002    -5.2675646729767323E-003
  -6.5000000000000002E-002    -5.6749205105006695E-003
  -6.3899999999999985E-002    -6.0884407721459866E-003
  -6.2799999999999995E-002    -6.5042390488088131E-003
  -6.1699999999999991E-002    -6.9144587032496929E-003
  -6.0599999999999994E-002    -7.3098246939480305E-003
  -5.9499999999999990E-002    -7.6829246245324612E-003
  -5.8399999999999994E-002    -8.0287754535675049E-003
  -5.7299999999999990E-002    -8.3421599119901657E-003
  -5.6199999999999986E-002    -8.6145950481295586E-003
  -5.5099999999999996E-002    -8.8341692462563515E-003
  -5.3999999999999992E-002    -8.9884996414184570E-003
  -5.2899999999999989E-002    -9.0677691623568535E-003
  -5.1799999999999985E-002    -9.0647432953119278E-003
  -5.0699999999999995E-002    -8.9719584211707115E-003
  -4.9599999999999991E-002    -8.7792156264185905E-003
  -4.8499999999999988E-002    -8.4742130711674690E-003
  -4.7399999999999998E-002    -8.0457674339413643E-003
  -4.6299999999999994E-002    -7.4865701608359814E-003
  -4.5199999999999990E-002    -6.7927776835858822E-003
  -4.4099999999999986E-002    -5.9611126780509949E-003
  -4.2999999999999997E-002    -4.9868468195199966E-003
  -4.1899999999999993E-002    -3.8649812340736389E-003
  -4.0799999999999989E-002    -2.5935748126357794E-003
  -3.9699999999999985E-002    -1.1758786858990788E-003
  -3.8599999999999995E-002     3.8070263690315187E-004
  -3.7499999999999992E-002     2.0675116684287786E-003
  -3.6399999999999988E-002     3.8762048352509737E-003
  -3.5299999999999984E-002     5.7972995564341545E-003
  -3.4199999999999994E-002     7.8171947970986366E-003
  -3.3099999999999991E-002     9.9167665466666222E-003
  -3.1999999999999987E-002     1.2073034420609474E-002
  -3.0899999999999997E-002     1.4262193813920021E-002
  -2.9799999999999993E-002     1.6461003571748734E-002
  -2.8699999999999989E-002     1.8645415082573891E-002
  -2.7599999999999986E-002     2.0788127556443214E-002
  -2.6499999999999996E-002     2.2858029231429100E-002
  -2.5399999999999992E-002     2.4822507053613663E-002
  -2.4299999999999988E-002     2.6650555431842804E-002
  -2.3199999999999985E-002     2.8313940390944481E-002
  -2.2099999999999995E-002     2.9785765334963799E-002
  -2.0999999999999991E-002     3.1038537621498108E-002
  -1.9899999999999987E-002     3.2044339925050735E-002
  -1.8799999999999983E-002     3.2777413725852966E-002
  -1.7699999999999994E-002     3.3216964453458786E-002
  -1.6599999999999990E-002     3.3347804099321365E-002
  -1.5499999999999986E-002     3.3158641308546066E-002
  -1.4399999999999996E-002     3.2640390098094940E-002
  -1.3299999999999992E-002     3.1786516308784485E-002
  -1.2199999999999989E-002     3.0595446005463600E-002
  -1.1099999999999985E-002     2.9072664678096771E-002
  -9.9999999999999950E-003     2.7230342850089073E-002
  -8.8999999999999913E-003     2.5085192173719406E-002
  -7.7999999999999875E-003     2.2656628862023354E-002
  -6.6999999999999837E-003     1.9967019557952881E-002
  -5.5999999999999939E-003     1.7043517902493477E-002
  -4.4999999999999901E-003     1.3919122517108917E-002
  -3.3999999999999864E-003     1.0631417855620384E-002
  -2.2999999999999826E-003     7.2200042195618153E-003
  -1.1999999999999927E-003     3.7245468702167273E-003
  -9.9999999999988987E-005     1.8492667004466057E-004
   1.0000000000000148E-003    -3.3574395347386599E-003
   2.1000000000000185E-003    -6.8592852912843227E-003
   3.2000000000000084E-003    -1.0276952758431435E-002
   4.3000000000000121E-003    -1.3569154776632786E-002
   5.4000000000000159E-003    -1.6698565334081650E-002
   6.5000000000000058E-003    -1.9631348550319672E-002
   7.6000000000000234E-003    -2.2336017340421677E-002
   8.7000000000000133E-003    -2.4783048778772354E-002
   9.8000000000000032E-003    -2.6946408674120903E-002
   1.0900000000000021E-002    -2.8805647045373917E-002
   1.2000000000000011E-002    -3.0346712097525597E-002
   1.3100000000000001E-002    -3.1560972332954407E-002
   1.4200000000000018E-002    -3.2443586736917496E-002
   1.5300000000000008E-002    -3.2993063330650330E-002
   1.6400000000000026E-002    -3.3212333917617798E-002
   1.7500000000000016E-002    -3.3109977841377258E-002
   1.8600000000000005E-002    -3.2700151205062866E-002
   1.9700000000000023E-002    -3.2001033425331116E-002
   2.0800000000000013E-002    -3.1033022329211235E-002
   2.1900000000000003E-002    -2.9818173497915268E-002
   2.3000000000000020E-002    -2.8380893170833588E-002
   2.4100000000000010E-002    -2.6748612523078918E-002
   2.5200000000000000E-002    -2.4951225146651268E-002
   2.6300000000000018E-002    -2.3019386455416679E-002
   2.7400000000000008E-002    -2.0982943475246429E-002
   2.8500000000000025E-002    -1.8870562314987183E-002
   2.9600000000000015E-002    -1.6710398718714714E-002
   3.0700000000000005E-002    -1.4530523680150509E-002
   3.1800000000000023E-002    -1.2358312495052814E-002
   3.2900000000000013E-002    -1.0219025425612926E-002
   3.4000000000000002E-002    -8.1348391249775887E-003
   3.5100000000000020E-002    -6.1249542050063610E-003
   3.6200000000000010E-002    -4.2063915170729160E-003
   3.7300000000000028E-002    -2.3945327848196030E-003
   3.8400000000000017E-002    -7.0265162503346801E-004
   3.9500000000000007E-002     8.5897132521495223E-004
   4.0600000000000025E-002     2.2834672126919031E-003
   4.1700000000000015E-002     3.5668024793267250E-003
   4.2800000000000005E-002     4.7068586573004723E-003
   4.3900000000000022E-002     5.7029495947062969E-003
   4.5000000000000012E-002     6.5560829825699329E-003
   4.6100000000000002E-002     7.2695184499025345E-003
   4.7200000000000020E-002     7.8487172722816467E-003
   4.8300000000000010E-002     8.3006620407104492E-003
   4.9400000000000027E-002     8.6329914629459381E-003
   5.0500000000000017E-002     8.8536413386464119E-003
   5.1600000000000007E-002     8.9711556211113930E-003
   5.2700000000000025E-002     8.9949779212474823E-003
   5.3800000000000014E-002     8.9352652430534363E-003
   5.4900000000000004E-002     8.8022360578179359E-003
   5.6000000000000022E-002     8.6055658757686615E-003
   5.7100000000000012E-002     8.3542820066213608E-003
   5.8200000000000002E-002     8.0571221187710762E-003
   5.9300000000000019E-002     7.7227870933711529E-003
   6.0400000000000009E-002     7.3597417213022709E-003
   6.1500000000000027E-002     6.9757881574332714E-003
   6.2600000000000017E-002     6.5777353011071682E-003
   6.3700000000000007E-002     6.1715049669146538E-003
   6.4800000000000024E-002     5.7624783366918564E-003
   6.5900000000000014E-002     5.3556617349386215E-003
   6.7000000000000004E-002     4.9555208534002304E-003
   6.8100000000000022E-002     4.5657092705368996E-003
   6.9200000000000012E-002     4.1890190914273262E-003
   7.0300000000000029E-002     3.8275986444205046E-003
   7.1400000000000019E-002     3.4832153469324112E-003
   7.2500000000000009E-002     3.1573227606713772E-003
   7.3600000000000027E-002     2.8509371913969517E-003
   7.4700000000000016E-002     2.5645487476140261E-003
   7.5800000000000006E-002     2.2982300724834204E-003
   7.6900000000000024E-002     2.0518435630947351E-003
   7.8000000000000014E-002     1.8251346191391349E-003
   7.9100000000000004E-002     1.6176610952243209E-003
   8.0200000000000021E-002     1.4286978403106332E-003
   8.1300000000000011E-002     1.2572873383760452E-003
   8.2400000000000029E-002     1.1024301638826728E-003
   8.3500000000000019E-002     9.6320750890299678E-004
   8.4600000000000009E-002     8.3870883099734783E-004
   8.5700000000000026E-002     7.2786939563229680E-004
   8.6800000000000016E-002     6.2944571254774928E-004
   8.7900000000000006E-002     5.4221332538872957E-004
   8.9000000000000024E-002     4.6519437455572188E-004
   9.0100000000000013E-002     3.9766117697581649E-004
   9.1200000000000003E-002     3.3889382029883564E-004
   9.2300000000000021E-002     2.8795897378586233E-004
   9.3400000000000011E-002     2.4377556110266596E-004
   9.4500000000000028E-002     2.0542103447951376E-004
   9.5600000000000018E-002     1.7234627739526331E-004
   9.6700000000000008E-002     1.4423899119719863E-004
   9.7800000000000026E-002     1.2065842747688293E-004
   9.8900000000000016E-002     1.0083695087814704E-004
  0.10000000000000001          8.3889382949564606E-005
  0.10110000000000002          6.9230605731718242E-005
  0.10220000000000001          5.6751083320705220E-005
  0.10330000000000003          4.6536511945305392E-005
  0.10440000000000002          3.8409823901019990E-005
  0.10550000000000001          3.1786901672603562E-005
  0.10660000000000003          2.6018327844212763E-005
  0.10770000000000002          2.0860799850197509E-005
  0.10880000000000001          1.6558313291170634E-005
  0.10990000000000003          1.3415571629593614E-005
  0.11100000000000002          1.1300420737825334E-005
  0.11210000000000001          9.6154262791969813E-006
  0.11320000000000002          7.7943041105754673E-006
  0.11430000000000001          5.8089558478968684E-006
  0.11540000000000003          4.1369926293555181E-006
  0.11650000000000002          3.2010696031647967E-006
  0.11760000000000001          2.8640124583034776E-006
  0.11870000000000003          2.5255872060370166E-006
  0.11980000000000002          1.7350766938761808E-006
  0.12090000000000001          6.7189250785304466E-007
  0.12200000000000003         -3.4258999193070849E-008
  0.12310000000000001          2.3408627924936809E-008
  0.12420000000000003          5.6864843145376653E-007
  0.12530000000000002          8.9677797632248257E-007
  0.12640000000000001          5.9365788729337510E-007
  0.12750000000000003         -3.7034602939911565E-008
  0.12860000000000002         -3.0228875402826816E-007
  0.12970000000000001          1.3025830014612438E-007
  0.13080000000000003          8.5558326645696070E-007
  0.13190000000000002          1.1417548648751108E-006
  0.13300000000000001          7.0690788334104582E-007
  0.13410000000000000          3.7539411579246007E-008
  0.13520000000000004         -1.0707392306130714E-007
  0.13630000000000003          5.0242977067682659E-007
  0.13740000000000002          1.3031685739406385E-006
  0.13850000000000001          1.5092982721398585E-006
  0.13960000000000000          9.2577357690970530E-007
  0.14070000000000005          1.4922393631877640E-007
  0.14180000000000004         -6.4307350555736775E-008
  0.14290000000000003          3.9675720131526759E-007
  0.14400000000000002          8.7735423903723131E-007
  0.14510000000000001          6.5533504312043078E-007
  0.14620000000000000         -2.7055693863076158E-007
  0.14730000000000004         -1.1442275535955559E-006
  0.14840000000000003         -1.2221108818266657E-006
  0.14950000000000002         -5.4845276054038550E-007
  0.15060000000000001          8.3733333156033041E-008
  0.15170000000000000         -4.3718241471424335E-008
  0.15280000000000005         -8.2442187476772233E-007
  0.15390000000000004         -1.4408226434170501E-006
  0.15500000000000003         -1.2264756605873117E-006
  0.15610000000000002         -3.7258882912283298E-007
  0.15720000000000001          2.6746869252747274E-007
  0.15830000000000000          7.5056931336803245E-008
  0.15940000000000004         -6.7738585585175315E-007
  0.16050000000000003         -1.1046774943679338E-006
  0.16160000000000002         -6.3509088477076148E-007
  0.16270000000000001          3.8592324358432961E-007
  0.16380000000000000          1.0494409252714831E-006
  0.16490000000000005          8.2468449136285926E-007
  0.16600000000000004          1.0123662264049926E-007
  0.16710000000000003         -2.3582852293202450E-007
  0.16820000000000002          2.5107843271143793E-007
  0.16930000000000001          1.0843175459740451E-006
  0.17040000000000000          1.3712901818507817E-006
  0.17150000000000004          7.4688784934551222E-007
  0.17260000000000003         -2.3285278416551591E-007
  0.17370000000000002         -6.6009948795908713E-007
  0.17480000000000001         -2.1082270507122303E-007
  0.17590000000000000          5.3250545306582353E-007
  0.17700000000000005          7.0441643629237660E-007
  0.17810000000000004          6.6935982090399193E-008
  0.17920000000000003         -7.4838669661403401E-007
  0.18030000000000002         -9.1490289833018323E-007
  0.18140000000000001         -2.8632882731471909E-007
  0.18250000000000000          4.4893164385939599E-007
  0.18360000000000004          4.9412909675083938E-007
  0.18470000000000003         -2.1531491256610025E-007
  0.18580000000000002         -9.4014148999121971E-007
  0.18690000000000001         -9.0699012389450218E-007
  0.18800000000000000         -1.1032399527266534E-007
  0.18910000000000005          6.9091078103156178E-007
  0.19020000000000004          7.7058916758687701E-007
  0.19130000000000003          1.8543326518738468E-007
  0.19240000000000002         -3.0563086284018937E-007
  0.19350000000000001         -5.8838665495386522E-008
  0.19460000000000005          7.6508047186507611E-007
  0.19570000000000004          1.3625342489831382E-006
  0.19680000000000003          1.1250987199673546E-006
  0.19790000000000002          2.7269842917121423E-007
  0.19900000000000001         -3.7768936067550385E-007
  0.20010000000000000         -2.5858773256004497E-007
  0.20120000000000005          3.7418422493828984E-007
  0.20230000000000004          7.3291772650918574E-007
  0.20340000000000003          3.3690511713757587E-007
  0.20450000000000002         -4.8549810571785201E-007
  0.20560000000000000         -9.5158583235388505E-007
  0.20670000000000005         -6.5302555185553501E-007
  0.20780000000000004          1.5291194088717930E-008
  0.20890000000000003          2.7191379103896907E-007
