 -0.12000000000000000          0.0000000000000000
 -0.11889999999999999          0.0000000000000000
 -0.11780000000000000          0.0000000000000000
 -0.11670000000000000          0.0000000000000000
 -0.11559999999999999          0.0000000000000000
 -0.11449999999999999          0.0000000000000000
 -0.11340000000000000          0.0000000000000000
 -0.11230000000000000          0.0000000000000000
 -0.11119999999999999         -2.2869820280943688E-026
 -0.11009999999999999         -4.6254819734588766E-025
 -0.10900000000000000         -3.7974280918837693E-024
 -0.10790000000000000         -1.6491175088968702E-023
 -0.10679999999999999         -4.0895458094420067E-023
 -0.10569999999999999         -5.1217971251944781E-023
 -0.10460000000000000          1.0380480234562165E-023
 -0.10349999999999999          1.8382055746121742E-022
 -0.10239999999999999          4.7782423318455926E-022
 -0.10130000000000000          8.2418894907784199E-022
 -0.10020000000000000          2.0062521325214647E-022
  -9.9099999999999994E-002    -4.8018581767752682E-021
  -9.7999999999999990E-002    -1.5600597272181692E-020
  -9.6899999999999986E-002    -1.3512180290780538E-020
  -9.5799999999999996E-002     5.0316792432012598E-020
  -9.4699999999999993E-002     1.8351350856309840E-019
  -9.3599999999999989E-002     1.7682455131377955E-019
  -9.2499999999999999E-002    -4.1057701655195387E-019
  -9.1399999999999995E-002    -1.5838345653088654E-018
  -9.0299999999999991E-002    -1.6820591611222403E-018
  -8.9200000000000002E-002     2.4088001949766292E-018
  -8.8099999999999984E-002     1.0718850395742836E-017
  -8.6999999999999994E-002     1.3030703575362178E-017
  -8.5899999999999990E-002    -9.2950930633461511E-018
  -8.4799999999999986E-002    -5.8605256708459379E-017
  -8.3699999999999997E-002    -8.4010957787612951E-017
  -8.2599999999999993E-002     1.1819119724446570E-017
  -8.1499999999999989E-002     2.5996851990487248E-016
  -8.0399999999999999E-002     4.5264434849644946E-016
  -7.9299999999999995E-002     1.4389659082263091E-016
  -7.8199999999999992E-002    -9.1332280449760595E-016
  -7.7100000000000002E-002    -2.0361333739936718E-015
  -7.5999999999999984E-002    -1.4411900314573417E-015
  -7.4899999999999994E-002     2.3201098516483854E-015
  -7.3799999999999991E-002     7.5835910088532105E-015
  -7.2699999999999987E-002     8.2019165900193772E-015
  -7.1599999999999997E-002    -2.5859466952211745E-015
  -7.0499999999999993E-002    -2.2808621988725311E-014
  -6.9399999999999989E-002    -3.4617680900669856E-014
  -6.8300000000000000E-002    -1.2064759523995779E-014
  -6.7199999999999996E-002     5.1544716167832225E-014
  -6.6099999999999992E-002     1.1469141879705963E-013
  -6.5000000000000002E-002     9.4658303547920375E-014
  -6.3899999999999985E-002    -6.4723481565595598E-014
  -6.2799999999999995E-002    -2.9686840550928462E-013
  -6.1699999999999991E-002    -3.8480376112100256E-013
  -6.0599999999999994E-002    -9.5167722714926267E-014
  -5.9499999999999990E-002     5.5610393677116288E-013
  -5.8399999999999994E-002     1.1193624152583403E-012
  -5.7299999999999990E-002     8.8777954172086782E-013
  -5.6199999999999986E-002    -4.9898599792028153E-013
  -5.5099999999999996E-002    -2.3994296133311721E-012
  -5.3999999999999992E-002    -3.1567643464514017E-012
  -5.2899999999999989E-002    -1.1756497468248805E-012
  -5.1799999999999985E-002     3.3575609740404966E-012
  -5.0699999999999995E-002     7.5245192021622387E-012
  -4.9599999999999991E-002     6.9511770471597512E-012
  -4.8499999999999988E-002    -6.8763240544320037E-013
  -4.7399999999999998E-002    -1.2200875726398053E-011
  -4.6299999999999994E-002    -1.8906768511905980E-011
  -4.5199999999999990E-002    -1.1963210803933588E-011
  -4.4099999999999986E-002     9.4301667169505166E-012
  -4.2999999999999997E-002     3.3319506875795213E-011
  -4.1899999999999993E-002     3.9801082568624579E-011
  -4.0799999999999989E-002     1.5206447212534613E-011
  -3.9699999999999985E-002    -3.3138561339463024E-011
  -3.8599999999999995E-002    -7.4535086436178233E-011
  -3.7499999999999992E-002    -7.1904600329464330E-011
  -3.6399999999999988E-002    -1.0672619905893743E-011
  -3.5299999999999984E-002     8.1022077935699599E-011
  -3.4199999999999994E-002     1.4095311029471702E-010
  -3.3099999999999991E-002     1.1240661873523905E-010
  -3.1999999999999987E-002    -8.6588826386790885E-012
  -3.0899999999999997E-002    -1.5561806010477852E-010
  -2.9799999999999993E-002    -2.2514257125294534E-010
  -2.8699999999999989E-002    -1.4897393041390927E-010
  -2.7599999999999986E-002     4.5445276014577374E-011
  -2.6499999999999996E-002     2.3710658436648657E-010
  -2.5399999999999992E-002     2.8820695829878673E-010
  -2.4299999999999988E-002     1.4847442719734261E-010
  -2.3199999999999985E-002    -9.2936484896721794E-011
  -2.2099999999999995E-002    -2.6088528559675694E-010
  -2.0999999999999991E-002    -2.2800228371977482E-010
  -1.9899999999999987E-002    -2.9751694163859810E-011
  -1.8799999999999983E-002     1.4378001567116883E-010
  -1.7699999999999994E-002     9.9820263166350287E-011
  -1.6599999999999990E-002    -1.6409969216812925E-010
  -1.5499999999999986E-002    -3.9377265337314782E-010
  -1.4399999999999996E-002    -2.4099258699727955E-010
  -1.3299999999999992E-002     4.1715630949568094E-010
  -1.2199999999999989E-002     1.2396246251711318E-009
  -1.1099999999999985E-002     1.5113499340912995E-009
  -9.9999999999999950E-003     6.1193278222404501E-010
  -8.8999999999999913E-003    -1.3909189355842955E-009
  -7.7999999999999875E-003    -3.4703631079935349E-009
  -6.6999999999999837E-003    -4.0341117113484870E-009
  -5.5999999999999939E-003    -1.9187997857272876E-009
  -4.4999999999999901E-003     2.5595214836471314E-009
  -3.3999999999999864E-003     7.2579635634895112E-009
  -2.2999999999999826E-003     9.0435756661122468E-009
  -1.1999999999999927E-003     5.5991931091625702E-009
  -9.9999999999988987E-005    -2.7461097840131288E-009
   1.0000000000000148E-003    -1.2378754910002954E-008
   2.1000000000000185E-003    -1.7702902255223307E-008
   3.2000000000000084E-003    -1.4068348264117958E-008
   4.3000000000000121E-003    -9.0621421477976583E-010
   5.4000000000000159E-003     1.6806746216957436E-008
   6.5000000000000058E-003     3.0045494980868170E-008
   7.6000000000000234E-003     2.9998535211461785E-008
   8.7000000000000133E-003     1.3220259553747837E-008
   9.8000000000000032E-003    -1.5122896712682632E-008
   1.0900000000000021E-002    -4.2200916539059108E-008
   1.2000000000000011E-002    -5.3024436397208774E-008
   1.3100000000000001E-002    -3.8336647634196197E-008
   1.4200000000000018E-002    -9.0767160454419127E-010
   1.5300000000000008E-002     4.3672603311506464E-008
   1.6400000000000026E-002     7.3266072320166131E-008
   1.7500000000000016E-002     7.0332625057289988E-008
   1.8600000000000005E-002     3.2463290722262172E-008
   1.9700000000000023E-002    -2.3973907303798114E-008
   2.0800000000000013E-002    -7.0553170417042566E-008
   2.1900000000000003E-002    -8.1804202523017011E-008
   2.3000000000000020E-002    -5.0900737846859556E-008
   2.4100000000000010E-002     3.6514375967300339E-009
   2.5200000000000000E-002     4.6380780105437225E-008
   2.6300000000000018E-002     4.5932278425198092E-008
   2.7400000000000008E-002    -2.3361950152178679E-009
   2.8500000000000025E-002    -6.7034058304216160E-008
   2.9600000000000015E-002    -9.4084555257722968E-008
   3.0700000000000005E-002    -3.9152244113438428E-008
   3.1800000000000023E-002     9.8065598308494373E-008
   3.2900000000000013E-002     2.6013563569904363E-007
   3.4000000000000002E-002     3.5260612207821396E-007
   3.5100000000000020E-002     2.9326827188924653E-007
   3.6200000000000010E-002     6.4222788864753966E-008
   3.7300000000000028E-002    -2.6568602606857894E-007
   3.8400000000000017E-002    -5.6703214568187832E-007
   3.9500000000000007E-002    -7.1524891609442420E-007
   4.0600000000000025E-002    -6.5927582681979402E-007
   4.1700000000000015E-002    -4.5018006744612649E-007
   4.2800000000000005E-002    -2.0673145684213523E-007
   4.3900000000000022E-002    -3.3064910809343928E-008
   4.5000000000000012E-002     6.3115024317994539E-008
   4.6100000000000002E-002     1.9750005719743058E-007
   4.7200000000000020E-002     5.5594836112504709E-007
   4.8300000000000010E-002     1.2844773209508276E-006
   4.9400000000000027E-002     2.3848403998272261E-006
   5.0500000000000017E-002     3.6808783079322893E-006
   5.1600000000000007E-002     4.8824690566107165E-006
   5.2700000000000025E-002     5.7160809774359223E-006
   5.3800000000000014E-002     6.0498196035041474E-006
   5.4900000000000004E-002     5.9443700592964888E-006
   5.6000000000000022E-002     5.6090016187226865E-006
   5.7100000000000012E-002     5.3034814300190192E-006
   5.8200000000000002E-002     5.2602981668314897E-006
   5.9300000000000019E-002     5.6815269999788143E-006
   6.0400000000000009E-002     6.8021099650650285E-006
   6.1500000000000027E-002     8.9490240497980267E-006
   6.2600000000000017E-002     1.2512454304669518E-005
   6.3700000000000007E-002     1.7798582121031359E-005
   6.4800000000000024E-002     2.4826531443977728E-005
   6.5900000000000014E-002     3.3201871701749042E-005
   6.7000000000000004E-002     4.2190538806607947E-005
   6.8100000000000022E-002     5.1018800149904564E-005
   6.9200000000000012E-002     5.9287282056175172E-005
   7.0300000000000029E-002     6.7292785388417542E-005
   7.1400000000000019E-002     7.6067997724749148E-005
   7.2500000000000009E-002     8.7083426478784531E-005
   7.3600000000000027E-002     1.0173562623094767E-004
   7.4700000000000016E-002     1.2087240611435845E-004
   7.5800000000000006E-002     1.4459950034506619E-004
   7.6900000000000024E-002     1.7246646166313440E-004
   7.8000000000000014E-002     2.0392541773617268E-004
   7.9100000000000004E-002     2.3880488879512995E-004
   8.0200000000000021E-002     2.7753631002269685E-004
   8.1300000000000011E-002     3.2101100077852607E-004
   8.2400000000000029E-002     3.7016038550063968E-004
   8.3500000000000019E-002     4.2551636579446495E-004
   8.4600000000000009E-002     4.8701948253437877E-004
   8.5700000000000026E-002     5.5420206626877189E-004
   8.6800000000000016E-002     6.2665506266057491E-004
   8.7900000000000006E-002     7.0450914790853858E-004
   8.9000000000000024E-002     7.8864052193239331E-004
   9.0100000000000013E-002     8.8043924188241363E-004
   9.1200000000000003E-002     9.8122702911496162E-004
   9.2300000000000021E-002     1.0915884049609303E-003
   9.3400000000000011E-002     1.2109357630833983E-003
   9.4500000000000028E-002     1.3375056441873312E-003
   9.5600000000000018E-002     1.4687723014503717E-003
   9.6700000000000008E-002     1.6020649345591664E-003
   9.7800000000000026E-002     1.7350936541333795E-003
   9.8900000000000016E-002     1.8661555368453264E-003
  0.10000000000000001          1.9940042402595282E-003
  0.10110000000000002          2.1174696739763021E-003
  0.10220000000000001          2.2350233048200607E-003
  0.10330000000000003          2.3444711696356535E-003
  0.10440000000000002          2.4427853059023619E-003
  0.10550000000000001          2.5260648690164089E-003
  0.10660000000000003          2.5895575527101755E-003
  0.10770000000000002          2.6277489960193634E-003
  0.10880000000000001          2.6345818769186735E-003
  0.10990000000000003          2.6038540527224541E-003
  0.11100000000000002          2.5297575630247593E-003
  0.11210000000000001          2.4074970278888941E-003
  0.11320000000000002          2.2335262037813663E-003
  0.11430000000000001          2.0054464694112539E-003
  0.11540000000000003          1.7213253304362297E-003
  0.11650000000000002          1.3789534568786621E-003
  0.11760000000000001          9.7521592397242785E-004
  0.11870000000000003          5.0617248052731156E-004
  0.11980000000000002         -3.2095183996716514E-005
  0.12090000000000001         -6.4223428489640355E-004
  0.12200000000000003         -1.3243308058008552E-003
  0.12310000000000001         -2.0752185955643654E-003
  0.12420000000000003         -2.8887011576443911E-003
  0.12530000000000002         -3.7564155645668507E-003
  0.12640000000000001         -4.6688602305948734E-003
  0.12750000000000003         -5.6161168031394482E-003
  0.12860000000000002         -6.5878881141543388E-003
  0.12970000000000001         -7.5729931704699993E-003
  0.13080000000000003         -8.5585499182343483E-003
  0.13190000000000002         -9.5295486971735954E-003
  0.13300000000000001         -1.0468782857060432E-002
  0.13410000000000000         -1.1357557959854603E-002
  0.13520000000000004         -1.2176274321973324E-002
  0.13630000000000003         -1.2905237264931202E-002
  0.13740000000000002         -1.3524916023015976E-002
  0.13850000000000001         -1.4016169123351574E-002
  0.13960000000000000         -1.4360276050865650E-002
  0.14070000000000005         -1.4539371244609356E-002
  0.14180000000000004         -1.4536993578076363E-002
  0.14290000000000003         -1.4338938519358635E-002
  0.14400000000000002         -1.3933902606368065E-002
  0.14510000000000001         -1.3313968665897846E-002
  0.14620000000000000         -1.2474924325942993E-002
  0.14730000000000004         -1.1416164226830006E-002
  0.14840000000000003         -1.0140890255570412E-002
  0.14950000000000002         -8.6561087518930435E-003
  0.15060000000000001         -6.9728838279843330E-003
  0.15170000000000000         -5.1063639111816883E-003
  0.15280000000000005         -3.0758744105696678E-003
  0.15390000000000004         -9.0477708727121353E-004
  0.15500000000000003          1.3798193540424109E-003
  0.15610000000000002          3.7472739350050688E-003
  0.15720000000000001          6.1639747582376003E-003
  0.15830000000000000          8.5937455296516418E-003
  0.15940000000000004          1.0998725891113281E-002
  0.16050000000000003          1.3340166769921780E-002
  0.16160000000000002          1.5579378232359886E-002
  0.16270000000000001          1.7678383737802505E-002
  0.16380000000000000          1.9600743427872658E-002
  0.16490000000000005          2.1311819553375244E-002
  0.16600000000000004          2.2779703140258789E-002
  0.16710000000000003          2.3975787684321404E-002
  0.16820000000000002          2.4875776842236519E-002
  0.16930000000000001          2.5460289791226387E-002
  0.17040000000000000          2.5715719908475876E-002
  0.17150000000000004          2.5634624063968658E-002
  0.17260000000000003          2.5215903297066689E-002
  0.17370000000000002          2.4464601650834084E-002
  0.17480000000000001          2.3391602560877800E-002
  0.17590000000000000          2.2013068199157715E-002
  0.17700000000000005          2.0350003615021706E-002
  0.17810000000000004          1.8428096547722816E-002
  0.17920000000000003          1.6277432441711426E-002
  0.18030000000000002          1.3932209461927414E-002
  0.18140000000000001          1.1430154554545879E-002
  0.18250000000000000          8.8119450956583023E-003
  0.18360000000000004          6.1203273944556713E-003
  0.18470000000000003          3.3990105148404837E-003
  0.18580000000000002          6.9126021116971970E-004
  0.18690000000000001         -1.9611890893429518E-003
  0.18800000000000000         -4.5191380195319653E-003
  0.18910000000000005         -6.9466866552829742E-003
  0.19020000000000004         -9.2115178704261780E-003
  0.19130000000000003         -1.1285020969808102E-002
  0.19240000000000002         -1.3142392039299011E-002
  0.19350000000000001         -1.4762746170163155E-002
  0.19460000000000005         -1.6129586845636368E-002
  0.19570000000000004         -1.7231177538633347E-002
  0.19680000000000003         -1.8061045557260513E-002
  0.19790000000000002         -1.8617946654558182E-002
  0.19900000000000001         -1.8905939534306526E-002
  0.20010000000000000         -1.8933894112706184E-002
  0.20120000000000005         -1.8715111538767815E-002
  0.20230000000000004         -1.8266614526510239E-002
  0.20340000000000003         -1.7608692869544029E-002
  0.20450000000000002         -1.6764163970947266E-002
  0.20560000000000000         -1.5757828950881958E-002
  0.20670000000000005         -1.4615572988986969E-002
  0.20780000000000004         -1.3363870792090893E-002
  0.20890000000000003         -1.2029066681861877E-002
