 -0.12000000000000000          0.0000000000000000
 -0.11889999999999999          0.0000000000000000
 -0.11780000000000000          0.0000000000000000
 -0.11670000000000000          0.0000000000000000
 -0.11559999999999999          0.0000000000000000
 -0.11449999999999999          0.0000000000000000
 -0.11340000000000000          0.0000000000000000
 -0.11230000000000000          0.0000000000000000
 -0.11119999999999999          0.0000000000000000
 -0.11009999999999999          7.8879351204858481E-042
 -0.10900000000000000          1.0491165130593978E-028
 -0.10790000000000000          6.1590979620861305E-028
 -0.10679999999999999          2.3239558674351890E-028
 -0.10569999999999999         -6.5918449835414232E-027
 -0.10460000000000000         -1.4893082215199065E-026
 -0.10349999999999999          1.5207740649563621E-026
 -0.10239999999999999          2.5751865049815596E-026
 -0.10130000000000000         -4.8144733248289050E-025
 -0.10020000000000000         -1.7204851239029613E-024
  -9.9099999999999994E-002     1.4560115428845397E-025
  -9.7999999999999990E-002     1.4057054835766243E-023
  -9.6899999999999986E-002     3.1828628482264731E-023
  -9.5799999999999996E-002    -1.5816389781553192E-023
  -9.4699999999999993E-002    -2.1180024207903217E-022
  -9.3599999999999989E-002    -3.3831712296951563E-022
  -9.2499999999999999E-002     4.4770842683153233E-022
  -9.1399999999999995E-002     2.7035681404500557E-021
  -9.0299999999999991E-002     3.5379116605082795E-021
  -8.9200000000000002E-002    -5.3273969584254156E-021
  -8.8099999999999984E-002    -2.8026052069551535E-020
  -8.6999999999999994E-002    -3.8773012001202204E-020
  -8.5899999999999990E-002     3.0616293840773603E-020
  -8.4799999999999986E-002     2.1991028269602034E-019
  -8.3699999999999997E-002     3.6237751245111138E-019
  -8.2599999999999993E-002    -1.1300847824787110E-020
  -8.1499999999999989E-002    -1.2715597186020476E-018
  -8.0399999999999999E-002    -2.6355467376939454E-018
  -7.9299999999999995E-002    -1.4304884112327961E-018
  -7.8199999999999992E-002     5.1523839585011907E-018
  -7.7100000000000002E-002     1.4721392918608134E-017
  -7.5999999999999984E-002     1.4815542615926075E-017
  -7.4899999999999994E-002    -1.1496235562604728E-017
  -7.3799999999999991E-002    -6.2696604514704501E-017
  -7.2699999999999987E-002    -9.2117757924530775E-017
  -7.1599999999999997E-002    -1.7734188195933986E-017
  -7.0499999999999993E-002     1.9534754256078302E-016
  -6.9399999999999989E-002     4.1335194591113922E-016
  -6.8300000000000000E-002     3.1400908959068883E-016
  -6.7199999999999996E-002    -3.7078981086115778E-016
  -6.6099999999999992E-002    -1.3930221264830655E-015
  -6.5000000000000002E-002    -1.7287038245785514E-015
  -6.3899999999999985E-002    -1.2560757453913970E-016
  -6.2799999999999995E-002     3.4271778903032127E-015
  -6.1699999999999991E-002     6.3642489647971746E-015
  -6.0599999999999994E-002     4.2915436727558347E-015
  -5.9499999999999990E-002    -5.1284545762926140E-015
  -5.8399999999999994E-002    -1.7254357597100372E-014
  -5.7299999999999990E-002    -1.9881162620595926E-014
  -5.6199999999999986E-002    -1.5643180229191266E-015
  -5.5099999999999996E-002     3.3908595739205328E-014
  -5.3999999999999992E-002     5.9577837726181995E-014
  -5.2899999999999989E-002     3.8689249693497820E-014
  -5.1799999999999985E-002    -4.0201403404139609E-014
  -5.0699999999999995E-002    -1.3162359386013849E-013
  -4.9599999999999991E-002    -1.4437730796055934E-013
  -4.8499999999999988E-002    -1.2304612149580359E-014
  -4.7399999999999998E-002     2.1599550219155747E-013
  -4.6299999999999994E-002     3.5744359403764539E-013
  -4.5199999999999990E-002     2.1091353490093730E-013
  -4.4099999999999986E-002    -2.3613405610200105E-013
  -4.2999999999999997E-002    -6.8483738645260854E-013
  -4.1899999999999993E-002    -6.6867063101817978E-013
  -4.0799999999999989E-002     4.2617758009781590E-014
  -3.9699999999999985E-002     1.0725632621638711E-012
  -3.8599999999999995E-002     1.5166552909394465E-012
  -3.7499999999999992E-002     6.2056132801837881E-013
  -3.6399999999999988E-002    -1.3559743605729762E-012
  -3.5299999999999984E-002    -2.9081318516503541E-012
  -3.4199999999999994E-002    -2.2384555146966823E-012
  -3.3099999999999991E-002     1.0352045826461820E-012
  -3.1999999999999987E-002     4.8304932102893140E-012
  -3.0899999999999997E-002     5.5856738505327937E-012
  -2.9799999999999993E-002     1.1756394469035628E-012
  -2.8699999999999989E-002    -6.3555076999790985E-012
  -2.7599999999999986E-002    -1.1058771953730844E-011
  -2.6499999999999996E-002    -7.2925753977203631E-012
  -2.5399999999999992E-002     4.7188273254182966E-012
  -2.4299999999999988E-002     1.6901665830792932E-011
  -2.3199999999999985E-002     1.8151296438116669E-011
  -2.2099999999999995E-002     3.7067779401469781E-012
  -2.0999999999999991E-002    -1.8340894775149544E-011
  -1.9899999999999987E-002    -3.0528100880554977E-011
  -1.8799999999999983E-002    -1.9326176076137402E-011
  -1.7699999999999994E-002     1.1291852869413017E-011
  -1.6599999999999990E-002     3.8698447224483875E-011
  -1.5499999999999986E-002     3.7476174941095950E-011
  -1.4399999999999996E-002     2.1503315621143766E-012
  -1.3299999999999992E-002    -4.2608177402982377E-011
  -1.2199999999999989E-002    -5.7160904481933007E-011
  -1.1099999999999985E-002    -1.9951889099197775E-011
  -9.9999999999999950E-003     4.7673271580397613E-011
  -8.8999999999999913E-003     8.9952170712058445E-011
  -7.7999999999999875E-003     5.9056107226668344E-011
  -6.6999999999999837E-003    -3.9031135962158907E-011
  -5.5999999999999939E-003    -1.3580304936145010E-010
  -4.4999999999999901E-003    -1.4518061752787758E-010
  -3.3999999999999864E-003    -3.4361680167892182E-011
  -2.2999999999999826E-003     1.3587071745481059E-010
  -1.1999999999999927E-003     2.4235227713553792E-010
  -9.9999999999988987E-005     1.8907765630958607E-010
   1.0000000000000148E-003    -1.0307253314767136E-011
   2.1000000000000185E-003    -2.2706632407667067E-010
   3.2000000000000084E-003    -3.0467198208761514E-010
   4.3000000000000121E-003    -1.7916922112613615E-010
   5.4000000000000159E-003     6.2272541290236799E-011
   6.5000000000000058E-003     2.3962742901065012E-010
   7.6000000000000234E-003     2.1952110962343227E-010
   8.7000000000000133E-003     2.8949769664824946E-011
   9.8000000000000032E-003    -1.5448084478288492E-010
   1.0900000000000021E-002    -1.4211695709144894E-010
   1.2000000000000011E-002     9.7305177804140517E-011
   1.3100000000000001E-002     3.7846076272883883E-010
   1.4200000000000018E-002     4.1667028161105767E-010
   1.5300000000000008E-002     5.4244751052064758E-011
   1.6400000000000026E-002    -5.7006144249529092E-010
   1.7500000000000016E-002    -1.0554751517233120E-009
   1.8600000000000005E-002    -9.8795760461449594E-010
   1.9700000000000023E-002    -2.4967478084992122E-010
   2.0800000000000013E-002     8.3472861955878778E-010
   2.1900000000000003E-002     1.6498938881781826E-009
   2.3000000000000020E-002     1.6712822237251721E-009
   2.4100000000000010E-002     8.2797541045546911E-010
   2.5200000000000000E-002    -4.1977737952357264E-010
   2.6300000000000018E-002    -1.3733398862571195E-009
   2.7400000000000008E-002    -1.5728677249526812E-009
   2.8500000000000025E-002    -1.1101038976944662E-009
   2.9600000000000015E-002    -5.1915971521742470E-010
   3.0700000000000005E-002    -3.0003927120580841E-010
   3.1800000000000023E-002    -4.4361472828476393E-010
   3.2900000000000013E-002    -3.8020803172495337E-010
   3.4000000000000002E-002     5.2594167909699110E-010
   3.5100000000000020E-002     2.2770334506815230E-009
   3.6200000000000010E-002     3.9352410219348960E-009
   3.7300000000000028E-002     4.0949128532471909E-009
   3.8400000000000017E-002     1.9243338034155008E-009
   3.9500000000000007E-002    -1.9718311428110185E-009
   4.0600000000000025E-002    -5.6295235140169834E-009
   4.1700000000000015E-002    -6.8754157922510181E-009
   4.2800000000000005E-002    -4.8340607072810927E-009
   4.3900000000000022E-002    -6.7464478448114949E-010
   4.5000000000000012E-002     3.0730256117556621E-009
   4.6100000000000002E-002     4.2576777659067227E-009
   4.7200000000000020E-002     2.6578301781652200E-009
   4.8300000000000010E-002     1.3693651767999002E-010
   4.9400000000000027E-002    -8.0458589790752706E-010
   5.0500000000000017E-002     9.6382046788000217E-010
   5.1600000000000007E-002     4.1987524568293675E-009
   5.2700000000000025E-002     6.1528617756321975E-009
   5.3800000000000014E-002     4.7526307334069134E-009
   5.4900000000000004E-002     4.2268855082793032E-010
   5.6000000000000022E-002    -3.9637155779806071E-009
   5.7100000000000012E-002    -5.1742445883451012E-009
   5.8200000000000002E-002    -2.3162691764598394E-009
   5.9300000000000019E-002     1.9089243519242510E-009
   6.0400000000000009E-002     2.5549811155658638E-009
   6.1500000000000027E-002    -4.3048489217776912E-009
   6.2600000000000017E-002    -1.8574734639289535E-008
   6.3700000000000007E-002    -3.5590705493863062E-008
   6.4800000000000024E-002    -4.8662709417616545E-008
   6.5900000000000014E-002    -5.3204065153526107E-008
   6.7000000000000004E-002    -4.9733742457650192E-008
   6.8100000000000022E-002    -4.3662151227866106E-008
   6.9200000000000012E-002    -4.1917079585121472E-008
   7.0300000000000029E-002    -4.8704297483940306E-008
   7.1400000000000019E-002    -6.3417040507833830E-008
   7.2500000000000009E-002    -8.2265081857718908E-008
   7.3600000000000027E-002    -1.0247529758090269E-007
   7.4700000000000016E-002    -1.2585459785442331E-007
   7.5800000000000006E-002    -1.5874442738096537E-007
   7.6900000000000024E-002    -2.0798556477076859E-007
   7.8000000000000014E-002    -2.7567651272877184E-007
   7.9100000000000004E-002    -3.5681975418813438E-007
   8.0200000000000021E-002    -4.4216710648473269E-007
   8.1300000000000011E-002    -5.2478725365293679E-007
   8.2400000000000029E-002    -6.0588803307841132E-007
   8.3500000000000019E-002    -6.9565891180905135E-007
   8.4600000000000009E-002    -8.0841743965726147E-007
   8.5700000000000026E-002    -9.5557413715148496E-007
   8.6800000000000016E-002    -1.1415671679061167E-006
   8.7900000000000006E-002    -1.3655628663401439E-006
   8.9000000000000024E-002    -1.6271371805488647E-006
   9.0100000000000013E-002    -1.9309873096064237E-006
   9.1200000000000003E-002    -2.2865849587107607E-006
   9.2300000000000021E-002    -2.7029686862080952E-006
   9.3400000000000011E-002    -3.1831398246142790E-006
   9.4500000000000028E-002    -3.7232296108416452E-006
   9.5600000000000018E-002    -4.3179802560192450E-006
   9.6700000000000008E-002    -4.9689742809281627E-006
   9.7800000000000026E-002    -5.6894364206532052E-006
   9.8900000000000016E-002    -6.5015306063292279E-006
  0.10000000000000001         -7.4274435064586339E-006
  0.10110000000000002         -8.4801140474161949E-006
  0.10220000000000001         -9.6599533208071139E-006
  0.10330000000000003         -1.0959720384563225E-005
  0.10440000000000002         -1.2373943718558660E-005
  0.10550000000000001         -1.3906061212766124E-005
  0.10660000000000003         -1.5568022718072209E-005
  0.10770000000000002         -1.7372418369633563E-005
  0.10880000000000001         -1.9322442312842811E-005
  0.10990000000000003         -2.1406829546323792E-005
  0.11100000000000002         -2.3603543013452550E-005
  0.11210000000000001         -2.5889876269504615E-005
  0.11320000000000002         -2.8251795811231635E-005
  0.11430000000000001         -3.0685267120136545E-005
  0.11540000000000003         -3.3187781809831852E-005
  0.11650000000000002         -3.5745291825153971E-005
  0.11760000000000001         -3.8323491025952028E-005
  0.11870000000000003         -4.0869923395806559E-005
  0.11980000000000002         -4.3325599108360574E-005
  0.12090000000000001         -4.5637374569200062E-005
  0.12200000000000003         -4.7761783207537899E-005
  0.12310000000000001         -4.9657279305397091E-005
  0.12420000000000003         -5.1271203119544985E-005
  0.12530000000000002         -5.2532537665688330E-005
  0.12640000000000001         -5.3356805437947642E-005
  0.12750000000000003         -5.3659961849921490E-005
  0.12860000000000002         -5.3370691603054440E-005
  0.12970000000000001         -5.2431016229097872E-005
  0.13080000000000003         -5.0784634368033222E-005
  0.13190000000000002         -4.8363541282019529E-005
  0.13300000000000001         -4.5085078454580837E-005
  0.13410000000000000         -4.0863280446505582E-005
  0.13520000000000004         -3.5628163459481721E-005
  0.13630000000000003         -2.9340411856541015E-005
  0.13740000000000002         -2.1991707399141045E-005
  0.13850000000000001         -1.3591286915473009E-005
  0.13960000000000000         -4.1499392864366932E-006
  0.14070000000000005          6.3259353737515285E-006
  0.14180000000000004          1.7824937458499636E-005
  0.14290000000000003          3.0312241506182037E-005
  0.14400000000000002          4.3714742787417581E-005
  0.14510000000000001          5.7919103710450112E-005
  0.14620000000000000          7.2783426730898418E-005
  0.14730000000000004          8.8153836259158947E-005
  0.14840000000000003          1.0387472138973712E-004
  0.14950000000000002          1.1978625116172217E-004
  0.15060000000000001          1.3571116141975972E-004
  0.15170000000000000          1.5143986092881558E-004
  0.15280000000000005          1.6672564379406564E-004
  0.15390000000000004          1.8129544332624956E-004
  0.15500000000000003          1.9487201643643648E-004
  0.15610000000000002          2.0719575695695228E-004
  0.15720000000000001          2.1803335403094057E-004
  0.15830000000000000          2.2716959938408899E-004
  0.15940000000000004          2.3439117649106490E-004
  0.16050000000000003          2.3947769659573464E-004
  0.16160000000000002          2.4221079365818133E-004
  0.16270000000000001          2.4239807680717071E-004
  0.16380000000000000          2.3989695182538001E-004
  0.16490000000000005          2.3462295939682376E-004
  0.16600000000000004          2.2653910855299146E-004
  0.16710000000000003          2.1563774498647295E-004
  0.16820000000000002          2.0193190721331288E-004
  0.16930000000000001          1.8546533829068767E-004
  0.17040000000000000          1.6633393533995234E-004
  0.17150000000000004          1.4469989400824220E-004
  0.17260000000000003          1.2078746658518406E-004
  0.17370000000000002          9.4864881248224789E-005
  0.17480000000000001          6.7225817474545705E-005
  0.17590000000000000          3.8182304706431075E-005
  0.17700000000000005          8.0705331129177982E-006
  0.17810000000000004         -2.2742233340976475E-005
  0.17920000000000003         -5.3859730542173352E-005
  0.18030000000000002         -8.4867599071007955E-005
  0.18140000000000001         -1.1534944496816756E-004
  0.18250000000000000         -1.4489908062388272E-004
  0.18360000000000004         -1.7312676936854962E-004
  0.18470000000000003         -1.9966201216449646E-004
  0.18580000000000002         -2.2415620333051241E-004
  0.18690000000000001         -2.4628636310810383E-004
  0.18800000000000000         -2.6575766969474398E-004
  0.18910000000000005         -2.8230971656742124E-004
  0.19020000000000004         -2.9572716448458613E-004
  0.19130000000000003         -3.0585192143919778E-004
  0.19240000000000002         -3.1259207753467366E-004
  0.19350000000000001         -3.1592004233974090E-004
  0.19460000000000005         -3.1586040859113543E-004
  0.19570000000000004         -3.1247659353542237E-004
  0.19680000000000003         -3.0586635693910600E-004
  0.19790000000000002         -2.9616881511176945E-004
  0.19900000000000001         -2.8357526753100489E-004
  0.20010000000000000         -2.6833103038373211E-004
  0.20120000000000005         -2.5072312564591544E-004
  0.20230000000000004         -2.3106082517190341E-004
  0.20340000000000003         -2.0966217562092725E-004
  0.20450000000000002         -1.8685408576859220E-004
  0.20560000000000000         -1.6297919501086547E-004
  0.20670000000000005         -1.3839622261004153E-004
  0.20780000000000004         -1.1346708924976515E-004
  0.20890000000000003         -8.8537250121600145E-005
