 -0.12000000000000000          0.0000000000000000
 -0.11889999999999999          0.0000000000000000
 -0.11780000000000000          0.0000000000000000
 -0.11670000000000000          0.0000000000000000
 -0.11559999999999999          2.1276993296577562E-015
 -0.11449999999999999          9.4693175894358834E-015
 -0.11340000000000000          1.4784094426651719E-014
 -0.11230000000000000         -6.8516130879233035E-015
 -0.11119999999999999         -7.1924915025570191E-014
 -0.11009999999999999         -1.3559701863945228E-013
 -0.10900000000000000         -8.6135566452864853E-014
 -0.10790000000000000          1.4484916629857458E-013
 -0.10679999999999999          4.2506997270999602E-013
 -0.10569999999999999          4.2882049907516651E-013
 -0.10460000000000000         -6.1338548172987228E-014
 -0.10349999999999999         -7.7239663233072409E-013
 -0.10239999999999999         -9.6201117818356385E-013
 -0.10130000000000000         -8.5770806960722840E-014
 -0.10020000000000000          1.3716774027380807E-012
  -9.9099999999999994E-002     1.8894783741091326E-012
  -9.7999999999999990E-002     2.1547616935093522E-013
  -9.6899999999999986E-002    -2.9163167106910359E-012
  -9.5799999999999996E-002    -4.5354765949856546E-012
  -9.4699999999999993E-002    -1.7131027499339702E-012
  -9.3599999999999989E-002     5.0288571050438602E-012
  -9.2499999999999999E-002     1.0512979375931764E-011
  -9.1399999999999995E-002     8.2379372420837704E-012
  -9.0299999999999991E-002    -3.4019215396086100E-012
  -8.9200000000000002E-002    -1.7369647387077691E-011
  -8.8099999999999984E-002    -2.1459799215417519E-011
  -8.6999999999999994E-002    -8.0357977216838350E-012
  -8.5899999999999990E-002     1.7422514819731560E-011
  -8.4799999999999986E-002     3.7383911938304593E-011
  -8.3699999999999997E-002     3.4420542804891596E-011
  -8.2599999999999993E-002     5.9523432190122794E-012
  -8.1499999999999989E-002    -3.1011831991278882E-011
  -8.0399999999999999E-002    -5.0923067845820569E-011
  -7.9299999999999995E-002    -3.9104882526563856E-011
  -7.8199999999999992E-002    -3.7763386168121471E-012
  -7.7100000000000002E-002     3.0153584490433261E-011
  -7.5999999999999984E-002     4.1149146590147012E-011
  -7.4899999999999994E-002     2.7989671344541556E-011
  -7.3799999999999991E-002     8.4471249439665996E-012
  -7.2699999999999987E-002     3.5581585421107231E-013
  -7.1599999999999997E-002     1.9608817607846829E-012
  -7.0499999999999993E-002    -9.9188487284740390E-012
  -6.9399999999999989E-002    -6.0820154468288479E-011
  -6.8300000000000000E-002    -1.5483471449417863E-010
  -6.7199999999999996E-002    -2.6771784789048070E-010
  -6.6099999999999992E-002    -3.6443745243808223E-010
  -6.5000000000000002E-002    -4.2713410586259215E-010
  -6.3899999999999985E-002    -4.6991177615751667E-010
  -6.2799999999999995E-002    -5.2827536789479268E-010
  -6.1699999999999991E-002    -6.3320260146326746E-010
  -6.0599999999999994E-002    -7.9268253072584116E-010
  -5.9499999999999990E-002    -9.9566810352058610E-010
  -5.8399999999999994E-002    -1.2326549780894425E-009
  -5.7299999999999990E-002    -1.5130180441857988E-009
  -5.6199999999999986E-002    -1.8642993815376485E-009
  -5.5099999999999996E-002    -2.3167625595732488E-009
  -5.3999999999999992E-002    -2.8896076642581647E-009
  -5.2899999999999989E-002    -3.5912952611738547E-009
  -5.1799999999999985E-002    -4.4309960145483274E-009
  -5.0699999999999995E-002    -5.4279656325206815E-009
  -4.9599999999999991E-002    -6.6106617957473190E-009
  -4.8499999999999988E-002    -8.0109172628795022E-009
  -4.7399999999999998E-002    -9.6644798830425316E-009
  -4.6299999999999994E-002    -1.1620430839798246E-008
  -4.5199999999999990E-002    -1.3948487698201006E-008
  -4.4099999999999986E-002    -1.6731769747480030E-008
  -4.2999999999999997E-002    -2.0047608018103347E-008
  -4.1899999999999993E-002    -2.3955438521738870E-008
  -4.0799999999999989E-002    -2.8508992500064778E-008
  -3.9699999999999985E-002    -3.3787483033620447E-008
  -3.8599999999999995E-002    -3.9918255367865640E-008
  -3.7499999999999992E-002    -4.7066283315189139E-008
  -3.6399999999999988E-002    -5.5395698694837847E-008
  -3.5299999999999984E-002    -6.5038342711432051E-008
  -3.4199999999999994E-002    -7.6102935508970404E-008
  -3.3099999999999991E-002    -8.8722011071240559E-008
  -3.1999999999999987E-002    -1.0309549480780333E-007
  -3.0899999999999997E-002    -1.1948800704431051E-007
  -2.9799999999999993E-002    -1.3817762578582915E-007
  -2.8699999999999989E-002    -1.5940109676648717E-007
  -2.7599999999999986E-002    -1.8334753804083448E-007
  -2.6499999999999996E-002    -2.1020856877385086E-007
  -2.5399999999999992E-002    -2.4023819378271583E-007
  -2.4299999999999988E-002    -2.7376282218938286E-007
  -2.3199999999999985E-002    -3.1112733722693520E-007
  -2.2099999999999995E-002    -3.5262388564660796E-007
  -2.0999999999999991E-002    -3.9846830190981564E-007
  -1.9899999999999987E-002    -4.4884421868118807E-007
  -1.8799999999999983E-002    -5.0396835149513208E-007
  -1.7699999999999994E-002    -5.6410857496302924E-007
  -1.6599999999999990E-002    -6.2953000679044635E-007
  -1.5499999999999986E-002    -7.0041636490714154E-007
  -1.4399999999999996E-002    -7.7683648669335525E-007
  -1.3299999999999992E-002    -8.5878303934805444E-007
  -1.2199999999999989E-002    -9.4623652557856985E-007
  -1.1099999999999985E-002    -1.0391806881671073E-006
  -9.9999999999999950E-003    -1.1375431085980381E-006
  -8.8999999999999913E-003    -1.2411110219545662E-006
  -7.7999999999999875E-003    -1.3494981203621137E-006
  -6.6999999999999837E-003    -1.4621908803746919E-006
  -5.5999999999999939E-003    -1.5786205267431797E-006
  -4.4999999999999901E-003    -1.6981799717541435E-006
  -3.3999999999999864E-003    -1.8201573084297706E-006
  -2.2999999999999826E-003    -1.9436454294918803E-006
  -1.1999999999999927E-003    -2.0675108771683881E-006
  -9.9999999999988987E-005    -2.1904575078224298E-006
   1.0000000000000148E-003    -2.3111197151592933E-006
   2.1000000000000185E-003    -2.4280957404698711E-006
   3.2000000000000084E-003    -2.5398867364856414E-006
   4.3000000000000121E-003    -2.6448069547768682E-006
   5.4000000000000159E-003    -2.7409607810113812E-006
   6.5000000000000058E-003    -2.8263266358408146E-006
   7.6000000000000234E-003    -2.8988799840590218E-006
   8.7000000000000133E-003    -2.9566515422629891E-006
   9.8000000000000032E-003    -2.9976813493703958E-006
   1.0900000000000021E-002    -3.0199339562386740E-006
   1.2000000000000011E-002    -3.0212795536499470E-006
   1.3100000000000001E-002    -2.9995933346071979E-006
   1.4200000000000018E-002    -2.9528991944971494E-006
   1.5300000000000008E-002    -2.8794522677344503E-006
   1.6400000000000026E-002    -2.7777068680734374E-006
   1.7500000000000016E-002    -2.6462359983270289E-006
   1.8600000000000005E-002    -2.4837142973410664E-006
   1.9700000000000023E-002    -2.2890164927957812E-006
   2.0800000000000013E-002    -2.0613676952052629E-006
   2.1900000000000003E-002    -1.8004335515797720E-006
   2.3000000000000020E-002    -1.5062901184137445E-006
   2.4100000000000010E-002    -1.1793365501944209E-006
   2.5200000000000000E-002    -8.2025849224010017E-007
   2.6300000000000018E-002    -4.3009910655200656E-007
   2.7400000000000008E-002    -1.0380089676687021E-008
   2.8500000000000025E-002     4.3683613171197067E-007
   2.9600000000000015E-002     9.0899783344866592E-007
   3.0700000000000005E-002     1.4031741102371598E-006
   3.1800000000000023E-002     1.9161195723427227E-006
   3.2900000000000013E-002     2.4442394988000160E-006
   3.4000000000000002E-002     2.9835114219167735E-006
   3.5100000000000020E-002     3.5294642657390796E-006
   3.6200000000000010E-002     4.0772661122900899E-006
   3.7300000000000028E-002     4.6218651732488070E-006
   3.8400000000000017E-002     5.1580923354777042E-006
   3.9500000000000007E-002     5.6806661632435862E-006
   4.0600000000000025E-002     6.1841615206503775E-006
   4.1700000000000015E-002     6.6630268520384561E-006
   4.2800000000000005E-002     7.1116978688223753E-006
   4.3900000000000022E-002     7.5247562563163228E-006
   4.5000000000000012E-002     7.8970433605718426E-006
   4.6100000000000002E-002     8.2236838352400810E-006
   4.7200000000000020E-002     8.5000729086459614E-006
   4.8300000000000010E-002     8.7219077613553964E-006
   4.9400000000000027E-002     8.8853039414971136E-006
   5.0500000000000017E-002     8.9869372459361330E-006
   5.1600000000000007E-002     9.0241346697439440E-006
   5.2700000000000025E-002     8.9948844106402248E-006
   5.3800000000000014E-002     8.8978049461729825E-006
   5.4900000000000004E-002     8.7321432147291489E-006
   5.6000000000000022E-002     8.4978591985418461E-006
   5.7100000000000012E-002     8.1957196016446687E-006
   5.8200000000000002E-002     7.8273405961226672E-006
   5.9300000000000019E-002     7.3951455306087155E-006
   6.0400000000000009E-002     6.9022762545500882E-006
   6.1500000000000027E-002     6.3525312725687400E-006
   6.2600000000000017E-002     5.7503648349666037E-006
   6.3700000000000007E-002     5.1009124035772402E-006
   6.4800000000000024E-002     4.4099738261138555E-006
   6.5900000000000014E-002     3.6839196582150180E-006
   6.7000000000000004E-002     2.9295526928763138E-006
   6.8100000000000022E-002     2.1539863155339845E-006
   6.9200000000000012E-002     1.3645751550939167E-006
   7.0300000000000029E-002     5.6887682831074926E-007
   7.1400000000000019E-002    -2.2540594102338218E-007
   7.2500000000000009E-002    -1.0105374030899839E-006
   7.3600000000000027E-002    -1.7788986497180304E-006
   7.4700000000000016E-002    -2.5231324798369315E-006
   7.5800000000000006E-002    -3.2362447655032156E-006
   7.6900000000000024E-002    -3.9116666812333278E-006
   7.8000000000000014E-002    -4.5433021114149597E-006
   7.9100000000000004E-002    -5.1255947255413048E-006
   8.0200000000000021E-002    -5.6536168813181575E-006
   8.1300000000000011E-002    -6.1231680774653796E-006
   8.2400000000000029E-002    -6.5308422563248314E-006
   8.3500000000000019E-002    -6.8740628194063902E-006
   8.4600000000000009E-002    -7.1510758061776869E-006
   8.5700000000000026E-002    -7.3609298851806670E-006
   8.6800000000000016E-002    -7.5034663495898712E-006
   8.7900000000000006E-002    -7.5793241194332950E-006
   8.9000000000000024E-002    -7.5899492912867572E-006
   9.0100000000000013E-002    -7.5375751293904614E-006
   9.1200000000000003E-002    -7.4251561272831168E-006
   9.2300000000000021E-002    -7.2562670538900420E-006
   9.3400000000000011E-002    -7.0350038186006714E-006
   9.4500000000000028E-002    -6.7659075284609571E-006
   9.5600000000000018E-002    -6.4539212871750351E-006
   9.6700000000000008E-002    -6.1043365349178202E-006
   9.7800000000000026E-002    -5.7227039178542327E-006
   9.8900000000000016E-002    -5.3147050493862480E-006
  0.10000000000000001         -4.8860233619052451E-006
  0.10110000000000002         -4.4422567953006364E-006
  0.10220000000000001         -3.9888832361612003E-006
  0.10330000000000003         -3.5312366435391596E-006
  0.10440000000000002         -3.0744429295737064E-006
  0.10550000000000001         -2.6233201424474828E-006
  0.10660000000000003         -2.1822750113642542E-006
  0.10770000000000002         -1.7552525832797983E-006
  0.10880000000000001         -1.3457480463330285E-006
  0.10990000000000003         -9.5683299150550738E-007
  0.11100000000000002         -5.9114734085596865E-007
  0.11210000000000001         -2.5084975163736090E-007
  0.11320000000000002          6.2429229785720963E-008
  0.11430000000000001          3.4757772482407745E-007
  0.11540000000000003          6.0393432477212627E-007
  0.11650000000000002          8.3121096849936293E-007
  0.11760000000000001          1.0294621688444749E-006
  0.11870000000000003          1.1991045312242932E-006
  0.11980000000000002          1.3409322718871408E-006
  0.12090000000000001          1.4560762338078348E-006
  0.12200000000000003          1.5459046380783548E-006
  0.12310000000000001          1.6119277006509947E-006
  0.12420000000000003          1.6557623894186690E-006
  0.12530000000000002          1.6791543657745933E-006
  0.12640000000000001          1.6839965155668324E-006
  0.12750000000000003          1.6722844975447515E-006
  0.12860000000000002          1.6460154483866063E-006
  0.12970000000000001          1.6070968058556900E-006
  0.13080000000000003          1.5573285736536491E-006
  0.13190000000000002          1.4984495919634355E-006
  0.13300000000000001          1.4321802837002906E-006
  0.13410000000000000          1.3601979844679590E-006
  0.13520000000000004          1.2840544059145031E-006
  0.13630000000000003          1.2051043540850515E-006
  0.13740000000000002          1.1245108453294961E-006
  0.13850000000000001          1.0433157058287179E-006
  0.13960000000000000          9.6250539627362741E-007
  0.14070000000000005          8.8300515699302196E-007
  0.14180000000000004          8.0560914739180589E-007
  0.14290000000000003          7.3091848662443226E-007
  0.14400000000000002          6.5935103066294687E-007
  0.14510000000000001          5.9121839512954466E-007
  0.14620000000000000          5.2680093176604714E-007
  0.14730000000000004          4.6635668127237295E-007
  0.14840000000000003          4.1006774154084269E-007
  0.14950000000000002          3.5798785802398925E-007
  0.15060000000000001          3.1005100709080580E-007
  0.15170000000000000          2.6613855652612983E-007
  0.15280000000000005          2.2614473493831611E-007
  0.15390000000000004          1.8998520090462989E-007
  0.15500000000000003          1.5755064453060186E-007
  0.15610000000000002          1.2866023268998106E-007
  0.15720000000000001          1.0306570175089291E-007
  0.15830000000000000          8.0503859578584525E-008
  0.15940000000000004          6.0748227781459718E-008
  0.16050000000000003          4.3614576838990615E-008
  0.16160000000000002          2.8922721995172651E-008
  0.16270000000000001          1.6458617579928614E-008
  0.16380000000000000          5.9762195192547551E-009
  0.16490000000000005         -2.7634685650923529E-009
  0.16600000000000004         -9.9549426479939029E-009
  0.16710000000000003         -1.5746451254017302E-008
  0.16820000000000002         -2.0271400558158348E-008
  0.16930000000000001         -2.3679236349494204E-008
  0.17040000000000000         -2.6136508068930198E-008
  0.17150000000000004         -2.7800098223451641E-008
  0.17260000000000003         -2.8790758221930446E-008
  0.17370000000000002         -2.9191745909429301E-008
  0.17480000000000001         -2.9071387075418897E-008
  0.17590000000000000         -2.8506644156323091E-008
  0.17700000000000005         -2.7586795070533299E-008
  0.17810000000000004         -2.6396520524940570E-008
  0.17920000000000003         -2.4995504332991914E-008
  0.18030000000000002         -2.3412368932440586E-008
  0.18140000000000001         -2.1656951787463186E-008
  0.18250000000000000         -1.9740426182579540E-008
  0.18360000000000004         -1.7688835285412097E-008
  0.18470000000000003         -1.5541868236823575E-008
  0.18580000000000002         -1.3339223947639312E-008
  0.18690000000000001         -1.1105012021062066E-008
  0.18800000000000000         -8.8421847621589222E-009
  0.18910000000000005         -6.5430398876742402E-009
  0.19020000000000004         -4.2098919905697585E-009
  0.19130000000000003         -1.8701917792185441E-009
  0.19240000000000002          4.2823358747945406E-010
  0.19350000000000001          2.6408828457391564E-009
  0.19460000000000005          4.7501638178459871E-009
  0.19570000000000004          6.7662559999348559E-009
  0.19680000000000003          8.7009484062150477E-009
  0.19790000000000002          1.0536250094617117E-008
  0.19900000000000001          1.2218288603094152E-008
  0.20010000000000000          1.3686342725804934E-008
  0.20120000000000005          1.4913245749426096E-008
  0.20230000000000004          1.5919301432631983E-008
  0.20340000000000003          1.6744005293389819E-008
  0.20450000000000002          1.7399989005184580E-008
  0.20560000000000000          1.7853084344210401E-008
  0.20670000000000005          1.8049950867293774E-008
  0.20780000000000004          1.7969393084626972E-008
  0.20890000000000003          1.7648901007305540E-008
