 -0.12000000000000000          0.0000000000000000
 -0.11889999999999999          0.0000000000000000
 -0.11780000000000000          0.0000000000000000
 -0.11670000000000000         -1.8079893864594160E-013
 -0.11559999999999999         -1.0741656045545889E-012
 -0.11449999999999999         -2.4798834860617625E-012
 -0.11340000000000000         -9.7948418039534024E-013
 -0.11230000000000000          9.3397381842330596E-012
 -0.11119999999999999          2.7008563788233353E-011
 -0.11009999999999999          3.0831153602361994E-011
 -0.10900000000000000         -1.0634560072830812E-011
 -0.10790000000000000         -9.4617459700518936E-011
 -0.10679999999999999         -1.4472945064625264E-010
 -0.10569999999999999         -5.4180028519201784E-011
 -0.10460000000000000          1.7610950198143627E-010
 -0.10349999999999999          3.4198216480874066E-010
 -0.10239999999999999          1.7308046662556364E-010
 -0.10130000000000000         -3.1883079509853474E-010
 -0.10020000000000000         -6.4332300597769176E-010
  -9.9099999999999994E-002    -1.8967379056267220E-010
  -9.7999999999999990E-002     9.8450581020870231E-010
  -9.6899999999999986E-002     1.7539515395625926E-009
  -9.5799999999999996E-002     7.1551992109064599E-010
  -9.4699999999999993E-002    -2.1548993700548635E-009
  -9.3599999999999989E-002    -4.6197317082885547E-009
  -9.2499999999999999E-002    -3.6003551251440058E-009
  -9.1399999999999995E-002     1.6695035354175047E-009
  -9.0299999999999991E-002     7.6953101668664203E-009
  -8.9200000000000002E-002     8.7588718500342111E-009
  -8.8099999999999984E-002     2.2080948181013582E-009
  -8.6999999999999994E-002    -7.7177650936732789E-009
  -8.5899999999999990E-002    -1.2225394030451753E-008
  -8.4799999999999986E-002    -5.8350546616736665E-009
  -8.3699999999999997E-002     7.1056858175211346E-009
  -8.2599999999999993E-002     1.4583961593928052E-008
  -8.1499999999999989E-002     7.6316597485970306E-009
  -8.0399999999999999E-002    -9.7156940270792802E-009
  -7.9299999999999995E-002    -2.1826114249279271E-008
  -7.8199999999999992E-002    -1.5127834984696165E-008
  -7.7100000000000002E-002     7.7660073927177109E-009
  -7.5999999999999984E-002     2.7918193978848649E-008
  -7.4899999999999994E-002     2.6365942318307134E-008
  -7.3799999999999991E-002     2.7550186576519309E-009
  -7.2699999999999987E-002    -2.2260570275989267E-008
  -7.1599999999999997E-002    -2.5320964880393149E-008
  -7.0499999999999993E-002    -3.2495426349754553E-009
  -6.9399999999999989E-002     2.2123661125306171E-008
  -6.8300000000000000E-002     2.3878609312077970E-008
  -6.7199999999999996E-002    -3.1795519550570361E-009
  -6.6099999999999992E-002    -3.5310758761397665E-008
  -6.5000000000000002E-002    -4.1098211056578293E-008
  -6.3899999999999985E-002    -1.1882066885959830E-008
  -6.2799999999999995E-002     2.8542437746637006E-008
  -6.1699999999999991E-002     4.5749047217213956E-008
  -6.0599999999999994E-002     2.7540147939930648E-008
  -5.9499999999999990E-002    -4.7179478102066241E-009
  -5.8399999999999994E-002    -1.8226325337877824E-008
  -5.7299999999999990E-002    -2.5250768143081359E-009
  -5.6199999999999986E-002     1.9601724687845490E-008
  -5.5099999999999996E-002     1.6077574827022545E-008
  -5.3999999999999992E-002    -1.9561078090646333E-008
  -5.2899999999999989E-002    -5.8664156199483841E-008
  -5.1799999999999985E-002    -6.4707002422892401E-008
  -5.0699999999999995E-002    -3.0624882185747992E-008
  -4.9599999999999991E-002     1.2157195250495079E-008
  -4.8499999999999988E-002     2.3523085701526725E-008
  -4.7399999999999998E-002    -6.1447673616044085E-009
  -4.6299999999999994E-002    -4.7545476888899429E-008
  -4.5199999999999990E-002    -6.4155649681651994E-008
  -4.4099999999999986E-002    -5.1782350851681258E-008
  -4.2999999999999997E-002    -4.4482352024033389E-008
  -4.1899999999999993E-002    -7.9279253384356707E-008
  -4.0799999999999989E-002    -1.5518868679009756E-007
  -3.9699999999999985E-002    -2.2961928891618300E-007
  -3.8599999999999995E-002    -2.5821589133556699E-007
  -3.7499999999999992E-002    -2.3965344553289469E-007
  -3.6399999999999988E-002    -2.2051027315228566E-007
  -3.5299999999999984E-002    -2.5444870743740466E-007
  -3.4199999999999994E-002    -3.5527750696928706E-007
  -3.3099999999999991E-002    -4.8920156814347138E-007
  -3.1999999999999987E-002    -6.1218065638968255E-007
  -3.0899999999999997E-002    -7.1410829605156323E-007
  -2.9799999999999993E-002    -8.2687819258353557E-007
  -2.8699999999999989E-002    -9.9149372090323595E-007
  -2.7599999999999986E-002    -1.2200223409308819E-006
  -2.6499999999999996E-002    -1.4904047702657408E-006
  -2.5399999999999992E-002    -1.7761011577022146E-006
  -2.4299999999999988E-002    -2.0775244138349080E-006
  -2.3199999999999985E-002    -2.4238306650659069E-006
  -2.2099999999999995E-002    -2.8471615678427042E-006
  -2.0999999999999991E-002    -3.3591841201996431E-006
  -1.9899999999999987E-002    -3.9531641959911212E-006
  -1.8799999999999983E-002    -4.6243535507528577E-006
  -1.7699999999999994E-002    -5.3827907322556712E-006
  -1.6599999999999990E-002    -6.2454637372866273E-006
  -1.5499999999999986E-002    -7.2217167144117411E-006
  -1.4399999999999996E-002    -8.3136528701288626E-006
  -1.3299999999999992E-002    -9.5325376605615020E-006
  -1.2199999999999989E-002    -1.0908701369771734E-005
  -1.1099999999999985E-002    -1.2476809388317633E-005
  -9.9999999999999950E-003    -1.4248441402742174E-005
  -8.8999999999999913E-003    -1.6204538042075001E-005
  -7.7999999999999875E-003    -1.8323275071452372E-005
  -6.6999999999999837E-003    -2.0618441340047866E-005
  -5.5999999999999939E-003    -2.3144941224018112E-005
  -4.4999999999999901E-003    -2.5957784600905143E-005
  -3.3999999999999864E-003    -2.9061689929221757E-005
  -2.2999999999999826E-003    -3.2405347155872732E-005
  -1.1999999999999927E-003    -3.5932684113504365E-005
  -9.9999999999988987E-005    -3.9642411138629541E-005
   1.0000000000000148E-003    -4.3592419388005510E-005
   2.1000000000000185E-003    -4.7838002501521260E-005
   3.2000000000000084E-003    -5.2362887799972668E-005
   4.3000000000000121E-003    -5.7074787036981434E-005
   5.4000000000000159E-003    -6.1873695813119411E-005
   6.5000000000000058E-003    -6.6724445787258446E-005
   7.6000000000000234E-003    -7.1656068030279130E-005
   8.7000000000000133E-003    -7.6683929364662617E-005
   9.8000000000000032E-003    -8.1733334809541702E-005
   1.0900000000000021E-002    -8.6646672571077943E-005
   1.2000000000000011E-002    -9.1272035206202418E-005
   1.3100000000000001E-002    -9.5543189672753215E-005
   1.4200000000000018E-002    -9.9464414233807474E-005
   1.5300000000000008E-002    -1.0300891153747216E-004
   1.6400000000000026E-002    -1.0603231203276664E-004
   1.7500000000000016E-002    -1.0829363600350916E-004
   1.8600000000000005E-002    -1.0956770711345598E-004
   1.9700000000000023E-002    -1.0973731696140021E-004
   2.0800000000000013E-002    -1.0877034219447523E-004
   2.1900000000000003E-002    -1.0660328553058207E-004
   2.3000000000000020E-002    -1.0305178875569254E-004
   2.4100000000000010E-002    -9.7843956609722227E-005
   2.5200000000000000E-002    -9.0747009380720556E-005
   2.6300000000000018E-002    -8.1659149145707488E-005
   2.7400000000000008E-002    -7.0570764364674687E-005
   2.8500000000000025E-002    -5.7432564062764868E-005
   2.9600000000000015E-002    -4.2067011236213148E-005
   3.0700000000000005E-002    -2.4221193598350510E-005
   3.1800000000000023E-002    -3.7154463825572748E-006
   3.2900000000000013E-002     1.9458349925116636E-005
   3.4000000000000002E-002     4.5186941861175001E-005
   3.5100000000000020E-002     7.3382718255743384E-005
   3.6200000000000010E-002     1.0407654917798936E-004
   3.7300000000000028E-002     1.3735948596149683E-004
   3.8400000000000017E-002     1.7322873463854194E-004
   3.9500000000000007E-002     2.1149120584595948E-004
   4.0600000000000025E-002     2.5182004901580513E-004
   4.1700000000000015E-002     2.9390401323325932E-004
   4.2800000000000005E-002     3.3753569005057216E-004
   4.3900000000000022E-002     3.8254764513112605E-004
   4.5000000000000012E-002     4.2866036528721452E-004
   4.6100000000000002E-002     4.7539643128402531E-004
   4.7200000000000020E-002     5.2214803872630000E-004
   4.8300000000000010E-002     5.6832865811884403E-004
   4.9400000000000027E-002     6.1345682479441166E-004
   5.0500000000000017E-002     6.5708870533853769E-004
   5.1600000000000007E-002     6.9866975536569953E-004
   5.2700000000000025E-002     7.3745782719925046E-004
   5.3800000000000014E-002     7.7259866520762444E-004
   5.4900000000000004E-002     8.0328341573476791E-004
   5.6000000000000022E-002     8.2883954746648669E-004
   5.7100000000000012E-002     8.4867590339854360E-004
   5.8200000000000002E-002     8.6214661132544279E-004
   5.9300000000000019E-002     8.6847622878849506E-004
   6.0400000000000009E-002     8.6682348046451807E-004
   6.1500000000000027E-002     8.5642701014876366E-004
   6.2600000000000017E-002     8.3670212188735604E-004
   6.3700000000000007E-002     8.0720894038677216E-004
   6.4800000000000024E-002     7.6754100155085325E-004
   6.5900000000000014E-002     7.1726122405380011E-004
   6.7000000000000004E-002     6.5595435444265604E-004
   6.8100000000000022E-002     5.8335630455985665E-004
   6.9200000000000012E-002     4.9944466445595026E-004
   7.0300000000000029E-002     4.0442071622237563E-004
   7.1400000000000019E-002     2.9862421797588468E-004
   7.2500000000000009E-002     1.8246013496536762E-004
   7.3600000000000027E-002     5.6414628488710150E-005
   7.4700000000000016E-002    -7.8846402175258845E-005
   7.5800000000000006E-002    -2.2238172823563218E-004
   7.6900000000000024E-002    -3.7296302616596222E-004
   7.8000000000000014E-002    -5.2915804553776979E-004
   7.9100000000000004E-002    -6.8943685619160533E-004
   8.0200000000000021E-002    -8.5221696645021439E-004
   8.1300000000000011E-002    -1.0158182121813297E-003
   8.2400000000000029E-002    -1.1783741647377610E-003
   8.3500000000000019E-002    -1.3377907453104854E-003
   8.4600000000000009E-002    -1.4918119413778186E-003
   8.5700000000000026E-002    -1.6381595050916076E-003
   8.6800000000000016E-002    -1.7746468074619770E-003
   8.7900000000000006E-002    -1.8991905963048339E-003
   8.9000000000000024E-002    -2.0097347442060709E-003
   9.0100000000000013E-002    -2.1041864529252052E-003
   9.1200000000000003E-002    -2.1804685238748789E-003
   9.2300000000000021E-002    -2.2366880439221859E-003
   9.3400000000000011E-002    -2.2713060025125742E-003
   9.4500000000000028E-002    -2.2831747774034739E-003
   9.5600000000000018E-002    -2.2714277729392052E-003
   9.6700000000000008E-002    -2.2353492677211761E-003
   9.7800000000000026E-002    -2.1743818651884794E-003
   9.8900000000000016E-002    -2.0883008837699890E-003
  0.10000000000000001         -1.9774201791733503E-003
  0.10110000000000002         -1.8426406895741820E-003
  0.10220000000000001         -1.6852848930284381E-003
  0.10330000000000003         -1.5068711945787072E-003
  0.10440000000000002         -1.3090480351820588E-003
  0.10550000000000001         -1.0937569895759225E-003
  0.10660000000000003         -8.6344307055696845E-004
  0.10770000000000002         -6.2107702251523733E-004
  0.10880000000000001         -3.6991969682276249E-004
  0.10990000000000003         -1.1320500198053196E-004
  0.11100000000000002          1.4598194684367627E-004
  0.11210000000000001          4.0455025737173855E-004
  0.11320000000000002          6.5916677704080939E-004
  0.11430000000000001          9.0624502627179027E-004
  0.11540000000000003          1.1422442039474845E-003
  0.11650000000000002          1.3640420511364937E-003
  0.11760000000000001          1.5690556028857827E-003
  0.11870000000000003          1.7550291959196329E-003
  0.11980000000000002          1.9197429064661264E-003
  0.12090000000000001          2.0609840285032988E-003
  0.12200000000000003          2.1768652368336916E-003
  0.12310000000000001          2.2662016563117504E-003
  0.12420000000000003          2.3285874631255865E-003
  0.12530000000000002          2.3641018196940422E-003
  0.12640000000000001          2.3729396052658558E-003
  0.12750000000000003          2.3553499486297369E-003
  0.12860000000000002          2.3119424004107714E-003
  0.12970000000000001          2.2440338507294655E-003
  0.13080000000000003          2.1536487620323896E-003
  0.13190000000000002          2.0431287121027708E-003
  0.13300000000000001          1.9147072453051805E-003
  0.13410000000000000          1.7704435158520937E-003
  0.13520000000000004          1.6125444089993834E-003
  0.13630000000000003          1.4437001664191484E-003
  0.13740000000000002          1.2670307187363505E-003
  0.13850000000000001          1.0856402805075049E-003
  0.13960000000000000          9.0218486730009317E-004
  0.14070000000000005          7.1885029319673777E-004
  0.14180000000000004          5.3772242972627282E-004
  0.14290000000000003          3.6112382076680660E-004
  0.14400000000000002          1.9153585890308022E-004
  0.14510000000000001          3.1147978006629273E-005
  0.14620000000000000         -1.1852724855998531E-004
  0.14730000000000004         -2.5659127277322114E-004
  0.14840000000000003         -3.8233006489463151E-004
  0.14950000000000002         -4.9486808711662889E-004
  0.15060000000000001         -5.9327227063477039E-004
  0.15170000000000000         -6.7699147621169686E-004
  0.15280000000000005         -7.4616540223360062E-004
  0.15390000000000004         -8.0146262189373374E-004
  0.15500000000000003         -8.4359309403225780E-004
  0.15610000000000002         -8.7298901053145528E-004
  0.15720000000000001         -8.8996108388528228E-004
  0.15830000000000000         -8.9513888815417886E-004
  0.15940000000000004         -8.8970625074580312E-004
  0.16050000000000003         -8.7515520863234997E-004
  0.16160000000000002         -8.5279229097068310E-004
  0.16270000000000001         -8.2349416334182024E-004
  0.16380000000000000         -7.8794709406793118E-004
  0.16490000000000005         -7.4709346517920494E-004
  0.16600000000000004         -7.0228730328381062E-004
  0.16710000000000003         -6.5497064497321844E-004
  0.16820000000000002         -6.0619565192610025E-004
  0.16930000000000001         -5.5648677516728640E-004
  0.17040000000000000         -5.0618499517440796E-004
  0.17150000000000004         -4.5590536319650710E-004
  0.17260000000000003         -4.0661540697328746E-004
  0.17370000000000002         -3.5924321855418384E-004
  0.17480000000000001         -3.1422835309058428E-004
  0.17590000000000000         -2.7149761444889009E-004
  0.17700000000000005         -2.3090241302270442E-004
  0.17810000000000004         -1.9266271556261927E-004
  0.17920000000000003         -1.5734837506897748E-004
  0.18030000000000002         -1.2541585601866245E-004
  0.18140000000000001         -9.6795243734959513E-005
  0.18250000000000000         -7.0977686846163124E-005
  0.18360000000000004         -4.7527133574476466E-005
  0.18470000000000003         -2.6484734917175956E-005
  0.18580000000000002         -8.2378801380400546E-006
  0.18690000000000001          7.0121991484484170E-006
  0.18800000000000000          1.9619439626694657E-005
  0.18910000000000005          3.0296423574327491E-005
  0.19020000000000004          3.9544422179460526E-005
  0.19130000000000003          4.7302277380367741E-005
  0.19240000000000002          5.3185438446234912E-005
  0.19350000000000001          5.7067307352554053E-005
  0.19460000000000005          5.9389800298959017E-005
  0.19570000000000004          6.0870002926094458E-005
  0.19680000000000003          6.1906182963866740E-005
  0.19790000000000002          6.2309409258887172E-005
  0.19900000000000001          6.1649639974348247E-005
  0.20010000000000000          5.9856614825548604E-005
  0.20120000000000005          5.7439545344095677E-005
  0.20230000000000004          5.5084838095353916E-005
  0.20340000000000003          5.3047831897856668E-005
  0.20450000000000002          5.0979982916032895E-005
  0.20560000000000000          4.8380636144429445E-005
  0.20670000000000005          4.5203571062302217E-005
  0.20780000000000004          4.1978375520557165E-005
  0.20890000000000003          3.9311922591878101E-005
