 -0.12000000000000000          0.0000000000000000
 -0.11889999999999999          0.0000000000000000
 -0.11780000000000000          0.0000000000000000
 -0.11670000000000000          0.0000000000000000
 -0.11559999999999999          0.0000000000000000
 -0.11449999999999999          0.0000000000000000
 -0.11340000000000000          0.0000000000000000
 -0.11230000000000000          0.0000000000000000
 -0.11119999999999999          0.0000000000000000
 -0.11009999999999999          0.0000000000000000
 -0.10900000000000000         -7.4331280861649517E-022
 -0.10790000000000000         -4.3116712688914356E-021
 -0.10679999999999999         -2.6182819014953544E-020
 -0.10569999999999999         -1.7476157579070346E-019
 -0.10460000000000000         -5.9356402465516901E-019
 -0.10349999999999999         -1.0032235169684747E-019
 -0.10239999999999999          6.5513858431135352E-018
 -0.10130000000000000          2.3943062122062349E-017
 -0.10020000000000000          2.9042321232908392E-017
  -9.9099999999999994E-002    -5.1885410156913393E-017
  -9.7999999999999990E-002    -2.5336301287505202E-016
  -9.6899999999999986E-002    -3.3741634216238473E-016
  -9.5799999999999996E-002     1.6536698344635665E-016
  -9.4699999999999993E-002     1.0107011002461712E-015
  -9.3599999999999989E-002     3.0227985379380789E-016
  -9.2499999999999999E-002    -2.8048716778026475E-015
  -9.1399999999999995E-002    -7.1096335115171819E-016
  -9.0299999999999991E-002     2.1616035174366818E-014
  -8.9200000000000002E-002     5.3745155298874999E-014
  -8.8099999999999984E-002     8.7252237092768429E-015
  -8.6999999999999994E-002    -2.3687445776547857E-013
  -8.5899999999999990E-002    -5.7942219815546148E-013
  -8.4799999999999986E-002    -3.5252877006481415E-013
  -8.3699999999999997E-002     1.3852195215527050E-012
  -8.2599999999999993E-002     4.2233551725276080E-012
  -8.1499999999999989E-002     4.3265226470923781E-012
  -8.0399999999999999E-002    -4.4290972799033290E-012
  -7.9299999999999995E-002    -2.2348376621513959E-011
  -7.8199999999999992E-002    -3.2451208387132554E-011
  -7.7100000000000002E-002    -1.9190235338444688E-012
  -7.5999999999999984E-002     8.5064552624006358E-011
  -7.4899999999999994E-002     1.7259489670795396E-010
  -7.3799999999999991E-002     1.1793643839301694E-010
  -7.2699999999999987E-002    -2.0275192635912740E-010
  -7.1599999999999997E-002    -6.7417565974275804E-010
  -7.0499999999999993E-002    -8.0181905559593034E-010
  -6.9399999999999989E-002     3.7880060199386295E-011
  -6.8300000000000000E-002     1.8636392429268908E-009
  -6.7199999999999996E-002     3.3709817159888512E-009
  -6.6099999999999992E-002     2.2385358011696486E-009
  -6.5000000000000002E-002    -2.9031221870911845E-009
  -6.3899999999999985E-002    -9.7904084839222938E-009
  -6.2799999999999995E-002    -1.1882452355395161E-008
  -6.1699999999999991E-002    -2.3539303839500844E-009
  -6.0599999999999994E-002     1.8195459361433570E-008
  -5.9499999999999990E-002     3.6412778570139298E-008
  -5.8399999999999994E-002     3.1135531486376649E-008
  -5.7299999999999990E-002    -9.6065910781732844E-009
  -5.6199999999999986E-002    -6.9926670676065629E-008
  -5.5099999999999996E-002    -1.0440164999182453E-007
  -5.3999999999999992E-002    -6.4933416865661958E-008
  -5.2899999999999989E-002     5.5347843641571792E-008
  -5.1799999999999985E-002     1.9516394900166652E-007
  -5.0699999999999995E-002     2.4764392492219860E-007
  -4.9599999999999991E-002     1.3113702834747609E-007
  -4.8499999999999988E-002    -1.3676383048278923E-007
  -4.7399999999999998E-002    -4.2161875057907895E-007
  -4.6299999999999994E-002    -5.3547319112122592E-007
  -4.5199999999999990E-002    -3.4560528661133378E-007
  -4.4099999999999986E-002     1.3874088722346042E-007
  -4.2999999999999997E-002     7.4487024903671054E-007
  -4.1899999999999993E-002     1.1759176459237667E-006
  -4.0799999999999989E-002     1.0953219771179778E-006
  -3.9699999999999985E-002     2.7366357357954626E-007
  -3.8599999999999995E-002    -1.1875667951249674E-006
  -3.7499999999999992E-002    -2.6564166546450395E-006
  -3.6399999999999988E-002    -3.0555274861391605E-006
  -3.5299999999999984E-002    -1.4593342712020310E-006
  -3.4199999999999994E-002     1.9687968233491971E-006
  -3.3099999999999991E-002     5.4354659368977414E-006
  -3.1999999999999987E-002     6.2336762312023790E-006
  -3.0899999999999997E-002     2.7702292300069377E-006
  -2.9799999999999993E-002    -3.4572453841981676E-006
  -2.8699999999999989E-002    -8.0336012615571502E-006
  -2.7599999999999986E-002    -6.8433196247462312E-006
  -2.6499999999999996E-002    -3.4673718118668822E-007
  -2.5399999999999992E-002     5.2490336202022220E-006
  -2.4299999999999988E-002     2.7187036266658460E-006
  -2.3199999999999985E-002    -7.9814753917205234E-006
  -2.2099999999999995E-002    -1.5640462152078863E-005
  -2.0999999999999991E-002    -4.7430921767917216E-006
  -1.9899999999999987E-002     2.8387681595637655E-005
  -1.8799999999999983E-002     6.3219144067263536E-005
  -1.7699999999999994E-002     6.1999067838764066E-005
  -1.6599999999999990E-002    -9.7403358268972195E-007
  -1.5499999999999986E-002    -1.0652571654646466E-004
  -1.4399999999999996E-002    -1.8519276636652161E-004
  -1.3299999999999992E-002    -1.5673016605431193E-004
  -1.2199999999999989E-002     3.9072037907546776E-006
  -1.1099999999999985E-002     2.2427439398598931E-004
  -9.9999999999999950E-003     3.6152594839221179E-004
  -8.8999999999999913E-003     2.9634160455312462E-004
  -7.7999999999999875E-003     3.1092989956918455E-005
  -6.6999999999999837E-003    -2.8978782938795134E-004
  -5.5999999999999939E-003    -4.6960471081545330E-004
  -4.4999999999999901E-003    -4.0192258893506768E-004
  -3.3999999999999864E-003    -1.5201308997341901E-004
  -2.2999999999999826E-003     1.0029532859338231E-004
  -1.1999999999999927E-003     2.1953733812551189E-004
  -9.9999999999988987E-005     2.3750447144261865E-004
   1.0000000000000148E-003     3.1321094138542178E-004
   2.1000000000000185E-003     5.3923280211160940E-004
   3.2000000000000084E-003     7.6202506897968118E-004
   4.3000000000000121E-003     6.1661715153602783E-004
   5.4000000000000159E-003    -1.7885763372761830E-004
   6.5000000000000058E-003    -1.4655529521405677E-003
   7.6000000000000234E-003    -2.5444179773330168E-003
   8.7000000000000133E-003    -2.5194191839544690E-003
   9.8000000000000032E-003    -9.3148229643683880E-004
   1.0900000000000021E-002     1.7546740127729059E-003
   1.2000000000000011E-002     4.2289346456528048E-003
   1.3100000000000001E-002     5.0333151593802495E-003
   1.4200000000000018E-002     3.4671397879715805E-003
   1.5300000000000008E-002     8.2741542427804495E-005
   1.6400000000000026E-002    -3.5982462577524954E-003
   1.7500000000000016E-002    -5.9701162390410718E-003
   1.8600000000000005E-002    -6.2112091109152567E-003
   1.9700000000000023E-002    -4.5373546890907753E-003
   2.0800000000000013E-002    -1.7338757170357361E-003
   2.1900000000000003E-002     1.5540353488181645E-003
   2.3000000000000020E-002     5.0939698703587740E-003
   2.4100000000000010E-002     8.6176944896575302E-003
   2.5200000000000000E-002     1.1080164462327263E-002
   2.6300000000000018E-002     1.0499116964637322E-002
   2.7400000000000008E-002     4.9641984514882560E-003
   2.8500000000000025E-002    -5.5338102392859870E-003
   2.9600000000000015E-002    -1.7745984718203794E-002
   3.0700000000000005E-002    -2.5706486776470593E-002
   3.1800000000000023E-002    -2.3570252582429421E-002
   3.2900000000000013E-002    -9.4588352367261895E-003
   3.4000000000000002E-002     1.2156643904747496E-002
   3.5100000000000020E-002     3.1623326241971082E-002
   3.6200000000000010E-002     3.8866464048623608E-002
   3.7300000000000028E-002     2.9241302981970838E-002
   3.8400000000000017E-002     6.7512467503521335E-003
   3.9500000000000007E-002    -1.7828602343800109E-002
   4.0600000000000025E-002    -3.3137578517199964E-002
   4.1700000000000015E-002    -3.3834103494882681E-002
   4.2800000000000005E-002    -2.3123269900678697E-002
   4.3900000000000022E-002    -9.3899425119148509E-003
   4.5000000000000012E-002     5.8598892064897119E-004
   4.6100000000000002E-002     6.6049490124000243E-003
   4.7200000000000020E-002     1.4111788012088818E-002
   4.8300000000000010E-002     2.7775704860688873E-002
   4.9400000000000027E-002     4.4679094105960160E-002
   5.0500000000000017E-002     5.3247053176164565E-002
   5.1600000000000007E-002     4.0170155465600890E-002
   5.2700000000000025E-002     1.2913006357813054E-003
   5.3800000000000014E-002    -5.1533468067649614E-002
   5.4900000000000004E-002    -9.3819417059423024E-002
   5.6000000000000022E-002   -0.10151243209838660
   5.7100000000000012E-002    -6.5989010035986506E-002
   5.8200000000000002E-002    -1.0264817392397153E-003
   5.9300000000000019E-002     6.3530176877977795E-002
   6.0400000000000009E-002     9.8022796213622754E-002
   6.1500000000000027E-002     8.9104026556003663E-002
   6.2600000000000017E-002     4.5678481459600920E-002
   6.3700000000000007E-002    -8.6572114378399255E-003
   6.4800000000000024E-002    -5.1149237900989575E-002
   6.5900000000000014E-002    -7.2927854955210938E-002
   6.7000000000000004E-002    -8.1296004354966353E-002
   6.8100000000000022E-002    -9.0663172304642492E-002
   6.9200000000000012E-002   -0.10929729789496753
   7.0300000000000029E-002   -0.13167268037797367
   7.1400000000000019E-002   -0.14201369881631334
   7.2500000000000009E-002   -0.12669892609121008
   7.3600000000000027E-002    -8.6936853826068444E-002
   7.4700000000000016E-002    -4.2859524488484964E-002
   7.5800000000000006E-002    -2.5904491543826080E-002
   7.6900000000000024E-002    -6.3969291746697091E-002
   7.8000000000000014E-002   -0.16812473535548200
   7.9100000000000004E-002   -0.32789334654820507
   8.0200000000000021E-002   -0.51618146896376227
   8.1300000000000011E-002   -0.69955229759231430
   8.2400000000000029E-002   -0.84849303960816713
   8.3500000000000019E-002   -0.94545406103152840
   8.4600000000000009E-002   -0.99138665199301657
   8.5700000000000026E-002    -1.0110861063006154
   8.6800000000000016E-002    -1.0534659624102871
   8.7900000000000006E-002    -1.1809489727024018
   8.9000000000000024E-002    -1.4462500810627628
   9.0100000000000013E-002    -1.8648270368581310
   9.1200000000000003E-002    -2.3998308181768855
   9.2300000000000021E-002    -2.9743907451636802
   9.3400000000000011E-002    -3.5105855464943549
   9.4500000000000028E-002    -3.9751811027536270
   9.5600000000000018E-002    -4.4032788276683039
   9.6700000000000008E-002    -4.8815598487866074
   9.7800000000000026E-002    -5.4985642433180146
   9.8900000000000016E-002    -6.2932806015030067
  0.10000000000000001         -7.2354617118852866
  0.10110000000000002         -8.2512273788471742
  0.10220000000000001         -9.2761211395285592
  0.10330000000000003         -10.297794342043451
  0.10440000000000002         -11.359587669375252
  0.10550000000000001         -12.522913932803258
  0.10660000000000003         -13.818338394168293
  0.10770000000000002         -15.219400405887345
  0.10880000000000001         -16.658927917484338
  0.10990000000000003         -18.071056365970982
  0.11100000000000002         -19.427572250370705
  0.11210000000000001         -20.740762710576078
  0.11320000000000002         -22.027046203618355
  0.11430000000000001         -23.263772964482879
  0.11540000000000003         -24.374801635747769
  0.11650000000000002         -25.256168365484303
  0.11760000000000001         -25.833618164068451
  0.11870000000000003         -26.099794387823433
  0.11980000000000002         -26.101634979254126
  0.12090000000000001         -25.864974975591959
  0.12200000000000003         -25.327144622808607
  0.12310000000000001         -24.303987503057375
  0.12420000000000003         -22.547748565679075
  0.12530000000000002         -19.866563797001820
  0.12640000000000001         -16.216722488407431
  0.12750000000000003         -11.710708618167374
  0.12860000000000002         -6.5238394737267074
  0.12970000000000001        -0.73397397995114477
  0.13080000000000003          5.7740421295167419
  0.13190000000000002          13.283926963807815
  0.13300000000000001          22.102327346805133
  0.13410000000000000          32.383548736577538
  0.13520000000000004          44.042366027839392
  0.13630000000000003          56.810394287118996
  0.13740000000000002          70.406951904308926
  0.13850000000000001          84.704353332534183
  0.13960000000000000          99.780441284197053
  0.14070000000000005          115.81407928468816
  0.14180000000000004          132.89480590822620
  0.14290000000000003          150.90312194826819
  0.14400000000000002          169.49827575686484
  0.14510000000000001          188.23965454104740
  0.14620000000000000          206.74925231937053
  0.14730000000000004          224.81228637699039
  0.14840000000000003          242.36149597171945
  0.14950000000000002          259.36007690433894
  0.15060000000000001          275.66470336918468
  0.15170000000000000          290.95526123051445
  0.15280000000000005          304.77145385746877
  0.15390000000000004          316.61312866215712
  0.15500000000000003          326.07971191411059
  0.15610000000000002          332.91961669926667
  0.15720000000000001          337.00091552739099
  0.15830000000000000          338.20101928715536
  0.15940000000000004          336.32098388676286
  0.16050000000000003          331.07241821293229
  0.16160000000000002          322.15820312503860
  0.16270000000000001          309.38330078128490
  0.16380000000000000          292.71862792971820
  0.16490000000000005          272.27313232424473
  0.16600000000000004          248.20135498048950
  0.16710000000000003          220.62402343751509
  0.16820000000000002          189.62051391602472
  0.16930000000000001          155.30032348633085
  0.17040000000000000          117.88067626952741
  0.17150000000000004          77.704154968251160
  0.17260000000000003          35.212211608869367
  0.17370000000000002         -9.1339187622311364
  0.17480000000000001         -54.865211486847144
  0.17590000000000000         -101.51705932620902
  0.17700000000000005         -148.57832336430107
  0.17810000000000004         -195.49076843266616
  0.17920000000000003         -241.66052246099167
  0.18030000000000002         -286.47943115240258
  0.18140000000000001         -329.35696411139094
  0.18250000000000000         -369.72735595709742
  0.18360000000000004         -407.06094360358441
  0.18470000000000003         -440.89108276374259
  0.18580000000000002         -470.82086181647804
  0.18690000000000001         -496.49627685554083
  0.18800000000000000         -517.58312988288412
  0.18910000000000005         -533.74249267585151
  0.19020000000000004         -544.68261718756821
  0.19130000000000003         -550.20153808600298
  0.19240000000000002         -550.24108886724957
  0.19350000000000001         -544.90576171880809
  0.19460000000000005         -534.41613769536616
  0.19570000000000004         -519.02593994145491
  0.19680000000000003         -498.98156738285581
  0.19790000000000002         -474.52975463870951
  0.19900000000000001         -445.95065307620371
  0.20010000000000000         -413.59460449221336
  0.20120000000000005         -377.89685058595734
  0.20230000000000004         -339.36932373048268
  0.20340000000000003         -298.58181762696125
  0.20450000000000002         -256.15731811523693
  0.20560000000000000         -212.73561096191131
  0.20670000000000005         -168.92715454100789
  0.20780000000000004         -125.26622772215562
  0.20890000000000003         -82.203971862776442
