 -0.12000000000000000          0.0000000000000000
 -0.11889999999999999          0.0000000000000000
 -0.11780000000000000          0.0000000000000000
 -0.11670000000000000          0.0000000000000000
 -0.11559999999999999         -5.0504059959165064E-015
 -0.11449999999999999         -2.6405901459012650E-014
 -0.11340000000000000         -6.0919585348484517E-014
 -0.11230000000000000         -6.1259577597248815E-014
 -0.11119999999999999          4.9269263798987217E-014
 -0.11009999999999999          2.8744842335386156E-013
 -0.10900000000000000          5.1471603671957022E-013
 -0.10790000000000000          4.6467566123045700E-013
 -0.10679999999999999         -6.4466173285010475E-014
 -0.10569999999999999         -9.8605715606603361E-013
 -0.10460000000000000         -1.8673617339926007E-012
 -0.10349999999999999         -2.0944778029996503E-012
 -0.10239999999999999         -1.1377049476124501E-012
 -0.10130000000000000          1.1881108076539082E-012
 -0.10020000000000000          4.4213291881811667E-012
  -9.9099999999999994E-002     7.1251771843749978E-012
  -9.7999999999999990E-002     6.9596767585111685E-012
  -9.6899999999999986E-002     1.8229727623275682E-012
  -9.5799999999999996E-002    -7.9508821401730323E-012
  -9.4699999999999993E-002    -1.7860208104125697E-011
  -9.3599999999999989E-002    -2.0357686023042554E-011
  -9.2499999999999999E-002    -9.7423041856004033E-012
  -9.1399999999999995E-002     1.1831265134265578E-011
  -9.0299999999999991E-002     3.2570585117852602E-011
  -8.9200000000000002E-002     3.7156121929227126E-011
  -8.8099999999999984E-002     1.8188832384691267E-011
  -8.6999999999999994E-002    -1.5629674637862578E-011
  -8.5899999999999990E-002    -4.2824847834577184E-011
  -8.4799999999999986E-002    -4.3846246078338424E-011
  -8.3699999999999997E-002    -1.6666504981666108E-011
  -8.2599999999999993E-002     1.9959416064363467E-011
  -8.1499999999999989E-002     3.9904760051889809E-011
  -8.0399999999999999E-002     2.9926977562766410E-011
  -7.9299999999999995E-002     5.0768667969689624E-014
  -7.8199999999999992E-002    -2.5050423541062017E-011
  -7.7100000000000002E-002    -2.6501105129805858E-011
  -7.5999999999999984E-002    -5.8650840260854320E-012
  -7.4899999999999994E-002     1.8294010403763217E-011
  -7.3799999999999991E-002     2.7662603110933937E-011
  -7.2699999999999987E-002     1.8768138085323294E-011
  -7.1599999999999997E-002     2.2129459723019274E-012
  -7.0499999999999993E-002    -1.0375979589416495E-011
  -6.9399999999999989E-002    -1.6830713905902073E-011
  -6.8300000000000000E-002    -2.1690945914421000E-011
  -6.7199999999999996E-002    -2.5082241839058383E-011
  -6.6099999999999992E-002    -1.8105020954672923E-011
  -6.5000000000000002E-002     7.4018360884942069E-012
  -6.3899999999999985E-002     4.4147550198880836E-011
  -6.2799999999999995E-002     6.7744435061634078E-011
  -6.1699999999999991E-002     5.4852206110567181E-011
  -6.0599999999999994E-002     6.5122980792697849E-012
  -5.9499999999999990E-002    -4.6884437304717252E-011
  -5.8399999999999994E-002    -6.7440379669658768E-011
  -5.7299999999999990E-002    -4.0659944161580697E-011
  -5.6199999999999986E-002     1.3181635470649322E-011
  -5.5099999999999996E-002     5.8454581453037946E-011
  -5.3999999999999992E-002     7.5712318359233421E-011
  -5.2899999999999989E-002     7.4377289049909479E-011
  -5.1799999999999985E-002     7.4771418223651409E-011
  -5.0699999999999995E-002     7.9959802667950441E-011
  -4.9599999999999991E-002     6.9682717929175908E-011
  -4.8499999999999988E-002     2.5898500358167986E-011
  -4.7399999999999998E-002    -3.5913941959231366E-011
  -4.6299999999999994E-002    -6.6120206532183090E-011
  -4.5199999999999990E-002    -1.9127364622728571E-011
  -4.4099999999999986E-002     1.0224397023472775E-010
  -4.2999999999999997E-002     2.4012031252240718E-010
  -4.1899999999999993E-002     3.2359950830063156E-010
  -4.0799999999999989E-002     3.2353938972384810E-010
  -3.9699999999999985E-002     2.7044616546234579E-010
  -3.8599999999999995E-002     2.2062980609138805E-010
  -3.7499999999999992E-002     2.0575964543301239E-010
  -3.6399999999999988E-002     2.1566222419000525E-010
  -3.5299999999999984E-002     2.2813691213929843E-010
  -3.4199999999999994E-002     2.4941851362036971E-010
  -3.3099999999999991E-002     3.1724911586650251E-010
  -3.1999999999999987E-002     4.5898090883511600E-010
  -3.0899999999999997E-002     6.4825289580738854E-010
  -2.9799999999999993E-002     8.1069212454210060E-010
  -2.8699999999999989E-002     8.8133922382382934E-010
  -2.7599999999999986E-002     8.6145074407184552E-010
  -2.6499999999999996E-002     8.1836548648794860E-010
  -2.5399999999999992E-002     8.2643974996798875E-010
  -2.4299999999999988E-002     9.0608809344416841E-010
  -2.3199999999999985E-002     1.0200839062335376E-009
  -2.2099999999999995E-002     1.1274383648895991E-009
  -2.0999999999999991E-002     1.2347513012045397E-009
  -1.9899999999999987E-002     1.3871219728400774E-009
  -1.8799999999999983E-002     1.6055309304263687E-009
  -1.7699999999999994E-002     1.8388318645534696E-009
  -1.6599999999999990E-002     1.9895043390505407E-009
  -1.5499999999999986E-002     1.9983756871511105E-009
  -1.4399999999999996E-002     1.9085624192172190E-009
  -1.3299999999999992E-002     1.8416927982656262E-009
  -1.2199999999999989E-002     1.9021273445218867E-009
  -1.1099999999999985E-002     2.0957262591991821E-009
  -9.9999999999999950E-003     2.3363480039506612E-009
  -8.8999999999999913E-003     2.5283102278450542E-009
  -7.7999999999999875E-003     2.6405992947786672E-009
  -6.6999999999999837E-003     2.7038107308641202E-009
  -5.5999999999999939E-003     2.7447812911418623E-009
  -4.4999999999999901E-003     2.7396283019953671E-009
  -3.3999999999999864E-003     2.6422286580896071E-009
  -2.2999999999999826E-003     2.4582236246573075E-009
  -1.1999999999999927E-003     2.2770370033953213E-009
  -9.9999999999988987E-005     2.2122461640350366E-009
   1.0000000000000148E-003     2.2976156532905634E-009
   2.1000000000000185E-003     2.4412225574366175E-009
   3.2000000000000084E-003     2.4913791030201082E-009
   4.3000000000000121E-003     2.3585740027698421E-009
   5.4000000000000159E-003     2.0795209998425435E-009
   6.5000000000000058E-003     1.7651502481896841E-009
   7.6000000000000234E-003     1.4883818622024592E-009
   8.7000000000000133E-003     1.2261126558499313E-009
   9.8000000000000032E-003     9.1084473297087243E-010
   1.0900000000000021E-002     5.3077481299013130E-010
   1.2000000000000011E-002     1.6535721403254655E-010
   1.3100000000000001E-002    -8.8281590371330765E-011
   1.4200000000000018E-002    -2.2509333286180322E-010
   1.5300000000000008E-002    -3.5984265567279294E-010
   1.6400000000000026E-002    -6.3485322554512891E-010
   1.7500000000000016E-002    -1.0935462535499596E-009
   1.8600000000000005E-002    -1.6445614869908809E-009
   1.9700000000000023E-002    -2.1538517636088272E-009
   2.0800000000000013E-002    -2.5714073093041634E-009
   2.1900000000000003E-002    -2.9647655441777943E-009
   2.3000000000000020E-002    -3.4266325332765746E-009
   2.4100000000000010E-002    -3.9560545950223514E-009
   2.5200000000000000E-002    -4.4401891052814335E-009
   2.6300000000000018E-002    -4.7633137434388573E-009
   2.7400000000000008E-002    -4.9319415218462836E-009
   2.8500000000000025E-002    -5.0865298639735101E-009
   2.9600000000000015E-002    -5.3820743417531958E-009
   3.0700000000000005E-002    -5.8537272806802321E-009
   3.1800000000000023E-002    -6.3986593801246272E-009
   3.2900000000000013E-002    -6.8865402269580045E-009
   3.4000000000000002E-002    -7.2830057540329562E-009
   3.5100000000000020E-002    -7.6575545904233877E-009
   3.6200000000000010E-002    -8.0734867680121170E-009
   3.7300000000000028E-002    -8.4846396575244398E-009
   3.8400000000000017E-002    -8.7568849949093419E-009
   3.9500000000000007E-002    -8.7997680253693034E-009
   4.0600000000000025E-002    -8.6775546748185661E-009
   4.1700000000000015E-002    -8.5759808143848204E-009
   4.2800000000000005E-002    -8.6483442629514684E-009
   4.3900000000000022E-002    -8.8892875282908790E-009
   4.5000000000000012E-002    -9.1541787483606640E-009
   4.6100000000000002E-002    -9.2994882905372833E-009
   4.7200000000000020E-002    -9.2990806166426410E-009
   4.8300000000000010E-002    -9.2231697834677107E-009
   4.9400000000000027E-002    -9.1152063674826422E-009
   5.0500000000000017E-002    -8.9073459719202219E-009
   5.1600000000000007E-002    -8.4737870054141240E-009
   5.2700000000000025E-002    -7.7701765022197833E-009
   5.3800000000000014E-002    -6.9148655690298710E-009
   5.4900000000000004E-002    -6.1110743132530843E-009
   5.6000000000000022E-002    -5.4793996007163059E-009
   5.7100000000000012E-002    -4.9626858178442035E-009
   5.8200000000000002E-002    -4.3911088098980144E-009
   5.9300000000000019E-002    -3.6434060213252906E-009
   6.0400000000000009E-002    -2.7388165069197612E-009
   6.1500000000000027E-002    -1.7755825698628769E-009
   6.2600000000000017E-002    -7.9102652206231028E-010
   6.3700000000000007E-002     2.9775895638017857E-010
   6.4800000000000024E-002     1.6037910999244787E-009
   6.5900000000000014E-002     3.1219935525683695E-009
   6.7000000000000004E-002     4.6838204426080665E-009
   6.8100000000000022E-002     6.0733200690776812E-009
   6.9200000000000012E-002     7.1996026917986455E-009
   7.0300000000000029E-002     8.1578654942404683E-009
   7.1400000000000019E-002     9.1181231454129374E-009
   7.2500000000000009E-002     1.0156107066450204E-008
   7.3600000000000027E-002     1.1195351312665025E-008
   7.4700000000000016E-002     1.2112264968777708E-008
   7.5800000000000006E-002     1.2884336264562535E-008
   7.6900000000000024E-002     1.3622796224410649E-008
   7.8000000000000014E-002     1.4450535879007020E-008
   7.9100000000000004E-002     1.5347318083058781E-008
   8.0200000000000021E-002     1.6128176127949700E-008
   8.1300000000000011E-002     1.6582307083012893E-008
   8.2400000000000029E-002     1.6640861133510043E-008
   8.3500000000000019E-002     1.6416581871681046E-008
   8.4600000000000009E-002     1.6074650943664892E-008
   8.5700000000000026E-002     1.5675102105205951E-008
   8.6800000000000016E-002     1.5140548370595752E-008
   8.7900000000000006E-002     1.4377963708511743E-008
   8.9000000000000024E-002     1.3417860600384302E-008
   9.0100000000000013E-002     1.2419175909883506E-008
   9.1200000000000003E-002     1.1523967557991455E-008
   9.2300000000000021E-002     1.0710860642859643E-008
   9.3400000000000011E-002     9.7949603983238376E-009
   9.4500000000000028E-002     8.5861886489624339E-009
   9.5600000000000018E-002     7.0549250885676429E-009
   9.6700000000000008E-002     5.3460476046041094E-009
   9.7800000000000026E-002     3.6389908864009612E-009
   9.8900000000000016E-002     2.0015018531438500E-009
  0.10000000000000001          3.7871766833674769E-010
  0.10110000000000002         -1.2824392658927763E-009
  0.10220000000000001         -2.9147815272523303E-009
  0.10330000000000003         -4.3504990721032755E-009
  0.10440000000000002         -5.4675415306348896E-009
  0.10550000000000001         -6.3114233839201006E-009
  0.10660000000000003         -7.0657457662548495E-009
  0.10770000000000002         -7.8921047474977968E-009
  0.10880000000000001         -8.7935978498876466E-009
  0.10990000000000003         -9.6293746310038841E-009
  0.11100000000000002         -1.0258898619497359E-008
  0.11210000000000001         -1.0668164129867819E-008
  0.11320000000000002         -1.0953987938933096E-008
  0.11430000000000001         -1.1188800108641317E-008
  0.11540000000000003         -1.1314122083661005E-008
  0.11650000000000002         -1.1177985648203048E-008
  0.11760000000000001         -1.0684896523116549E-008
  0.11870000000000003         -9.9091046479315992E-009
  0.11980000000000002         -9.0557676912794705E-009
  0.12090000000000001         -8.3040738729778241E-009
  0.12200000000000003         -7.6813231331129828E-009
  0.12310000000000001         -7.0863537260379417E-009
  0.12420000000000003         -6.4262453136620934E-009
  0.12530000000000002         -5.7256634988789301E-009
  0.12640000000000001         -5.0934594320040105E-009
  0.12750000000000003         -4.5869468223713739E-009
  0.12860000000000002         -4.1189731625479453E-009
  0.12970000000000001         -3.5149974042525400E-009
  0.13080000000000003         -2.6759277016452643E-009
  0.13190000000000002         -1.6866406049587113E-009
  0.13300000000000001         -7.6179229591133435E-010
  0.13410000000000000         -7.7674713883091329E-011
  0.13520000000000004          3.5702926726166595E-010
  0.13630000000000003          6.7061067809959241E-010
  0.13740000000000002          9.8041963436656943E-010
  0.13850000000000001          1.2803729187993440E-009
  0.13960000000000000          1.4749850230089123E-009
  0.14070000000000005          1.5205003922602600E-009
  0.14180000000000004          1.5180674495240964E-009
  0.14290000000000003          1.6513392875339150E-009
  0.14400000000000002          2.0192236771521266E-009
  0.14510000000000001          2.5284496718569471E-009
  0.14620000000000000          2.9592541750389501E-009
  0.14730000000000004          3.1489777452264889E-009
  0.14840000000000003          3.1198004180055250E-009
  0.14950000000000002          3.0294753372572814E-009
  0.15060000000000001          2.9986260141612320E-009
  0.15170000000000000          2.9904336784625229E-009
  0.15280000000000005          2.8646089944572850E-009
  0.15390000000000004          2.5491901922691795E-009
  0.15500000000000003          2.1497872371156745E-009
  0.15610000000000002          1.8748931296386218E-009
  0.15720000000000001          1.8422374736815073E-009
  0.15830000000000000          1.9583414889723372E-009
  0.15940000000000004          1.9969792486307369E-009
  0.16050000000000003          1.8060024586930012E-009
  0.16160000000000002          1.4407228743351652E-009
  0.16270000000000001          1.0920110371515079E-009
  0.16380000000000000          8.8352197780139363E-010
  0.16490000000000005          7.4611128386692371E-010
  0.16600000000000004          5.0032228360308295E-010
  0.16710000000000003          6.4425381696153750E-011
  0.16820000000000002         -4.2835765490245592E-010
  0.16930000000000001         -7.3276534839905594E-010
  0.17040000000000000         -7.1986094862808159E-010
  0.17150000000000004         -5.0249998606588520E-010
  0.17260000000000003         -3.2749422618216784E-010
  0.17370000000000002         -3.3943164945426929E-010
  0.17480000000000001         -4.5394529801789929E-010
  0.17590000000000000         -4.6854142787822184E-010
  0.17700000000000005         -2.9516045163546778E-010
  0.17810000000000004         -7.0099093196773765E-011
  0.17920000000000003         -2.0938042966101023E-011
  0.18030000000000002         -2.2355832463016867E-010
  0.18140000000000001         -5.0386711469840861E-010
  0.18250000000000000         -5.9602589530527439E-010
  0.18360000000000004         -4.0381470389760921E-010
  0.18470000000000003         -9.8232200151926463E-011
  0.18580000000000002          5.3459150300971814E-011
  0.18690000000000001         -4.4613836930329498E-011
  0.18800000000000000         -2.2859535098174177E-010
  0.18910000000000005         -2.5979896012273684E-010
  0.19020000000000004         -9.1099662535842896E-011
  0.19130000000000003          6.8534934671848902E-011
  0.19240000000000002         -3.1213955031805796E-011
  0.19350000000000001         -4.0551373370334431E-010
  0.19460000000000005         -7.8915340928631394E-010
  0.19570000000000004         -8.8313967250286396E-010
  0.19680000000000003         -6.4809185795766666E-010
  0.19790000000000002         -3.4008865168466684E-010
  0.19900000000000001         -2.4399435250010981E-010
  0.20010000000000000         -3.7496647453671983E-010
  0.20120000000000005         -4.6074744020074831E-010
  0.20230000000000004         -2.3150280303863013E-010
  0.20340000000000003          2.7949734193732922E-010
  0.20450000000000002          7.4297540342271873E-010
  0.20560000000000000          8.5422835471860026E-010
  0.20670000000000005          6.4337435379258068E-010
  0.20780000000000004          4.5079967536665322E-010
  0.20890000000000003          5.8303195604736402E-010
