 -0.12000000000000000          0.0000000000000000
 -0.11889999999999999          0.0000000000000000
 -0.11780000000000000          0.0000000000000000
 -0.11670000000000000          0.0000000000000000
 -0.11559999999999999          0.0000000000000000
 -0.11449999999999999          0.0000000000000000
 -0.11340000000000000          0.0000000000000000
 -0.11230000000000000          0.0000000000000000
 -0.11119999999999999          0.0000000000000000
 -0.11009999999999999          0.0000000000000000
 -0.10900000000000000         -1.2708579997989610E-025
 -0.10790000000000000         -1.5380138065244319E-024
 -0.10679999999999999         -7.7150620196442111E-024
 -0.10569999999999999         -1.5140973385366902E-023
 -0.10460000000000000          3.5811978467747070E-023
 -0.10349999999999999          3.3211680247238567E-022
 -0.10239999999999999          1.0089503209872877E-021
 -0.10130000000000000          1.1307459009145979E-021
 -0.10020000000000000         -3.0305171340654490E-021
  -9.9099999999999994E-002    -1.6936598974618535E-020
  -9.7999999999999990E-002    -3.6343724713817272E-020
  -9.6899999999999986E-002    -2.3517423361478812E-020
  -9.5799999999999996E-002     1.0155012036977956E-019
  -9.4699999999999993E-002     3.8610552436442610E-019
  -9.3599999999999989E-002     6.3566638046076911E-019
  -9.2499999999999999E-002     2.0371384073301153E-019
  -9.1399999999999995E-002    -1.7697791835416513E-018
  -9.0299999999999991E-002    -5.1446932467557147E-018
  -8.9200000000000002E-002    -6.8708024638333945E-018
  -8.8099999999999984E-002    -4.9893316671181222E-019
  -8.6999999999999994E-002     1.9368948549270151E-017
  -8.5899999999999990E-002     4.6394618338021048E-017
  -8.4799999999999986E-002     5.2291188569495106E-017
  -8.3699999999999997E-002    -6.3957840709074677E-018
  -8.2599999999999993E-002    -1.4897215782636649E-016
  -8.1499999999999989E-002    -3.0859162567883794E-016
  -8.0399999999999999E-002    -3.0276115379575177E-016
  -7.9299999999999995E-002     8.1863279280070070E-017
  -7.8199999999999992E-002     8.6003352656611456E-016
  -7.7100000000000002E-002     1.5944100330444089E-015
  -7.5999999999999984E-002     1.4025691407108082E-015
  -7.4899999999999994E-002    -5.0783516245496755E-016
  -7.3799999999999991E-002    -3.8656876941297550E-015
  -7.2699999999999987E-002    -6.6061060938758017E-015
  -7.1599999999999997E-002    -5.4057227647625293E-015
  -7.0499999999999993E-002     2.0076777256471372E-015
  -6.9399999999999989E-002     1.3746116536163776E-014
  -6.8300000000000000E-002     2.2397162182069379E-014
  -6.7199999999999996E-002     1.7988564061715770E-014
  -6.6099999999999992E-002    -4.6878225314159888E-015
  -6.5000000000000002E-002    -3.8520818886013039E-014
  -6.3899999999999985E-002    -6.2969310213149832E-014
  -6.2799999999999995E-002    -5.3690775783654665E-014
  -6.1699999999999991E-002     1.8714598723031708E-016
  -6.0599999999999994E-002     8.1930915231485241E-014
  -5.9499999999999990E-002     1.4816176985375101E-013
  -5.8399999999999994E-002     1.4860297237531683E-013
  -5.7299999999999990E-002     5.5501169795007382E-014
  -5.6199999999999986E-002    -1.1380244077825730E-013
  -5.5099999999999996E-002    -2.9363612778256221E-013
  -5.3999999999999992E-002    -3.8761363368132462E-013
  -5.2899999999999989E-002    -3.0183556934230971E-013
  -5.1799999999999985E-002     9.7429668296394357E-015
  -5.0699999999999995E-002     4.9145442489878510E-013
  -4.9599999999999991E-002     9.4494486020668678E-013
  -4.8499999999999988E-002     1.0522483492175772E-012
  -4.7399999999999998E-002     5.1747332547452674E-013
  -4.6299999999999994E-002    -6.8499307788461028E-013
  -4.5199999999999990E-002    -2.0944437590514342E-012
  -4.4099999999999986E-002    -2.8076204555693707E-012
  -4.2999999999999997E-002    -1.9289407311023909E-012
  -4.1899999999999993E-002     7.1348352573274987E-013
  -4.0799999999999989E-002     4.0576066812070266E-012
  -3.9699999999999985E-002     6.0452745240247019E-012
  -3.8599999999999995E-002     4.7574470404820879E-012
  -3.7499999999999992E-002    -1.0809612889040379E-013
  -3.6399999999999988E-002    -6.4712193936777851E-012
  -3.5299999999999984E-002    -1.0640441652776111E-011
  -3.4199999999999994E-002    -9.4481106965860207E-012
  -3.3099999999999991E-002    -2.4620318804513541E-012
  -3.1999999999999987E-002     7.3182527746129544E-012
  -3.0899999999999997E-002     1.4942328624423240E-011
  -2.9799999999999993E-002     1.6258069543417797E-011
  -2.8699999999999989E-002     1.0074360616563194E-011
  -2.7599999999999986E-002    -1.5703055175619873E-012
  -2.6499999999999996E-002    -1.4726967909051147E-011
  -2.5399999999999992E-002    -2.4958604627478564E-011
  -2.4299999999999988E-002    -2.7858385737156155E-011
  -2.3199999999999985E-002    -1.9374599147248261E-011
  -2.2099999999999995E-002     2.3399442106164514E-012
  -2.0999999999999991E-002     3.3216637773669788E-011
  -1.9899999999999987E-002     6.0484596497989429E-011
  -1.8799999999999983E-002     6.5380548197602195E-011
  -1.7699999999999994E-002     3.3389464804134406E-011
  -1.6599999999999990E-002    -3.2361200524855249E-011
  -1.5499999999999986E-002    -1.0446354892224008E-010
  -1.4399999999999996E-002    -1.4009648996449187E-010
  -1.3299999999999992E-002    -1.0475073586313499E-010
  -1.2199999999999989E-002     1.9526815060733060E-012
  -1.1099999999999985E-002     1.3646542229572844E-010
  -9.9999999999999950E-003     2.2821507184023204E-010
  -8.8999999999999913E-003     2.1698909336009820E-010
  -7.7999999999999875E-003     8.9672644310034855E-011
  -6.6999999999999837E-003    -1.0644995301900551E-010
  -5.5999999999999939E-003    -2.8303101529125740E-010
  -4.4999999999999901E-003    -3.5228808759057983E-010
  -3.3999999999999864E-003    -2.6855698220806801E-010
  -2.2999999999999826E-003    -4.9985342254199594E-011
  -1.1999999999999927E-003     2.2650703535020966E-010
  -9.9999999999988987E-005     4.5145936988788549E-010
   1.0000000000000148E-003     5.2018794827191073E-010
   2.1000000000000185E-003     3.7247735451551023E-010
   3.2000000000000084E-003     2.5982140050562208E-011
   4.3000000000000121E-003    -4.0981884552593328E-010
   5.4000000000000159E-003    -7.5520439901666236E-010
   6.5000000000000058E-003    -8.2456813599307566E-010
   7.6000000000000234E-003    -5.1754855956431811E-010
   8.7000000000000133E-003     1.0478585360518267E-010
   9.8000000000000032E-003     8.0821455084034710E-010
   1.0900000000000021E-002     1.2643581737137310E-009
   1.2000000000000011E-002     1.1993127602138998E-009
   1.3100000000000001E-002     5.4531529292134451E-010
   1.4200000000000018E-002    -4.8593440382660447E-010
   1.5300000000000008E-002    -1.4605281428714534E-009
   1.6400000000000026E-002    -1.9009511742495988E-009
   1.7500000000000016E-002    -1.5131268460422120E-009
   1.8600000000000005E-002    -3.5563887945677664E-010
   1.9700000000000023E-002     1.1392335963478217E-009
   2.0800000000000013E-002     2.3212438637898458E-009
   2.1900000000000003E-002     2.6007547226924999E-009
   2.3000000000000020E-002     1.7308815492000917E-009
   2.4100000000000010E-002    -4.0031474662916011E-011
   2.5200000000000000E-002    -2.0287589386214222E-009
   2.6300000000000018E-002    -3.3790883424700269E-009
   2.7400000000000008E-002    -3.4204834520323857E-009
   2.8500000000000025E-002    -1.9727897093702040E-009
   2.9600000000000015E-002     5.3173598857370052E-010
   3.0700000000000005E-002     3.1641678166494103E-009
   3.1800000000000023E-002     4.8202699609589672E-009
   3.2900000000000013E-002     4.6464236902465927E-009
   3.4000000000000002E-002     2.4292936551262301E-009
   3.5100000000000020E-002    -1.2025547224681077E-009
   3.6200000000000010E-002    -4.8893120663251466E-009
   3.7300000000000028E-002    -6.9996390905657790E-009
   3.8400000000000017E-002    -6.3255041204968165E-009
   3.9500000000000007E-002    -2.7355342435697594E-009
   4.0600000000000025E-002     2.5608064557758325E-009
   4.1700000000000015E-002     7.3723214200072107E-009
   4.2800000000000005E-002     9.4488141755277866E-009
   4.3900000000000022E-002     7.5729591486606296E-009
   4.5000000000000012E-002     2.2603663385467598E-009
   4.6100000000000002E-002    -4.3502228486147487E-009
   4.7200000000000020E-002    -9.4258423288806625E-009
   4.8300000000000010E-002    -1.0746515677340085E-008
   4.9400000000000027E-002    -7.7297919176544383E-009
   5.0500000000000017E-002    -1.6604553287891122E-009
   5.1600000000000007E-002     4.9564112813982319E-009
   5.2700000000000025E-002     9.5461158977627747E-009
   5.3800000000000014E-002     1.0526135518773572E-008
   5.4900000000000004E-002     7.8036892503519084E-009
   5.6000000000000022E-002     2.5847963769365379E-009
   5.7100000000000012E-002    -3.2719464915231811E-009
   5.8200000000000002E-002    -7.9611908176957513E-009
   5.9300000000000019E-002    -1.0193542898662145E-008
   6.0400000000000009E-002    -9.3576915105586522E-009
   6.1500000000000027E-002    -5.5327142867156454E-009
   6.2600000000000017E-002     4.7765308375247173E-010
   6.3700000000000007E-002     7.0896346571203139E-009
   6.4800000000000024E-002     1.2077172151236937E-008
   6.5900000000000014E-002     1.3154427769279664E-008
   6.7000000000000004E-002     9.0030809474228590E-009
   6.8100000000000022E-002     3.1858887750146891E-010
   6.9200000000000012E-002    -9.8387040736724884E-009
   7.0300000000000029E-002    -1.6939715408170741E-008
   7.1400000000000019E-002    -1.7024241572016763E-008
   7.2500000000000009E-002    -8.9628882093961693E-009
   7.3600000000000027E-002     4.3815027161997477E-009
   7.4700000000000016E-002     1.7028346732672617E-008
   7.5800000000000006E-002     2.2634687013578514E-008
   7.6900000000000024E-002     1.7804072882654509E-008
   7.8000000000000014E-002     4.1277008477891286E-009
   7.9100000000000004E-002    -1.2291597961677780E-008
   8.0200000000000021E-002    -2.3719012531842054E-008
   8.1300000000000011E-002    -2.4602163861686677E-008
   8.2400000000000029E-002    -1.4317650176565166E-008
   8.3500000000000019E-002     2.5619417698408142E-009
   8.4600000000000009E-002     1.8542150925782153E-008
   8.5700000000000026E-002     2.6769582106567213E-008
   8.6800000000000016E-002     2.4061433734345883E-008
   8.7900000000000006E-002     1.2008277039399218E-008
   8.9000000000000024E-002    -4.1462540067982445E-009
   9.0100000000000013E-002    -1.8042500826709329E-008
   9.1200000000000003E-002    -2.4811118493062168E-008
   9.2300000000000021E-002    -2.2623543927124956E-008
   9.3400000000000011E-002    -1.2813424987712096E-008
   9.4500000000000028E-002     1.0614724654800511E-009
   9.5600000000000018E-002     1.4524784930358692E-008
   9.6700000000000008E-002     2.3335850585226581E-008
   9.7800000000000026E-002     2.4447839308550101E-008
   9.8900000000000016E-002     1.6923253909340019E-008
  0.10000000000000001          2.6821846965674467E-009
  0.10110000000000002         -1.3432124745804686E-008
  0.10220000000000001         -2.4915788543466988E-008
  0.10330000000000003         -2.6224478588687816E-008
  0.10440000000000002         -1.5767501082564195E-008
  0.10550000000000001          2.4176953772325760E-009
  0.10660000000000003          1.9796344119527021E-008
  0.10770000000000002          2.7301158667114578E-008
  0.10880000000000001          2.0338513095907729E-008
  0.10990000000000003          1.9221408908975945E-009
  0.11100000000000002         -1.8317820149604813E-008
  0.11210000000000001         -2.9102162457661507E-008
  0.11320000000000002         -2.3843192309414007E-008
  0.11430000000000001         -4.7732324759408584E-009
  0.11540000000000003          1.7833412968570883E-008
  0.11650000000000002          3.1195746430512372E-008
  0.11760000000000001          2.7225317111856384E-008
  0.11870000000000003          7.3271428924215343E-009
  0.11980000000000002         -1.8096496745556578E-008
  0.12090000000000001         -3.5321139790767120E-008
  0.12200000000000003         -3.4848994800995570E-008
  0.12310000000000001         -1.6730352214722188E-008
  0.12420000000000003          9.3659489053266043E-009
  0.12530000000000002          2.9638886900329453E-008
  0.12640000000000001          3.3853783776294222E-008
  0.12750000000000003          2.0699534530876917E-008
  0.12860000000000002         -1.9914296878198456E-009
  0.12970000000000001         -2.2201627203344287E-008
  0.13080000000000003         -3.0678531715011559E-008
  0.13190000000000002         -2.5352347776674833E-008
  0.13300000000000001         -1.1070740768559517E-008
  0.13410000000000000          4.4952335187531389E-009
  0.13520000000000004          1.5624570082195532E-008
  0.13630000000000003          2.0754095331199096E-008
  0.13740000000000002          2.1319644716299990E-008
  0.13850000000000001          1.8759672926194071E-008
  0.13960000000000000          1.2529625337265315E-008
  0.14070000000000005          9.1740337548884554E-010
  0.14180000000000004         -1.5906458372683119E-008
  0.14290000000000003         -3.3321231995842027E-008
  0.14400000000000002         -4.2812835943095706E-008
  0.14510000000000001         -3.5912037787966256E-008
  0.14620000000000000         -1.0047521037392926E-008
  0.14730000000000004          2.7576053440725445E-008
  0.14840000000000003          6.1308817578265007E-008
  0.14950000000000002          7.3790324961464648E-008
  0.15060000000000001          5.5373256202528864E-008
  0.15170000000000000          1.0810530248761552E-008
  0.15280000000000005         -4.1276109641330549E-008
  0.15390000000000004         -7.6847292973525327E-008
  0.15500000000000003         -7.8585188134638884E-008
  0.15610000000000002         -4.5083925925837320E-008
  0.15720000000000001          8.3599109856891118E-009
  0.15830000000000000          5.7687479682044795E-008
  0.15940000000000004          8.1937955087596492E-008
  0.16050000000000003          7.2637241999018443E-008
  0.16160000000000002          3.6064061958995808E-008
  0.16270000000000001         -1.1507023778278835E-008
  0.16380000000000000         -5.1784617483008333E-008
  0.16490000000000005         -7.1349383290453261E-008
  0.16600000000000004         -6.5146828376327903E-008
  0.16710000000000003         -3.6603072572916062E-008
  0.16820000000000002          4.3700056906459395E-009
  0.16930000000000001          4.4427885370623699E-008
  0.17040000000000000          7.0375428151692176E-008
  0.17150000000000004          7.2919178251140693E-008
  0.17260000000000003          4.9857359130101031E-008
  0.17370000000000002          7.4520833948099607E-009
  0.17480000000000001         -4.0788162181115695E-008
  0.17590000000000000         -7.7990442548525607E-008
  0.17700000000000005         -8.9450018947445642E-008
  0.17810000000000004         -6.8414230725011294E-008
  0.17920000000000003         -2.0204817374747108E-008
  0.18030000000000002          3.8000020907702492E-008
  0.18140000000000001          8.2807687817876285E-008
  0.18250000000000000          9.4475986145425850E-008
  0.18360000000000004          6.6929679576333001E-008
  0.18470000000000003          1.2019437001242750E-008
  0.18580000000000002         -4.5658673286652629E-008
  0.18690000000000001         -8.1177567778922821E-008
  0.18800000000000000         -8.1776995841664757E-008
  0.18910000000000005         -5.1941267287247683E-008
  0.19020000000000004         -8.4307520964443938E-009
  0.19130000000000003          3.0343308310420980E-008
  0.19240000000000002          5.3068735184069737E-008
  0.19350000000000001          5.7770265016188205E-008
  0.19460000000000005          4.7881190567977683E-008
  0.19570000000000004          2.7343025621462402E-008
  0.19680000000000003         -5.0998189005113659E-010
  0.19790000000000002         -3.0821457386309703E-008
  0.19900000000000001         -5.5363436501920660E-008
  0.20010000000000000         -6.4095722507317987E-008
  0.20120000000000005         -5.0163642129064101E-008
  0.20230000000000004         -1.4843482887272330E-008
  0.20340000000000003          3.1422640489608966E-008
  0.20450000000000002          7.2386363569876266E-008
  0.20560000000000000          9.1756739095671946E-008
  0.20670000000000005          7.9229160121485620E-008
  0.20780000000000004          3.5232446293775865E-008
  0.20890000000000003         -2.7149567927153839E-008
