 -0.12000000000000000         -5.4647587239742279E-003
 -0.11889999999999999         -2.1808897145092487E-003
 -0.11780000000000000          2.0849837455898523E-003
 -0.11670000000000000          3.0256384052336216E-003
 -0.11559999999999999         -8.1662765296641737E-005
 -0.11449999999999999         -3.7678855005651712E-003
 -0.11340000000000000         -4.1537224315106869E-003
 -0.11230000000000000         -1.1015379568561912E-003
 -0.11119999999999999          1.6419503372162580E-003
 -0.11009999999999999          4.4662086293101311E-004
 -0.10900000000000000         -4.2960299178957939E-003
 -0.10790000000000000         -8.5035637021064758E-003
 -0.10679999999999999         -8.6454292759299278E-003
 -0.10569999999999999         -5.4503264836966991E-003
 -0.10460000000000000         -3.1836330890655518E-003
 -0.10349999999999999         -5.2461149170994759E-003
 -0.10239999999999999         -1.0700888000428677E-002
 -0.10130000000000000         -1.5351762995123863E-002
 -0.10020000000000000         -1.6219116747379303E-002
  -9.9099999999999994E-002    -1.4706797897815704E-002
  -9.7999999999999990E-002    -1.5148015692830086E-002
  -9.6899999999999986E-002    -2.0275546237826347E-002
  -9.5799999999999996E-002    -2.8382765129208565E-002
  -9.4699999999999993E-002    -3.5144079476594925E-002
  -9.3599999999999989E-002    -3.8178235292434692E-002
  -9.2499999999999999E-002    -3.9566170424222946E-002
  -9.1399999999999995E-002    -4.3707054108381271E-002
  -9.0299999999999991E-002    -5.2780520170927048E-002
  -8.9200000000000002E-002    -6.4569555222988129E-002
  -8.8099999999999984E-002    -7.4886389076709747E-002
  -8.6999999999999994E-002    -8.2031413912773132E-002
  -8.5899999999999990E-002    -8.8598713278770447E-002
  -8.4799999999999986E-002    -9.8770648241043091E-002
  -8.3699999999999997E-002   -0.11397174745798111
  -8.2599999999999993E-002   -0.13143065571784973
  -8.1499999999999989E-002   -0.14711363613605499
  -8.0399999999999999E-002   -0.15989696979522705
  -7.9299999999999995E-002   -0.17263075709342957
  -7.8199999999999992E-002   -0.18901547789573669
  -7.7100000000000002E-002   -0.20961201190948486
  -7.5999999999999984E-002   -0.23119649291038513
  -7.4899999999999994E-002   -0.25004255771636963
  -7.3799999999999991E-002   -0.26565226912498474
  -7.2699999999999987E-002   -0.28100273013114929
  -7.1599999999999997E-002   -0.29909116029739380
  -7.0499999999999993E-002   -0.31944903731346130
  -6.9399999999999989E-002   -0.33828836679458618
  -6.8300000000000000E-002   -0.35208281874656677
  -6.7199999999999996E-002   -0.36074623465538025
  -6.6099999999999992E-002   -0.36715456843376160
  -6.5000000000000002E-002   -0.37349531054496765
  -6.3899999999999985E-002   -0.37835919857025146
  -6.2799999999999995E-002   -0.37763607501983643
  -6.1699999999999991E-002   -0.36821475625038147
  -6.0599999999999994E-002   -0.35063421726226807
  -5.9499999999999990E-002   -0.32773700356483459
  -5.8399999999999994E-002   -0.30108514428138733
  -5.7299999999999990E-002   -0.26870551705360413
  -5.6199999999999986E-002   -0.22661294043064117
  -5.5099999999999996E-002   -0.17260737717151642
  -5.3999999999999992E-002   -0.10800924152135849
  -5.2899999999999989E-002    -3.6109253764152527E-002
  -5.1799999999999985E-002     4.1611105203628540E-002
  -5.0699999999999995E-002    0.12706294655799866
  -4.9599999999999991E-002    0.22335553169250488
  -4.8499999999999988E-002    0.33121848106384277
  -4.7399999999999998E-002    0.44782215356826782
  -4.6299999999999994E-002    0.56892216205596924
  -4.5199999999999990E-002    0.69249993562698364
  -4.4099999999999986E-002    0.81957024335861206
  -4.2999999999999997E-002    0.95179617404937744
  -4.1899999999999993E-002     1.0879591703414917
  -4.0799999999999989E-002     1.2237184047698975
  -3.9699999999999985E-002     1.3539701700210571
  -3.8599999999999995E-002     1.4761849641799927
  -3.7499999999999992E-002     1.5906813144683838
  -3.6399999999999988E-002     1.6977961063385010
  -3.5299999999999984E-002     1.7951183319091797
  -3.4199999999999994E-002     1.8774701356887817
  -3.3099999999999991E-002     1.9399701356887817
  -3.1999999999999987E-002     1.9805275201797485
  -3.0899999999999997E-002     1.9997164011001587
  -2.9799999999999993E-002     1.9980756044387817
  -2.8699999999999989E-002     1.9735885858535767
  -2.7599999999999986E-002     1.9222923517227173
  -2.6499999999999996E-002     1.8411988019943237
  -2.5399999999999992E-002     1.7305701971054077
  -2.4299999999999988E-002     1.5931085348129272
  -2.3199999999999985E-002     1.4311838150024414
  -2.2099999999999995E-002     1.2448586225509644
  -2.0999999999999991E-002     1.0329507589340210
  -1.9899999999999987E-002    0.79582399129867554
  -1.8799999999999983E-002    0.53704434633255005
  -1.7699999999999994E-002    0.26210552453994751
  -1.6599999999999990E-002    -2.4248145520687103E-002
  -1.5499999999999986E-002   -0.31966662406921387
  -1.4399999999999996E-002   -0.62260359525680542
  -1.3299999999999992E-002   -0.92992210388183594
  -1.2199999999999989E-002    -1.2356443405151367
  -1.1099999999999985E-002    -1.5330034494400024
  -9.9999999999999950E-003    -1.8166664838790894
  -8.8999999999999913E-003    -2.0836589336395264
  -7.7999999999999875E-003    -2.3319773674011230
  -6.6999999999999837E-003    -2.5582365989685059
  -5.5999999999999939E-003    -2.7571477890014648
  -4.4999999999999901E-003    -2.9235255718231201
  -3.3999999999999864E-003    -3.0541107654571533
  -2.2999999999999826E-003    -3.1483774185180664
  -1.1999999999999927E-003    -3.2069253921508789
  -9.9999999999988987E-005    -3.2288439273834229
   1.0000000000000148E-003    -3.2120366096496582
   2.1000000000000185E-003    -3.1550219058990479
   3.2000000000000084E-003    -3.0587403774261475
   4.3000000000000121E-003    -2.9268219470977783
   5.4000000000000159E-003    -2.7629625797271729
   6.5000000000000058E-003    -2.5696144104003906
   7.6000000000000234E-003    -2.3482441902160645
   8.7000000000000133E-003    -2.1009774208068848
   9.8000000000000032E-003    -1.8322108983993530
   1.0900000000000021E-002    -1.5479627847671509
   1.2000000000000011E-002    -1.2539221048355103
   1.3100000000000001E-002   -0.95399987697601318
   1.4200000000000018E-002   -0.65097028017044067
   1.5300000000000008E-002   -0.34812217950820923
   1.6400000000000026E-002    -5.0383325666189194E-002
   1.7500000000000016E-002    0.23670367896556854
   1.8600000000000005E-002    0.50850176811218262
   1.9700000000000023E-002    0.76247954368591309
   2.0800000000000013E-002    0.99734896421432495
   2.1900000000000003E-002     1.2114243507385254
   2.3000000000000020E-002     1.4019507169723511
   2.4100000000000010E-002     1.5659947395324707
   2.5200000000000000E-002     1.7019988298416138
   2.6300000000000018E-002     1.8102988004684448
   2.7400000000000008E-002     1.8921830654144287
   2.8500000000000025E-002     1.9485108852386475
   2.9600000000000015E-002     1.9791923761367798
   3.0700000000000005E-002     1.9843479394912720
   3.1800000000000023E-002     1.9651256799697876
   3.2900000000000013E-002     1.9243404865264893
   3.4000000000000002E-002     1.8649774789810181
   3.5100000000000020E-002     1.7893997430801392
   3.6200000000000010E-002     1.6990182399749756
   3.7300000000000028E-002     1.5953367948532104
   3.8400000000000017E-002     1.4807331562042236
   3.9500000000000007E-002     1.3584517240524292
   4.0600000000000025E-002     1.2315183877944946
   4.1700000000000015E-002     1.1019332408905029
   4.2800000000000005E-002    0.97103691101074219
   4.3900000000000022E-002    0.84004801511764526
   4.5000000000000012E-002    0.71094805002212524
   4.6100000000000002E-002    0.58605176210403442
   4.7200000000000020E-002    0.46705919504165649
   4.8300000000000010E-002    0.35481107234954834
   4.9400000000000027E-002    0.24954812228679657
   5.0500000000000017E-002    0.15161480009555817
   5.1600000000000007E-002     6.1905547976493835E-002
   5.2700000000000025E-002    -1.8714811652898788E-002
   5.3800000000000014E-002    -8.9827768504619598E-002
   5.4900000000000004E-002   -0.15186479687690735
   5.6000000000000022E-002   -0.20557034015655518
   5.7100000000000012E-002   -0.25136291980743408
   5.8200000000000002E-002   -0.28914439678192139
   5.9300000000000019E-002   -0.31890550255775452
   6.0400000000000009E-002   -0.34111660718917847
   6.1500000000000027E-002   -0.35675087571144104
   6.2600000000000017E-002   -0.36680737137794495
   6.3700000000000007E-002   -0.37184345722198486
   6.4800000000000024E-002   -0.37205550074577332
   6.5900000000000014E-002   -0.36776384711265564
   6.7000000000000004E-002   -0.35971012711524963
   6.8100000000000022E-002   -0.34885087609291077
   6.9200000000000012E-002   -0.33592587709426880
   7.0300000000000029E-002   -0.32127219438552856
   7.1400000000000019E-002   -0.30504995584487915
   7.2500000000000009E-002   -0.28757497668266296
   7.3600000000000027E-002   -0.26941755414009094
   7.4700000000000016E-002   -0.25113376975059509
   7.5800000000000006E-002   -0.23300459980964661
   7.6900000000000024E-002   -0.21504418551921844
   7.8000000000000014E-002   -0.19729071855545044
   7.9100000000000004E-002   -0.17998631298542023
   8.0200000000000021E-002   -0.16350182890892029
   8.1300000000000011E-002   -0.14803481101989746
   8.2400000000000029E-002   -0.13350090384483337
   8.3500000000000019E-002   -0.11972694844007492
   8.4600000000000009E-002   -0.10673748701810837
   8.5700000000000026E-002    -9.4781644642353058E-002
   8.6800000000000016E-002    -8.4059767425060272E-002
   8.7900000000000006E-002    -7.4455372989177704E-002
   8.9000000000000024E-002    -6.5615214407444000E-002
   9.0100000000000013E-002    -5.7301525026559830E-002
   9.1200000000000003E-002    -4.9631476402282715E-002
   9.2300000000000021E-002    -4.2918138206005096E-002
   9.3400000000000011E-002    -3.7267588078975677E-002
   9.4500000000000028E-002    -3.2383676618337631E-002
   9.5600000000000018E-002    -2.7822798117995262E-002
   9.6700000000000008E-002    -2.3437799885869026E-002
   9.7800000000000026E-002    -1.9517634063959122E-002
   9.8900000000000016E-002    -1.6442662104964256E-002
  0.10000000000000001         -1.4211912639439106E-002
  0.10110000000000002         -1.2365514412522316E-002
  0.10220000000000001         -1.0413308627903461E-002
  0.10330000000000003         -8.3222575485706329E-003
  0.10440000000000002         -6.5258452668786049E-003
  0.10550000000000001         -5.4238457232713699E-003
  0.10660000000000003         -4.9022166058421135E-003
  0.10770000000000002         -4.4055692851543427E-003
  0.10880000000000001         -3.5054031759500504E-003
  0.10990000000000003         -2.3585138842463493E-003
  0.11100000000000002         -1.5439541311934590E-003
  0.11210000000000001         -1.4297596644610167E-003
  0.11320000000000002         -1.7435761401429772E-003
  0.11430000000000001         -1.8250178545713425E-003
  0.11540000000000003         -1.3107863487675786E-003
  0.11650000000000002         -5.2216788753867149E-004
  0.11760000000000001         -1.2334887287579477E-004
  0.11870000000000003         -3.9828915032558143E-004
  0.11980000000000002         -9.2091778060421348E-004
  0.12090000000000001         -9.9015468731522560E-004
  0.12200000000000003         -3.8165098521858454E-004
  0.12310000000000001          3.9011723129078746E-004
  0.12420000000000003          6.0046196449548006E-004
  0.12530000000000002          8.7226006144192070E-005
  0.12640000000000001         -5.5903405882418156E-004
  0.12750000000000003         -6.0916354414075613E-004
  0.12860000000000002          2.6337796953157522E-005
  0.12970000000000001          6.8863446358591318E-004
  0.13080000000000003          6.6525733564049006E-004
  0.13190000000000002         -3.9643233321839944E-005
  0.13300000000000001         -6.8679213291034102E-004
  0.13410000000000000         -5.7441194076091051E-004
  0.13520000000000004          2.0725230569951236E-004
  0.13630000000000003          8.4877875633537769E-004
  0.13740000000000002          6.6344573860988021E-004
  0.13850000000000001         -1.8334687047172338E-004
  0.13960000000000000         -8.3602918311953545E-004
  0.14070000000000005         -6.4477213891223073E-004
  0.14180000000000004          1.4637403364758939E-004
  0.14290000000000003          6.5400655148550868E-004
  0.14400000000000002          2.9406891553662717E-004
  0.14510000000000001         -5.8604998048394918E-004
  0.14620000000000000         -1.0601760586723685E-003
  0.14730000000000004         -6.0004513943567872E-004
  0.14840000000000003          3.5383997601456940E-004
  0.14950000000000002          8.3964335499331355E-004
  0.15060000000000001          3.7924438947811723E-004
  0.15170000000000000         -5.1647628424689174E-004
  0.15280000000000005         -8.8109966600313783E-004
  0.15390000000000004         -3.0954540125094354E-004
  0.15500000000000003          6.1265082331374288E-004
  0.15610000000000002          9.2469714581966400E-004
  0.15720000000000001          3.0588978552259505E-004
  0.15830000000000000         -5.8034039102494717E-004
  0.15940000000000004         -7.8115100041031837E-004
  0.16050000000000003         -5.9365425840951502E-005
  0.16160000000000002          8.5078226402401924E-004
  0.16270000000000001          1.0102603118866682E-003
  0.16380000000000000          2.5953139993362129E-004
  0.16490000000000005         -6.1570911202579737E-004
  0.16600000000000004         -7.1259360993281007E-004
  0.16710000000000003          3.8967515138210729E-005
  0.16820000000000002          8.0528791295364499E-004
  0.16930000000000001          7.3162547778338194E-004
  0.17040000000000000         -1.5171086124610156E-004
  0.17150000000000004         -9.5493480330333114E-004
  0.17260000000000003         -8.5975520778447390E-004
  0.17370000000000002          2.3447839339496568E-005
  0.17480000000000001          7.7270035399124026E-004
  0.17590000000000000          6.2059593619778752E-004
  0.17700000000000005         -2.4694504099898040E-004
  0.17810000000000004         -8.9593220036476851E-004
  0.17920000000000003         -6.3219340518116951E-004
  0.18030000000000002          2.6996008818969131E-004
  0.18140000000000001          8.6205871775746346E-004
  0.18250000000000000          5.2370753837749362E-004
  0.18360000000000004         -3.8420277996920049E-004
  0.18470000000000003         -8.9982995996251702E-004
  0.18580000000000002         -4.6989021939225495E-004
  0.18690000000000001          4.7360872849822044E-004
  0.18800000000000000          9.7052013734355569E-004
  0.18910000000000005          5.3694588132202625E-004
  0.19020000000000004         -3.3873534994199872E-004
  0.19130000000000003         -7.2180991992354393E-004
  0.19240000000000002         -2.1761799871455878E-004
  0.19350000000000001          6.1970774549990892E-004
  0.19460000000000005          8.7856390746310353E-004
  0.19570000000000004          2.5173471658490598E-004
  0.19680000000000003         -6.4256548648700118E-004
  0.19790000000000002         -9.1050314949825406E-004
  0.19900000000000001         -3.1389019568450749E-004
  0.20010000000000000          4.9305072752758861E-004
  0.20120000000000005          6.5964256646111608E-004
  0.20230000000000004          2.7839374524774030E-005
  0.20340000000000003         -7.1688921889290214E-004
  0.20450000000000002         -7.7957438770681620E-004
  0.20560000000000000         -9.3637296231463552E-005
  0.20670000000000005          6.1639607883989811E-004
  0.20780000000000004          6.0343206860125065E-004
  0.20890000000000003         -1.1721658665919676E-004
