 -0.12000000000000000          0.0000000000000000
 -0.11889999999999999          0.0000000000000000
 -0.11780000000000000          0.0000000000000000
 -0.11670000000000000          0.0000000000000000
 -0.11559999999999999          0.0000000000000000
 -0.11449999999999999          0.0000000000000000
 -0.11340000000000000          0.0000000000000000
 -0.11230000000000000          0.0000000000000000
 -0.11119999999999999          0.0000000000000000
 -0.11009999999999999          0.0000000000000000
 -0.10900000000000000         -4.4459662131170756E-034
 -0.10790000000000000         -3.4403492916575348E-032
 -0.10679999999999999         -6.5710844209553768E-031
 -0.10569999999999999         -5.9642179709874307E-030
 -0.10460000000000000         -3.2006448957522618E-029
 -0.10349999999999999         -1.0893229488030555E-028
 -0.10239999999999999         -2.2148476027707579E-028
 -0.10130000000000000         -1.3138671210191633E-028
 -0.10020000000000000          7.1820041334313990E-028
  -9.9099999999999994E-002     2.4984068425665085E-027
  -9.7999999999999990E-002     3.0251719861087446E-027
  -9.6899999999999986E-002    -3.1857822175189960E-027
  -9.5799999999999996E-002    -1.8769382925363089E-026
  -9.4699999999999993E-002    -2.8423690713563247E-026
  -9.3599999999999989E-002     6.5751155856742901E-027
  -9.2499999999999999E-002     1.0816558746575234E-025
  -9.1399999999999995E-002     1.9586852980647589E-025
  -9.0299999999999991E-002     5.5526415352406443E-026
  -8.9200000000000002E-002    -4.9437198025005453E-025
  -8.8099999999999984E-002    -1.2366345266730151E-024
  -8.6999999999999994E-002    -1.1834586949510377E-024
  -8.5899999999999990E-002     1.4763949937491003E-024
  -8.4799999999999986E-002     8.0370497976064611E-024
  -8.3699999999999997E-002     1.4014481590433108E-023
  -8.2599999999999993E-002     9.6454239818122049E-025
  -8.1499999999999989E-002    -5.5807321029361820E-023
  -8.0399999999999999E-002    -1.2840090792423018E-022
  -7.9299999999999995E-002    -4.7426705741452598E-023
  -7.8199999999999992E-002     4.1803218639630886E-022
  -7.7100000000000002E-002     1.0324651917210950E-021
  -7.5999999999999984E-002     4.1392195602284323E-022
  -7.4899999999999994E-002    -3.1848434697014501E-021
  -7.3799999999999991E-002    -7.8674836348473380E-021
  -7.2699999999999987E-002    -3.5663257992273735E-021
  -7.1599999999999997E-002     2.2004403392368487E-020
  -7.0499999999999993E-002     5.6740925869518030E-020
  -6.9399999999999989E-002     3.5513561727415079E-020
  -6.8300000000000000E-002    -1.2467670735417560E-019
  -6.7199999999999996E-002    -3.6852191343883911E-019
  -6.6099999999999992E-002    -3.2728106624120624E-019
  -6.5000000000000002E-002     5.2338002442672239E-019
  -6.3899999999999985E-002     2.0538011594387777E-018
  -6.2799999999999995E-002     2.4705690800384140E-018
  -6.1699999999999991E-002    -1.2061569257118007E-018
  -6.0599999999999994E-002    -9.4686818779740793E-018
  -5.9499999999999990E-002    -1.5011126163046836E-017
  -5.8399999999999994E-002    -3.0056871075499935E-018
  -5.7299999999999990E-002     3.4527862109278161E-017
  -5.6199999999999986E-002     7.3844491160307514E-017
  -5.5099999999999996E-002     5.1427638479769347E-017
  -5.3999999999999992E-002    -8.8951773760841189E-017
  -5.2899999999999989E-002    -2.9396437253138103E-016
  -5.1799999999999985E-002    -3.3317448057184826E-016
  -5.0699999999999995E-002     8.0393809465481868E-017
  -4.9599999999999991E-002     9.2582374024965854E-016
  -4.8499999999999988E-002     1.5149066735821730E-015
  -4.7399999999999998E-002     6.7997528604529485E-016
  -4.6299999999999994E-002    -2.1198382286325259E-015
  -4.5199999999999990E-002    -5.3094693287683396E-015
  -4.4099999999999986E-002    -4.9983367630664164E-015
  -4.2999999999999997E-002     2.2597462604205445E-015
  -4.1899999999999993E-002     1.4394189914437514E-014
  -4.0799999999999989E-002     2.0855536807078134E-014
  -3.9699999999999985E-002     7.7479916335857976E-015
  -3.8599999999999995E-002    -2.7790856231947950E-014
  -3.7499999999999992E-002    -6.3615786087285048E-014
  -3.6399999999999988E-002    -5.6877178205953782E-014
  -3.5299999999999984E-002     2.2579785873629195E-014
  -3.4199999999999994E-002     1.4535617989201027E-013
  -3.3099999999999991E-002     2.0706259786212183E-013
  -3.1999999999999987E-002     8.7912350196870520E-014
  -3.0899999999999997E-002    -2.2305983828681958E-013
  -2.9799999999999993E-002    -5.3233334624050443E-013
  -2.8699999999999989E-002    -5.0407773658292521E-013
  -2.7599999999999986E-002     7.5959231309388753E-014
  -2.6499999999999996E-002     9.8496818340398917E-013
  -2.5399999999999992E-002     1.5039190595991792E-012
  -2.4299999999999988E-002     8.4573916880187339E-013
  -2.3199999999999985E-002    -1.0739520167266092E-012
  -2.2099999999999995E-002    -3.1195892223612187E-012
  -2.0999999999999991E-002    -3.3567087911329230E-012
  -1.9899999999999987E-002    -5.1988177218048603E-013
  -1.8799999999999983E-002     4.3729412452231387E-012
  -1.7699999999999994E-002     7.7916423313340033E-012
  -1.6599999999999990E-002     5.7926805713259810E-012
  -1.5499999999999986E-002    -2.4419767423455863E-012
  -1.4399999999999996E-002    -1.2350678639527768E-011
  -1.3299999999999992E-002    -1.5771326952740417E-011
  -1.2199999999999989E-002    -6.8646672547745258E-012
  -1.1099999999999985E-002     1.1599422811148230E-011
  -9.9999999999999950E-003     2.7284874012933891E-011
  -8.8999999999999913E-003     2.5642262618807976E-011
  -7.7999999999999875E-003     1.9868217314422676E-012
  -6.6999999999999837E-003    -3.0953212215578674E-011
  -5.5999999999999939E-003    -4.8395561863534553E-011
  -4.4999999999999901E-003    -3.1244448001066516E-011
  -3.3999999999999864E-003     1.5693689403573075E-011
  -2.2999999999999826E-003     6.1081133206908333E-011
  -1.1999999999999927E-003     6.6902351714137609E-011
  -9.9999999999988987E-005     1.9544242960134461E-011
   1.0000000000000148E-003    -5.2375395687143111E-011
   2.1000000000000185E-003    -9.2757787562014471E-011
   3.2000000000000084E-003    -6.0702901039100254E-011
   4.3000000000000121E-003     2.9752627445089885E-011
   5.4000000000000159E-003     1.0908823150357350E-010
   6.5000000000000058E-003     1.0142154477366105E-010
   7.6000000000000234E-003    -8.0363918644743570E-012
   8.7000000000000133E-003    -1.4302040107772029E-010
   9.8000000000000032E-003    -1.8053486483537995E-010
   1.0900000000000021E-002    -4.9735278395690585E-011
   1.2000000000000011E-002     1.8772965126867547E-010
   1.3100000000000001E-002     3.5171185408522376E-010
   1.4200000000000018E-002     2.6528171326312133E-010
   1.5300000000000008E-002    -9.1486089537351489E-011
   1.6400000000000026E-002    -5.1718351823382136E-010
   1.7500000000000016E-002    -6.9019290283023338E-010
   1.8600000000000005E-002    -3.9279884900267348E-010
   1.9700000000000023E-002     2.9280086688565632E-010
   2.0800000000000013E-002     9.7597319115294567E-010
   2.1900000000000003E-002     1.1790550757950768E-009
   2.3000000000000020E-002     6.6119604236192231E-010
   2.4100000000000010E-002    -3.7924208218242939E-010
   2.5200000000000000E-002    -1.3841636725686612E-009
   2.6300000000000018E-002    -1.7642873828549455E-009
   2.7400000000000008E-002    -1.2590221087904752E-009
   2.8500000000000025E-002    -8.0580035699551189E-011
   2.9600000000000015E-002     1.2434029361685361E-009
   3.0700000000000005E-002     2.1832966545787258E-009
   3.1800000000000023E-002     2.4238548945731964E-009
   3.2900000000000013E-002     1.8505784682432136E-009
   3.4000000000000002E-002     4.2602699146243594E-010
   3.5100000000000020E-002    -1.7804061558379658E-009
   3.6200000000000010E-002    -4.2973313796323964E-009
   3.7300000000000028E-002    -5.9526792384190230E-009
   3.8400000000000017E-002    -5.0880433200006792E-009
   3.9500000000000007E-002    -5.8252580537043741E-010
   4.0600000000000025E-002     6.7261516356609263E-009
   4.1700000000000015E-002     1.3349247929284047E-008
   4.2800000000000005E-002     1.4311964946500666E-008
   4.3900000000000022E-002     6.2349876372991275E-009
   4.5000000000000012E-002    -9.2709742105512305E-009
   4.6100000000000002E-002    -2.4538943321772422E-008
   4.7200000000000020E-002    -2.8995197354220181E-008
   4.8300000000000010E-002    -1.5785911244847739E-008
   4.9400000000000027E-002     1.1895238571923983E-008
   5.0500000000000017E-002     3.9690473130349346E-008
   5.1600000000000007E-002     4.8770036897849423E-008
   5.2700000000000025E-002     2.7863446661058333E-008
   5.3800000000000014E-002    -1.6593205032222613E-008
   5.4900000000000004E-002    -6.0141701396787539E-008
   5.6000000000000022E-002    -7.2778803428263927E-008
   5.7100000000000012E-002    -3.8659592860312841E-008
   5.8200000000000002E-002     2.9235467380317459E-008
   5.9300000000000019E-002     9.1226873166760925E-008
   6.0400000000000009E-002     1.0249961945874020E-007
   6.1500000000000027E-002     4.3521055204109871E-008
   6.2600000000000017E-002    -6.0109080379788793E-008
   6.3700000000000007E-002    -1.4493726041564514E-007
   6.4800000000000024E-002    -1.4541211612595362E-007
   6.5900000000000014E-002    -3.9783365934908943E-008
   6.7000000000000004E-002     1.2358522383237869E-007
   6.8100000000000022E-002     2.4256581809822819E-007
   6.9200000000000012E-002     2.1923183624039666E-007
   7.0300000000000029E-002     2.9496499465153647E-008
   7.1400000000000019E-002    -2.4053892389019893E-007
   7.2500000000000009E-002    -4.2443903680577932E-007
   7.3600000000000027E-002    -3.6750395793205826E-007
   7.4700000000000016E-002    -3.4594311415503398E-008
   7.5800000000000006E-002     4.3389917436797987E-007
   7.6900000000000024E-002     7.6707505058948300E-007
   7.8000000000000014E-002     7.0436874466395238E-007
   7.9100000000000004E-002     1.6461845575577172E-007
   8.0200000000000021E-002    -6.5674043980834540E-007
   8.1300000000000011E-002    -1.3386913906288100E-006
   8.2400000000000029E-002    -1.4344516330311308E-006
   8.3500000000000019E-002    -7.3013853807424312E-007
   8.4600000000000009E-002     5.8016820503326016E-007
   8.5700000000000026E-002     1.9214585336158052E-006
   8.6800000000000016E-002     2.5866795567708323E-006
   8.7900000000000006E-002     2.1008229396102251E-006
   8.9000000000000024E-002     5.1058339067822089E-007
   9.0100000000000013E-002    -1.5736458180981572E-006
   9.1200000000000003E-002    -3.2364623621106148E-006
   9.2300000000000021E-002    -3.7030797557235928E-006
   9.3400000000000011E-002    -2.7383700853533810E-006
   9.4500000000000028E-002    -7.7100463613533066E-007
   9.5600000000000018E-002     1.3430886838250444E-006
   9.6700000000000008E-002     2.7948935894528404E-006
   9.7800000000000026E-002     3.2574716897215694E-006
   9.8900000000000016E-002     3.0101286938588601E-006
  0.10000000000000001          2.6584973511489807E-006
  0.10110000000000002          2.6163952497881837E-006
  0.10220000000000001          2.6946372599923052E-006
  0.10330000000000003          2.1123512397025479E-006
  0.10440000000000002         -2.8420374942328408E-009
  0.10550000000000001         -3.8932239476707764E-006
  0.10660000000000003         -8.7014723249012604E-006
  0.10770000000000002         -1.2645061360672116E-005
  0.10880000000000001         -1.3863578715245239E-005
  0.10990000000000003         -1.1521330634423066E-005
  0.11100000000000002         -6.5007138800865505E-006
  0.11210000000000001         -1.1733301334970747E-006
  0.11320000000000002          1.7514721548650414E-006
  0.11430000000000001          7.0597144485873287E-007
  0.11540000000000003         -3.8202952055144124E-006
  0.11650000000000002         -9.5787745522102341E-006
  0.11760000000000001         -1.4024352822161745E-005
  0.11870000000000003         -1.6122336091939360E-005
  0.11980000000000002         -1.7338541510980576E-005
  0.12090000000000001         -2.1025669411756098E-005
  0.12200000000000003         -3.0369150408660062E-005
  0.12310000000000001         -4.6042216126807034E-005
  0.12420000000000003         -6.5105188696179539E-005
  0.12530000000000002         -8.2122533058281988E-005
  0.12640000000000001         -9.2192574811633676E-005
  0.12750000000000003         -9.4308205007109791E-005
  0.12860000000000002         -9.3005284725222737E-005
  0.12970000000000001         -9.7003954579122365E-005
  0.13080000000000003         -1.1522201384650543E-004
  0.13190000000000002         -1.5215824532788247E-004
  0.13300000000000001         -2.0526301523204893E-004
  0.13410000000000000         -2.6600545970723033E-004
  0.13520000000000004         -3.2434263266623020E-004
  0.13630000000000003         -3.7429662188515067E-004
  0.13740000000000002         -4.1754308040253818E-004
  0.13850000000000001         -4.6291231410577893E-004
  0.13960000000000000         -5.2190828137099743E-004
  0.14070000000000005         -6.0272263363003731E-004
  0.14180000000000004         -7.0612819399684668E-004
  0.14290000000000003         -8.2565943012014031E-004
  0.14400000000000002         -9.5199188217520714E-004
  0.14510000000000001         -1.0789812076836824E-003
  0.14620000000000000         -1.2077947612851858E-003
  0.14730000000000004         -1.3465556548908353E-003
  0.14840000000000003         -1.5056746779009700E-003
  0.14950000000000002         -1.6915109008550644E-003
  0.15060000000000001         -1.9022155320271850E-003
  0.15170000000000000         -2.1283042151480913E-003
  0.15280000000000005         -2.3576593957841396E-003
  0.15390000000000004         -2.5820073205977678E-003
  0.15500000000000003         -2.8010965324938297E-003
  0.15610000000000002         -3.0216746963560581E-003
  0.15720000000000001         -3.2521588727831841E-003
  0.15830000000000000         -3.4958031028509140E-003
  0.15940000000000004         -3.7467821966856718E-003
  0.16050000000000003         -3.9914869703352451E-003
  0.16160000000000002         -4.2139315046370029E-003
  0.16270000000000001         -4.4025639072060585E-003
  0.16380000000000000         -4.5538893900811672E-003
  0.16490000000000005         -4.6701636165380478E-003
  0.16600000000000004         -4.7527719289064407E-003
  0.16710000000000003         -4.7962828539311886E-003
  0.16820000000000002         -4.7850110568106174E-003
  0.16930000000000001         -4.6973824501037598E-003
  0.17040000000000000         -4.5132189989089966E-003
  0.17150000000000004         -4.2220624163746834E-003
  0.17260000000000003         -3.8259399589151144E-003
  0.17370000000000002         -3.3341250382363796E-003
  0.17480000000000001         -2.7542819734662771E-003
  0.17590000000000000         -2.0832498557865620E-003
  0.17700000000000005         -1.3044667430222034E-003
  0.17810000000000004         -3.9304464007727802E-004
  0.17920000000000003          6.7222939105704427E-004
  0.18030000000000002          1.8976415740326047E-003
  0.18140000000000001          3.2697694841772318E-003
  0.18250000000000000          4.7595733776688576E-003
  0.18360000000000004          6.3330973498523235E-003
  0.18470000000000003          7.9657556489109993E-003
  0.18580000000000002          9.6480650827288628E-003
  0.18690000000000001          1.1380546726286411E-002
  0.18800000000000000          1.3163513503968716E-002
  0.18910000000000005          1.4985905960202217E-002
  0.19020000000000004          1.6818171367049217E-002
  0.19130000000000003          1.8615607172250748E-002
  0.19240000000000002          2.0326476544141769E-002
  0.19350000000000001          2.1903749555349350E-002
  0.19460000000000005          2.3310963064432144E-002
  0.19570000000000004          2.4520916864275932E-002
  0.19680000000000003          2.5509556755423546E-002
  0.19790000000000002          2.6249747723340988E-002
  0.19900000000000001          2.6706999167799950E-002
  0.20010000000000000          2.6842502877116203E-002
  0.20120000000000005          2.6619838550686836E-002
  0.20230000000000004          2.6013204827904701E-002
  0.20340000000000003          2.5010341778397560E-002
  0.20450000000000002          2.3609278723597527E-002
  0.20560000000000000          2.1812627092003822E-002
  0.20670000000000005          1.9622335210442543E-002
  0.20780000000000004          1.7039652913808823E-002
  0.20890000000000003          1.4069876633584499E-002
