 -0.12000000000000000          0.0000000000000000
 -0.11889999999999999          0.0000000000000000
 -0.11780000000000000          0.0000000000000000
 -0.11670000000000000          0.0000000000000000
 -0.11559999999999999         -1.1461033402708487E-014
 -0.11449999999999999         -3.2763346208145375E-014
 -0.11340000000000000          1.0697678501500260E-013
 -0.11230000000000000          7.9669132619156202E-013
 -0.11119999999999999          1.9357560259586348E-012
 -0.11009999999999999          1.6188274679085346E-012
 -0.10900000000000000         -3.5569858690409628E-012
 -0.10790000000000000         -1.4074137688613320E-011
 -0.10679999999999999         -2.1258748233998759E-011
 -0.10569999999999999         -8.1320566600040500E-012
 -0.10460000000000000          3.5269252796066297E-011
 -0.10349999999999999          8.9705243233595411E-011
 -0.10239999999999999          1.0213768025790770E-010
 -0.10130000000000000          1.9219513133772459E-011
 -0.10020000000000000         -1.5376348805329343E-010
  -9.9099999999999994E-002    -3.1844102355016446E-010
  -9.7999999999999990E-002    -3.2281971540371046E-010
  -9.6899999999999986E-002    -7.0631667181686453E-011
  -9.5799999999999996E-002     3.7186154155932627E-010
  -9.4699999999999993E-002     7.6395101356041550E-010
  -9.3599999999999989E-002     8.0916162659150359E-010
  -9.2499999999999999E-002     3.4608882426567789E-010
  -9.1399999999999995E-002    -5.0631582260152186E-010
  -9.0299999999999991E-002    -1.3495673467645020E-009
  -8.9200000000000002E-002    -1.6765887567160576E-009
  -8.8099999999999984E-002    -1.1467975458145929E-009
  -8.6999999999999994E-002     1.6827526871932008E-010
  -8.5899999999999990E-002     1.7223540371702484E-009
  -8.4799999999999986E-002     2.7083011389095191E-009
  -8.3699999999999997E-002     2.4884680982495411E-009
  -8.2599999999999993E-002     1.0024597818514280E-009
  -8.1499999999999989E-002    -1.1382178533025922E-009
  -8.0399999999999999E-002    -2.9741034079933115E-009
  -7.9299999999999995E-002    -3.7222200877096157E-009
  -7.8199999999999992E-002    -3.1102240782843182E-009
  -7.7100000000000002E-002    -1.3202261506251034E-009
  -7.5999999999999984E-002     1.2508787339271521E-009
  -7.4899999999999994E-002     4.0282475133324169E-009
  -7.3799999999999991E-002     6.0338845031537858E-009
  -7.2699999999999987E-002     5.8777889222483282E-009
  -7.1599999999999997E-002     2.5028175087982163E-009
  -7.0499999999999993E-002    -3.5284233312893321E-009
  -6.9399999999999989E-002    -9.3726582051090190E-009
  -6.8300000000000000E-002    -1.1063066907013308E-008
  -6.7199999999999996E-002    -6.2894378594080536E-009
  -6.6099999999999992E-002     3.1891755902790919E-009
  -6.5000000000000002E-002     1.1862300475229404E-008
  -6.3899999999999985E-002     1.3973117773957711E-008
  -6.2799999999999995E-002     7.8172117667918428E-009
  -6.1699999999999991E-002    -2.7136315416953494E-009
  -6.0599999999999994E-002    -1.0900897073895521E-008
  -5.9499999999999990E-002    -1.2167224561210332E-008
  -5.8399999999999994E-002    -7.1086492248184641E-009
  -5.7299999999999990E-002    -1.5652346085914814E-010
  -5.6199999999999986E-002     4.5848205232346118E-009
  -5.5099999999999996E-002     6.3036043052022706E-009
  -5.3999999999999992E-002     6.7031331596467680E-009
  -5.2899999999999989E-002     6.8762022742419049E-009
  -5.1799999999999985E-002     5.5763300643718594E-009
  -5.0699999999999995E-002     9.1484136932606930E-010
  -4.9599999999999991E-002    -6.4574612324008740E-009
  -4.8499999999999988E-002    -1.2523777570550010E-008
  -4.7399999999999998E-002    -1.2873239363386801E-008
  -4.6299999999999994E-002    -6.6846261859154765E-009
  -4.5199999999999990E-002     2.4471580317708685E-009
  -4.4099999999999986E-002     9.7806731602645414E-009
  -4.2999999999999997E-002     1.3268109277930762E-008
  -4.1899999999999993E-002     1.3807972543133928E-008
  -4.0799999999999989E-002     1.1984433889722368E-008
  -3.9699999999999985E-002     5.8432720884127320E-009
  -3.8599999999999995E-002    -6.5021912298846019E-009
  -3.7499999999999992E-002    -2.1551134210540113E-008
  -3.6399999999999988E-002    -2.9166097093025201E-008
  -3.5299999999999984E-002    -1.9465675293872664E-008
  -3.4199999999999994E-002     6.7251084701069885E-009
  -3.3099999999999991E-002     3.4283040406535292E-008
  -3.1999999999999987E-002     4.3098307145328363E-008
  -3.0899999999999997E-002     2.4350478966539413E-008
  -2.9799999999999993E-002    -1.0393724991786257E-008
  -2.8699999999999989E-002    -3.6652878065979166E-008
  -2.7599999999999986E-002    -3.5887506300014138E-008
  -2.6499999999999996E-002    -9.7106385155143471E-009
  -2.5399999999999992E-002     2.2743755323517689E-008
  -2.4299999999999988E-002     4.1114105897577247E-008
  -2.3199999999999985E-002     3.8478649599937853E-008
  -2.2099999999999995E-002     2.2077170314105388E-008
  -2.0999999999999991E-002     2.4195601078247364E-009
  -1.9899999999999987E-002    -1.5869819236513649E-008
  -1.8799999999999983E-002    -3.2060494703500808E-008
  -1.7699999999999994E-002    -4.0918195054473472E-008
  -1.6599999999999990E-002    -3.0987827415174252E-008
  -1.5499999999999986E-002     4.7594692631491853E-009
  -1.4399999999999996E-002     5.5796540721075871E-008
  -1.3299999999999992E-002     9.4464930100457423E-008
  -1.2199999999999989E-002     9.4234046343899536E-008
  -1.1099999999999985E-002     5.1303100434552107E-008
  -9.9999999999999950E-003    -1.0749186429848123E-008
  -8.8999999999999913E-003    -5.8680598158389330E-008
  -7.7999999999999875E-003    -7.3610500805898482E-008
  -6.6999999999999837E-003    -5.9426341181278985E-008
  -5.5999999999999939E-003    -3.0065855582961376E-008
  -4.4999999999999901E-003     7.8068138620324135E-009
  -3.3999999999999864E-003     5.6323450792206131E-008
  -2.2999999999999826E-003     1.1073237260461610E-007
  -1.1999999999999927E-003     1.4676743376185186E-007
  -9.9999999999988987E-005     1.3122310349444888E-007
   1.0000000000000148E-003     5.1657323751896911E-008
   2.1000000000000185E-003    -6.2442595094580611E-008
   3.2000000000000084E-003    -1.5157189636738622E-007
   4.3000000000000121E-003    -1.6592713336649467E-007
   5.4000000000000159E-003    -1.0014069573571760E-007
   6.5000000000000058E-003     6.4526219922811379E-009
   7.6000000000000234E-003     1.0193672750347105E-007
   8.7000000000000133E-003     1.5523389151894662E-007
   9.8000000000000032E-003     1.6266888280824787E-007
   1.0900000000000021E-002     1.3030407330916205E-007
   1.2000000000000011E-002     5.9319113177025429E-008
   1.3100000000000001E-002    -4.5792180713988273E-008
   1.4200000000000018E-002    -1.5730303459804418E-007
   1.5300000000000008E-002    -2.2295171220321208E-007
   1.6400000000000026E-002    -1.9715852772606013E-007
   1.7500000000000016E-002    -8.1542765428821440E-008
   1.8600000000000005E-002     6.5629158996216574E-008
   1.9700000000000023E-002     1.6629140020540945E-007
   2.0800000000000013E-002     1.7677298558282928E-007
   2.1900000000000003E-002     1.1204932093278330E-007
   2.3000000000000020E-002     2.0862083616179916E-008
   2.4100000000000010E-002    -5.9773938687612826E-008
   2.5200000000000000E-002    -1.2469453736230207E-007
   2.6300000000000018E-002    -1.7994121037645527E-007
   2.7400000000000008E-002    -2.1114925630172365E-007
   2.8500000000000025E-002    -1.8356769260208239E-007
   2.9600000000000015E-002    -8.0016988590614346E-008
   3.0700000000000005E-002     6.3512544556942885E-008
   3.1800000000000023E-002     1.6903463517792261E-007
   3.2900000000000013E-002     1.7354237513700355E-007
   3.4000000000000002E-002     8.0996940710065246E-008
   3.5100000000000020E-002    -4.1994873356543394E-008
   3.6200000000000010E-002    -1.2407822680415848E-007
   3.7300000000000028E-002    -1.4482792209946638E-007
   3.8400000000000017E-002    -1.3583232316705107E-007
   3.9500000000000007E-002    -1.3122659936470882E-007
   4.0600000000000025E-002    -1.2444111519016587E-007
   4.1700000000000015E-002    -7.9184687251654395E-008
   4.2800000000000005E-002     1.7922680228821264E-008
   4.3900000000000022E-002     1.2335524957052257E-007
   4.5000000000000012E-002     1.6471864228151389E-007
   4.6100000000000002E-002     1.0742300560195872E-007
   4.7200000000000020E-002    -8.1350659542067660E-009
   4.8300000000000010E-002    -1.0080034940074256E-007
   4.9400000000000027E-002    -1.2260699122634833E-007
   5.0500000000000017E-002    -9.7354899253332405E-008
   5.1600000000000007E-002    -8.4508045006259636E-008
   5.2700000000000025E-002    -1.0778278181078349E-007
   5.3800000000000014E-002    -1.2610018984560156E-007
   5.4900000000000004E-002    -8.1086447778488946E-008
   5.6000000000000022E-002     2.8929452611237139E-008
   5.7100000000000012E-002     1.2990599884687981E-007
   5.8200000000000002E-002     1.3479966298746149E-007
   5.9300000000000019E-002     2.8666862661452797E-008
   6.0400000000000009E-002    -1.1301859359491573E-007
   6.1500000000000027E-002    -1.9379983484668628E-007
   6.2600000000000017E-002    -1.8472070451025502E-007
   6.3700000000000007E-002    -1.4263520142776542E-007
   6.4800000000000024E-002    -1.3938867482465866E-007
   6.5900000000000014E-002    -1.7814012664985057E-007
   6.7000000000000004E-002    -1.8955867631120782E-007
   6.8100000000000022E-002    -1.1280376810418602E-007
   6.9200000000000012E-002     2.4632553774495136E-008
   7.0300000000000029E-002     1.1683233225312506E-007
   7.1400000000000019E-002     7.9167051580952830E-008
   7.2500000000000009E-002    -6.5283522587833431E-008
   7.3600000000000027E-002    -2.0204745965202164E-007
   7.4700000000000016E-002    -2.3185901909528184E-007
   7.5800000000000006E-002    -1.6082930187621969E-007
   7.6900000000000024E-002    -8.0208202746234747E-008
   7.8000000000000014E-002    -6.1021466990496265E-008
   7.9100000000000004E-002    -7.5828772594377369E-008
   8.0200000000000021E-002    -3.3952147759919171E-008
   8.1300000000000011E-002     1.0729168309353554E-007
   8.2400000000000029E-002     2.7759114118452999E-007
   8.3500000000000019E-002     3.5042316426370235E-007
   8.4600000000000009E-002     2.6846427658711036E-007
   8.5700000000000026E-002     1.0884333789817902E-007
   8.6800000000000016E-002     1.7017537601304866E-008
   8.7900000000000006E-002     7.1468484463821369E-008
   8.9000000000000024E-002     2.1541377748235391E-007
   9.0100000000000013E-002     3.2506363822903950E-007
   9.1200000000000003E-002     3.4123263503715862E-007
   9.2300000000000021E-002     3.2458623877573700E-007
   9.3400000000000011E-002     3.7621239812324347E-007
   9.4500000000000028E-002     5.1235969067420228E-007
   9.5600000000000018E-002     6.3090567437029677E-007
   9.6700000000000008E-002     6.1067851220286684E-007
   9.7800000000000026E-002     4.4419849132282252E-007
   9.8900000000000016E-002     2.5936924430425279E-007
  0.10000000000000001          2.0015194479583442E-007
  0.10110000000000002          2.8709203547805373E-007
  0.10220000000000001          4.0146846913557965E-007
  0.10330000000000003          4.1004631157193216E-007
  0.10440000000000002          3.0096936143308994E-007
  0.10550000000000001          1.8939384460736619E-007
  0.10660000000000003          1.8760347586521675E-007
  0.10770000000000002          2.7700232863026031E-007
  0.10880000000000001          3.2044053455138055E-007
  0.10990000000000003          2.0443287951366074E-007
  0.11100000000000002         -3.5010444321414980E-008
  0.11210000000000001         -2.4089439421004499E-007
  0.11320000000000002         -2.9163334147597197E-007
  0.11430000000000001         -2.1959904472623748E-007
  0.11540000000000003         -1.7091903714572254E-007
  0.11650000000000002         -2.4760231553955236E-007
  0.11760000000000001         -3.9832710285736539E-007
  0.11870000000000003         -4.7601298547306214E-007
  0.11980000000000002         -4.0252845678878657E-007
  0.12090000000000001         -2.6251399276588927E-007
  0.12200000000000003         -2.2476515937341901E-007
  0.12310000000000001         -3.6902875422129000E-007
  0.12420000000000003         -5.9709731203838601E-007
  0.12530000000000002         -7.2557384100946365E-007
  0.12640000000000001         -6.6613370108825620E-007
  0.12750000000000003         -5.0847023658207036E-007
  0.12860000000000002         -4.1879286527546356E-007
  0.12970000000000001         -4.6169793677108828E-007
  0.13080000000000003         -5.3611347539117560E-007
  0.13190000000000002         -4.9158512638314278E-007
  0.13300000000000001         -3.0056520472498960E-007
  0.13410000000000000         -1.0093559410506714E-007
  0.13520000000000004         -5.9367309290792036E-008
  0.13630000000000003         -1.9696277320235822E-007
  0.13740000000000002         -3.6157285876470269E-007
  0.13850000000000001         -3.7771795291519084E-007
  0.13960000000000000         -2.1846304321115895E-007
  0.14070000000000005         -2.3663444537191936E-008
  0.14180000000000004          5.2713499343326475E-008
  0.14290000000000003          4.1707548525948823E-009
  0.14400000000000002         -2.9114106681049634E-008
  0.14510000000000001          7.9893219151472294E-008
  0.14620000000000000          2.9739413776042056E-007
  0.14730000000000004          4.5385505131889659E-007
  0.14840000000000003          4.1822232788035762E-007
  0.14950000000000002          2.3676689409057872E-007
  0.15060000000000001          8.9294573513143405E-008
  0.15170000000000000          1.0878169121042447E-007
  0.15280000000000005          2.5187955543515272E-007
  0.15390000000000004          3.5485336979945714E-007
  0.15500000000000003          3.1321349069912685E-007
  0.15610000000000002          1.9239176651808521E-007
  0.15720000000000001          1.5334590841575846E-007
  0.15830000000000000          2.7253642542746093E-007
  0.15940000000000004          4.4931300635653315E-007
  0.16050000000000003          5.0304782917010016E-007
  0.16160000000000002          3.5833070910484821E-007
  0.16270000000000001          1.2297340390432510E-007
  0.16380000000000000         -2.1489102053351417E-008
  0.16490000000000005         -1.3097081197344096E-009
  0.16600000000000004          8.5666194138411811E-008
  0.16710000000000003          8.8391537644838536E-008
  0.16820000000000002         -2.7293852511434125E-008
  0.16930000000000001         -1.4053240704470227E-007
  0.17040000000000000         -1.0925672455641688E-007
  0.17150000000000004          6.7368688405622379E-008
  0.17260000000000003          2.3379698177450337E-007
  0.17370000000000002          2.2992183801306965E-007
  0.17480000000000001          5.1625420383061282E-008
  0.17590000000000000         -1.4786293434099207E-007
  0.17700000000000005         -2.1509707437417092E-007
  0.17810000000000004         -1.4565083006345958E-007
  0.17920000000000003         -7.0706178689761146E-008
  0.18030000000000002         -1.0119111237827383E-007
  0.18140000000000001         -2.0129238009758410E-007
  0.18250000000000000         -2.2823337531008292E-007
  0.18360000000000004         -9.4784091686506144E-008
  0.18470000000000003          1.2196387899621186E-007
  0.18580000000000002          2.4581706270510040E-007
  0.18690000000000001          1.7489411163751356E-007
  0.18800000000000000         -1.8006483415433649E-008
  0.18910000000000005         -1.6233011024269217E-007
  0.19020000000000004         -1.6125663648836053E-007
  0.19130000000000003         -7.7480265758822497E-008
  0.19240000000000002         -4.7720927653926992E-008
  0.19350000000000001         -1.2375969049571722E-007
  0.19460000000000005         -2.1339528188946133E-007
  0.19570000000000004         -1.8391644118764816E-007
  0.19680000000000003         -1.4148626270582554E-008
  0.19790000000000002          1.7105114125115506E-007
  0.19900000000000001          2.2274343791650608E-007
  0.20010000000000000          1.1707066249755371E-007
  0.20120000000000005         -2.6001830022437389E-008
  0.20230000000000004         -7.1858529793189518E-008
  0.20340000000000003         -8.4681950340836920E-009
  0.20450000000000002          5.3788738796356483E-008
  0.20560000000000000          1.4798088976419876E-008
  0.20670000000000005         -9.7359283302012045E-008
  0.20780000000000004         -1.5250473950345622E-007
  0.20890000000000003         -5.9948867203729606E-008
