 -0.12000000000000000          0.0000000000000000
 -0.11889999999999999          0.0000000000000000
 -0.11780000000000000          0.0000000000000000
 -0.11670000000000000          0.0000000000000000
 -0.11559999999999999          0.0000000000000000
 -0.11449999999999999          0.0000000000000000
 -0.11340000000000000          0.0000000000000000
 -0.11230000000000000          0.0000000000000000
 -0.11119999999999999          0.0000000000000000
 -0.11009999999999999          0.0000000000000000
 -0.10900000000000000         -9.0475405285243224E-036
 -0.10790000000000000          1.2764162805588908E-034
 -0.10679999999999999         -5.5630755044084471E-033
 -0.10569999999999999         -1.5007238095256623E-032
 -0.10460000000000000          4.9855277996058006E-032
 -0.10349999999999999         -3.0808228163158821E-031
 -0.10239999999999999         -3.4510847759350636E-030
 -0.10130000000000000         -3.6850758602233061E-030
 -0.10020000000000000          3.8246001559709932E-029
  -9.9099999999999994E-002     1.1095808429230927E-028
  -9.7999999999999990E-002    -2.0451695635515967E-028
  -9.6899999999999986E-002    -1.4743765059227018E-027
  -9.5799999999999996E-002    -1.1511504759546113E-027
  -9.4699999999999993E-002     9.5468193268879730E-027
  -9.3599999999999989E-002     2.8409411098583582E-026
  -9.2499999999999999E-002    -6.0428705936612891E-027
  -9.1399999999999995E-002    -1.9410548731306515E-025
  -9.0299999999999991E-002    -3.7116704312315142E-025
  -8.9200000000000002E-002     3.1252440532799238E-025
  -8.8099999999999984E-002     2.6180025469182871E-024
  -8.6999999999999994E-002     3.8669488257390866E-024
  -8.5899999999999990E-002    -4.5039871388630729E-024
  -8.4799999999999986E-002    -2.6845021801648796E-023
  -8.3699999999999997E-002    -3.5220181327537508E-023
  -8.2599999999999993E-002     4.0479491739097027E-023
  -8.1499999999999989E-002     2.2278333158139498E-022
  -8.0399999999999999E-002     2.9041244009486474E-022
  -7.9299999999999995E-002    -2.5053293387217347E-022
  -7.8199999999999992E-002    -1.5402439249809617E-021
  -7.7100000000000002E-002    -2.1586574593246206E-021
  -7.5999999999999984E-002     9.7338276633785795E-022
  -7.4899999999999994E-002     8.9575283520203664E-021
  -7.3799999999999991E-002     1.4211959740922627E-020
  -7.2699999999999987E-002    -4.1423553138811221E-022
  -7.1599999999999997E-002    -4.3610929678924700E-020
  -7.0499999999999993E-002    -8.1599700142434003E-020
  -6.9399999999999989E-002    -2.9121562318002771E-020
  -6.8300000000000000E-002     1.7364808728869643E-019
  -6.7199999999999996E-002     4.0399943141729705E-019
  -6.6099999999999992E-002     2.8618802587927894E-019
  -6.5000000000000002E-002    -5.2856804952986669E-019
  -6.3899999999999985E-002    -1.7056129222695347E-018
  -6.2799999999999995E-002    -1.7926968427978923E-018
  -6.1699999999999991E-002     9.3750768790866599E-019
  -6.0599999999999994E-002     6.0299717168120168E-018
  -5.9499999999999990E-002     8.6474156068008058E-018
  -5.8399999999999994E-002     1.4729676512059597E-018
  -5.7299999999999990E-002    -1.7152279869917898E-017
  -5.6199999999999986E-002    -3.3799036580280139E-017
  -5.5099999999999996E-002    -2.1886006213709811E-017
  -5.3999999999999992E-002     3.4932515556216652E-017
  -5.2899999999999989E-002     1.0805845477073405E-016
  -5.1799999999999985E-002     1.1507947116585555E-016
  -5.0699999999999995E-002    -2.3948620775780188E-017
  -4.9599999999999991E-002    -2.7626463971665717E-016
  -4.8499999999999988E-002    -4.2773014490238509E-016
  -4.7399999999999998E-002    -1.8648111930628166E-016
  -4.6299999999999994E-002     5.1625954039012201E-016
  -4.5199999999999990E-002     1.2364047816238008E-015
  -4.4099999999999986E-002     1.1140515076676276E-015
  -4.2999999999999997E-002    -4.3401113243429215E-016
  -4.1899999999999993E-002    -2.7825570183225273E-015
  -4.0799999999999989E-002    -3.8600523839316721E-015
  -3.9699999999999985E-002    -1.4293652397554348E-015
  -3.8599999999999995E-002     4.4653573746326457E-015
  -3.7499999999999992E-002     9.8603198563497300E-015
  -3.6399999999999988E-002     8.4912062935939801E-015
  -3.5299999999999984E-002    -2.8964003640158734E-015
  -3.4199999999999994E-002    -1.8970371809339491E-014
  -3.3099999999999991E-002    -2.5922499756014621E-014
  -3.1999999999999987E-002    -1.0747163352124982E-014
  -3.0899999999999997E-002     2.4631553781763287E-014
  -2.9799999999999993E-002     5.6468579676593675E-014
  -2.8699999999999989E-002     5.0934093504288389E-014
  -2.7599999999999986E-002    -7.2745527321133735E-015
  -2.6499999999999996E-002    -8.9635567577291825E-014
  -2.5399999999999992E-002    -1.2920770681677796E-013
  -2.4299999999999988E-002    -6.6871787512794156E-014
  -2.3199999999999985E-002     8.7531144713024617E-014
  -2.2099999999999995E-002     2.3229733566408617E-013
  -2.0999999999999991E-002     2.2906912369551058E-013
  -1.9899999999999987E-002     1.7367324687211048E-014
  -1.8799999999999983E-002    -2.9602451674833052E-013
  -1.7699999999999994E-002    -4.6832595310478120E-013
  -1.6599999999999990E-002    -2.9139830739349781E-013
  -1.5499999999999986E-002     2.0451048081578105E-013
  -1.4399999999999996E-002     6.9157765451854925E-013
  -1.3299999999999992E-002     7.3696734478878589E-013
  -1.2199999999999989E-002     1.5769805979722745E-013
  -1.1099999999999985E-002    -7.3289307565491124E-013
  -9.9999999999999950E-003    -1.2481311557205332E-012
  -8.8999999999999913E-003    -8.2670757175704046E-013
  -7.7999999999999875E-003     4.2846794363372853E-013
  -6.6999999999999837E-003     1.6467338560463562E-012
  -5.5999999999999939E-003     1.7443018600696303E-012
  -4.4999999999999901E-003     3.2938484838956894E-013
  -3.3999999999999864E-003    -1.7548107064668805E-012
  -2.2999999999999826E-003    -2.8375387976786737E-012
  -1.1999999999999927E-003    -1.6780098361160456E-012
  -9.9999999999988987E-005     1.3144107113491343E-012
   1.0000000000000148E-003     3.9905548483709641E-012
   2.1000000000000185E-003     3.8840085661573376E-012
   3.2000000000000084E-003     2.9331021660951306E-013
   4.3000000000000121E-003    -4.6279451625108603E-012
   5.4000000000000159E-003    -6.9784525380534035E-012
   6.5000000000000058E-003    -4.0128490808033490E-012
   7.6000000000000234E-003     3.2088051833689679E-012
   8.7000000000000133E-003     9.7533153428641661E-012
   9.8000000000000032E-003     1.0005369796561858E-011
   1.0900000000000021E-002     2.1889111617018342E-012
   1.2000000000000011E-002    -9.2677462926182841E-012
   1.3100000000000001E-002    -1.5974577563526715E-011
   1.4200000000000018E-002    -1.1569607251404879E-011
   1.5300000000000008E-002     2.6966725293758875E-012
   1.6400000000000026E-002     1.7453826578472942E-011
   1.7500000000000016E-002     2.1206389075323351E-011
   1.8600000000000005E-002     9.1896342965802624E-012
   1.9700000000000023E-002    -1.1604323404967865E-011
   2.0800000000000013E-002    -2.6041148404321035E-011
   2.1900000000000003E-002    -2.1715134898570021E-011
   2.3000000000000020E-002     5.2013547548884764E-013
   2.4100000000000010E-002     2.5060634123441616E-011
   2.5200000000000000E-002     3.1931370741977716E-011
   2.6300000000000018E-002     1.2585437032808233E-011
   2.7400000000000008E-002    -2.0979554898881148E-011
   2.8500000000000025E-002    -4.2561856816725196E-011
   2.9600000000000015E-002    -3.1118885246428363E-011
   3.0700000000000005E-002     1.0537094634333055E-011
   3.1800000000000023E-002     5.3388508891583086E-011
   3.2900000000000013E-002     6.1249942617802589E-011
   3.4000000000000002E-002     1.9466154382863365E-011
   3.5100000000000020E-002    -4.8617811165829750E-011
   3.6200000000000010E-002    -9.3269350576186127E-011
   3.7300000000000028E-002    -7.3753836371537318E-011
   3.8400000000000017E-002     7.0446396112366916E-012
   3.9500000000000007E-002     9.7019274558629576E-011
   4.0600000000000025E-002     1.2782742919714707E-010
   4.1700000000000015E-002     6.6423179456709391E-011
   4.2800000000000005E-002    -5.3185671144984070E-011
   4.3900000000000022E-002    -1.4653635249661789E-010
   4.5000000000000012E-002    -1.3791541519925232E-010
   4.6100000000000002E-002    -2.1392530108466090E-011
   4.7200000000000020E-002     1.2468839849510971E-010
   4.8300000000000010E-002     1.8808091195587906E-010
   4.9400000000000027E-002     1.0707607023263677E-010
   5.0500000000000017E-002    -7.3355259366802983E-011
   5.1600000000000007E-002    -2.2235614738352893E-010
   5.2700000000000025E-002    -2.1512970571624379E-010
   5.3800000000000014E-002    -3.2903898355973737E-011
   5.4900000000000004E-002     2.0723070481842853E-010
   5.6000000000000022E-002     3.2576580322185578E-010
   5.7100000000000012E-002     2.1335257172072630E-010
   5.8200000000000002E-002    -7.4250744441783922E-011
   5.9300000000000019E-002    -3.3862593284972320E-010
   6.0400000000000009E-002    -3.7604716562888996E-010
   6.1500000000000027E-002    -1.3627300676777310E-010
   6.2600000000000017E-002     2.1967440366754687E-010
   6.3700000000000007E-002     4.2133005417888114E-010
   6.4800000000000024E-002     2.9046284821809820E-010
   6.5900000000000014E-002    -1.0376521863975086E-010
   6.7000000000000004E-002    -4.6527284802699853E-010
   6.8100000000000022E-002    -4.7536602432174391E-010
   6.9200000000000012E-002    -4.5950541982531234E-011
   7.0300000000000029E-002     5.6972110362707440E-010
   7.1400000000000019E-002     9.1524915424301412E-010
   7.2500000000000009E-002     6.4702387891912849E-010
   7.3600000000000027E-002    -1.8785327460246748E-010
   7.4700000000000016E-002    -1.1243737052524239E-009
   7.5800000000000006E-002    -1.5518673013303896E-009
   7.6900000000000024E-002    -1.1178795666921815E-009
   7.8000000000000014E-002     1.4524006129723599E-011
   7.9100000000000004E-002     1.2467566978813238E-009
   8.0200000000000021E-002     1.9187404998177726E-009
   8.1300000000000011E-002     1.7197624435638659E-009
   8.2400000000000029E-002     8.4756873741653749E-010
   8.3500000000000019E-002    -1.8895318643075143E-010
   8.4600000000000009E-002    -9.6018315520751685E-010
   8.5700000000000026E-002    -1.3881413796212883E-009
   8.6800000000000016E-002    -1.6841555927626928E-009
   8.7900000000000006E-002    -2.0097774555694059E-009
   8.9000000000000024E-002    -2.1631356705853477E-009
   9.0100000000000013E-002    -1.6038824712794053E-009
   9.1200000000000003E-002     1.2462697540627232E-010
   9.2300000000000021E-002     2.8576410127101326E-009
   9.3400000000000011E-002     5.5957074529544570E-009
   9.4500000000000028E-002     6.8800960484338702E-009
   9.5600000000000018E-002     5.6084412669576977E-009
   9.6700000000000008E-002     1.7850725342327678E-009
   9.7800000000000026E-002    -3.3207492311504438E-009
   9.8900000000000016E-002    -7.7717761115536632E-009
  0.10000000000000001         -9.9680894649623042E-009
  0.10110000000000002         -9.4240046877303030E-009
  0.10220000000000001         -6.8331482694361512E-009
  0.10330000000000003         -3.4370697399310757E-009
  0.10440000000000002         -1.9458856748144626E-010
  0.10550000000000001          2.6480169168507928E-009
  0.10660000000000003          5.3434612290459427E-009
  0.10770000000000002          8.0854256623297260E-009
  0.10880000000000001          1.0694767738073097E-008
  0.10990000000000003          1.2922332537357306E-008
  0.11100000000000002          1.5164463462724598E-008
  0.11210000000000001          1.8914123600666244E-008
  0.11320000000000002          2.6331033353699240E-008
  0.11430000000000001          3.8947089109342414E-008
  0.11540000000000003          5.6294620520702665E-008
  0.11650000000000002          7.5539702493188088E-008
  0.11760000000000001          9.2694818931704503E-008
  0.11870000000000003          1.0493705104863693E-007
  0.11980000000000002          1.1268974731137860E-007
  0.12090000000000001          1.2011159356006829E-007
  0.12200000000000003          1.3358348383007979E-007
  0.12310000000000001          1.5909070327779773E-007
  0.12420000000000003          2.0014580570659746E-007
  0.12530000000000002          2.5751191401468532E-007
  0.12640000000000001          3.3069795790652279E-007
  0.12750000000000003          4.1992402088908420E-007
  0.12860000000000002          5.2695321528517525E-007
  0.12970000000000001          6.5413655647716951E-007
  0.13080000000000003          8.0255415468855062E-007
  0.13190000000000002          9.7108761565323221E-007
  0.13300000000000001          1.1578175644899602E-006
  0.13410000000000000          1.3634850120070041E-006
  0.13520000000000004          1.5950158740452025E-006
  0.13630000000000003          1.8666044070414500E-006
  0.13740000000000002          2.1970856778352754E-006
  0.13850000000000001          2.6046143375424435E-006
  0.13960000000000000          3.1014888008940034E-006
  0.14070000000000005          3.6920650927640963E-006
  0.14180000000000004          4.3749123506131582E-006
  0.14290000000000003          5.1478464229148813E-006
  0.14400000000000002          6.0128886616439559E-006
  0.14510000000000001          6.9785442065040115E-006
  0.14620000000000000          8.0587351476424374E-006
  0.14730000000000004          9.2699183369404636E-006
  0.14840000000000003          1.0628762538544834E-005
  0.14950000000000002          1.2151742339483462E-005
  0.15060000000000001          1.3856084478902631E-005
  0.15170000000000000          1.5760135283926502E-005
  0.15280000000000005          1.7881551684695296E-005
  0.15390000000000004          2.0233470422681421E-005
  0.15500000000000003          2.2820751837571152E-005
  0.15610000000000002          2.5638966690166853E-005
  0.15720000000000001          2.8677259251708165E-005
  0.15830000000000000          3.1923802453093231E-005
  0.15940000000000004          3.5370663681533188E-005
  0.16050000000000003          3.9014888898236677E-005
  0.16160000000000002          4.2854924686253071E-005
  0.16270000000000001          4.6884084440534934E-005
  0.16380000000000000          5.1084614824503660E-005
  0.16490000000000005          5.5425200116587803E-005
  0.16600000000000004          5.9862246416741982E-005
  0.16710000000000003          6.4343206759076566E-005
  0.16820000000000002          6.8809291406068951E-005
  0.16930000000000001          7.3195464210584760E-005
  0.17040000000000000          7.7428325312212110E-005
  0.17150000000000004          8.1424135714769363E-005
  0.17260000000000003          8.5088555351831019E-005
  0.17370000000000002          8.8318571215495467E-005
  0.17480000000000001          9.1005458671133965E-005
  0.17590000000000000          9.3037793703842908E-005
  0.17700000000000005          9.4303461082745343E-005
  0.17810000000000004          9.4689974503125995E-005
  0.17920000000000003          9.4084178272169083E-005
  0.18030000000000002          9.2372465587686747E-005
  0.18140000000000001          8.9441105956211686E-005
  0.18250000000000000          8.5176819993648678E-005
  0.18360000000000004          7.9468882177025080E-005
  0.18470000000000003          7.2212911618407816E-005
  0.18580000000000002          6.3316532759927213E-005
  0.18690000000000001          5.2706720452988520E-005
  0.18800000000000000          4.0337621612707153E-005
  0.18910000000000005          2.6197232728009112E-005
  0.19020000000000004          1.0309845492884051E-005
  0.19130000000000003         -7.2664538492972497E-006
  0.19240000000000002         -2.6445210096426308E-005
  0.19350000000000001         -4.7117140638874844E-005
  0.19460000000000005         -6.9151719799265265E-005
  0.19570000000000004         -9.2393660452216864E-005
  0.19680000000000003         -1.1665544298011810E-004
  0.19790000000000002         -1.4170960639603436E-004
  0.19900000000000001         -1.6728592163417488E-004
  0.20010000000000000         -1.9307443290017545E-004
  0.20120000000000005         -2.1873222431167960E-004
  0.20230000000000004         -2.4389079771935940E-004
  0.20340000000000003         -2.6816307217814028E-004
  0.20450000000000002         -2.9115058714523911E-004
  0.20560000000000000         -3.1245217542164028E-004
  0.20670000000000005         -3.3167362562380731E-004
  0.20780000000000004         -3.4843658795580268E-004
  0.20890000000000003         -3.6238459870219231E-004
