-1.199999999999999956e-01 0.000000000000000000e+00
-1.189999999999999947e-01 0.000000000000000000e+00
-1.179999999999999938e-01 0.000000000000000000e+00
-1.169999999999999929e-01 0.000000000000000000e+00
-1.159999999999999920e-01 0.000000000000000000e+00
-1.149999999999999911e-01 0.000000000000000000e+00
-1.139999999999999902e-01 0.000000000000000000e+00
-1.129999999999999893e-01 0.000000000000000000e+00
-1.119999999999999885e-01 0.000000000000000000e+00
-1.109999999999999876e-01 0.000000000000000000e+00
-1.100000000000000006e-01 0.000000000000000000e+00
-1.089999999999999997e-01 0.000000000000000000e+00
-1.079999999999999988e-01 0.000000000000000000e+00
-1.069999999999999979e-01 0.000000000000000000e+00
-1.059999999999999970e-01 0.000000000000000000e+00
-1.049999999999999961e-01 0.000000000000000000e+00
-1.039999999999999952e-01 0.000000000000000000e+00
-1.029999999999999943e-01 0.000000000000000000e+00
-1.019999999999999934e-01 0.000000000000000000e+00
-1.009999999999999926e-01 0.000000000000000000e+00
-9.999999999999999167e-02 0.000000000000000000e+00
-9.899999999999999079e-02 0.000000000000000000e+00
-9.800000000000000377e-02 0.000000000000000000e+00
-9.700000000000000289e-02 0.000000000000000000e+00
-9.600000000000000200e-02 0.000000000000000000e+00
-9.500000000000000111e-02 0.000000000000000000e+00
-9.400000000000000022e-02 0.000000000000000000e+00
-9.299999999999999933e-02 0.000000000000000000e+00
-9.199999999999999845e-02 0.000000000000000000e+00
-9.099999999999999756e-02 0.000000000000000000e+00
-8.999999999999999667e-02 0.000000000000000000e+00
-8.899999999999999578e-02 0.000000000000000000e+00
-8.799999999999999489e-02 0.000000000000000000e+00
-8.699999999999999400e-02 0.000000000000000000e+00
-8.599999999999999312e-02 0.000000000000000000e+00
-8.499999999999999223e-02 0.000000000000000000e+00
-8.399999999999999134e-02 0.000000000000000000e+00
-8.299999999999999045e-02 0.000000000000000000e+00
-8.199999999999998956e-02 0.000000000000000000e+00
-8.099999999999998868e-02 0.000000000000000000e+00
-7.999999999999998779e-02 0.000000000000000000e+00
-7.899999999999998690e-02 0.000000000000000000e+00
-7.799999999999998601e-02 0.000000000000000000e+00
-7.699999999999998512e-02 0.000000000000000000e+00
-7.599999999999999811e-02 0.000000000000000000e+00
-7.499999999999999722e-02 0.000000000000000000e+00
-7.399999999999999634e-02 0.000000000000000000e+00
-7.299999999999999545e-02 0.000000000000000000e+00
-7.199999999999999456e-02 0.000000000000000000e+00
-7.099999999999999367e-02 0.000000000000000000e+00
-6.999999999999999278e-02 0.000000000000000000e+00
-6.899999999999999190e-02 0.000000000000000000e+00
-6.799999999999999101e-02 0.000000000000000000e+00
-6.700000000000000400e-02 0.000000000000000000e+00
-6.600000000000000311e-02 0.000000000000000000e+00
-6.500000000000000222e-02 0.000000000000000000e+00
-6.400000000000000133e-02 0.000000000000000000e+00
-6.300000000000000044e-02 0.000000000000000000e+00
-6.199999999999999262e-02 0.000000000000000000e+00
-6.099999999999999173e-02 0.000000000000000000e+00
-5.999999999999999778e-02 0.000000000000000000e+00
-5.899999999999999689e-02 0.000000000000000000e+00
-5.799999999999999600e-02 0.000000000000000000e+00
-5.699999999999999512e-02 0.000000000000000000e+00
-5.599999999999999423e-02 0.000000000000000000e+00
-5.499999999999999334e-02 0.000000000000000000e+00
-5.399999999999999245e-02 0.000000000000000000e+00
-5.299999999999999156e-02 0.000000000000000000e+00
-5.199999999999999067e-02 0.000000000000000000e+00
-5.099999999999998979e-02 0.000000000000000000e+00
-4.999999999999998890e-02 0.000000000000000000e+00
-4.899999999999998801e-02 0.000000000000000000e+00
-4.799999999999998712e-02 0.000000000000000000e+00
-4.700000000000000011e-02 0.000000000000000000e+00
-4.599999999999999922e-02 0.000000000000000000e+00
-4.499999999999999833e-02 0.000000000000000000e+00
-4.399999999999999745e-02 0.000000000000000000e+00
-4.299999999999999656e-02 0.000000000000000000e+00
-4.199999999999999567e-02 0.000000000000000000e+00
-4.099999999999999478e-02 0.000000000000000000e+00
-3.999999999999999389e-02 0.000000000000000000e+00
-3.899999999999999301e-02 0.000000000000000000e+00
-3.799999999999999212e-02 0.000000000000000000e+00
-3.699999999999999123e-02 0.000000000000000000e+00
-3.599999999999999034e-02 0.000000000000000000e+00
-3.499999999999998945e-02 0.000000000000000000e+00
-3.399999999999998856e-02 0.000000000000000000e+00
-3.299999999999998768e-02 0.000000000000000000e+00
-3.200000000000000067e-02 0.000000000000000000e+00
-3.099999999999999978e-02 0.000000000000000000e+00
-2.999999999999999889e-02 0.000000000000000000e+00
-2.899999999999999800e-02 0.000000000000000000e+00
-2.799999999999999711e-02 0.000000000000000000e+00
-2.699999999999999623e-02 0.000000000000000000e+00
-2.599999999999999534e-02 0.000000000000000000e+00
-2.499999999999999445e-02 0.000000000000000000e+00
-2.399999999999999356e-02 0.000000000000000000e+00
-2.299999999999999267e-02 0.000000000000000000e+00
-2.199999999999999178e-02 0.000000000000000000e+00
-2.099999999999999090e-02 0.000000000000000000e+00
-1.999999999999999001e-02 0.000000000000000000e+00
-1.899999999999998912e-02 0.000000000000000000e+00
-1.799999999999998823e-02 0.000000000000000000e+00
-1.699999999999998734e-02 0.000000000000000000e+00
-1.599999999999998646e-02 0.000000000000000000e+00
-1.499999999999999944e-02 0.000000000000000000e+00
-1.399999999999999856e-02 0.000000000000000000e+00
-1.299999999999999767e-02 0.000000000000000000e+00
-1.199999999999999678e-02 0.000000000000000000e+00
-1.099999999999999589e-02 0.000000000000000000e+00
-9.999999999999995004e-03 0.000000000000000000e+00
-8.999999999999994116e-03 0.000000000000000000e+00
-7.999999999999993228e-03 0.000000000000000000e+00
-6.999999999999992339e-03 0.000000000000000000e+00
-5.999999999999991451e-03 0.000000000000000000e+00
-4.999999999999990563e-03 0.000000000000000000e+00
-3.999999999999989675e-03 0.000000000000000000e+00
-2.999999999999988787e-03 0.000000000000000000e+00
-1.999999999999987899e-03 0.000000000000000000e+00
-9.999999999999870104e-04 0.000000000000000000e+00
0.000000000000000000e+00 0.000000000000000000e+00
1.000000000000000888e-03 0.000000000000000000e+00
2.000000000000001776e-03 0.000000000000000000e+00
3.000000000000002665e-03 0.000000000000000000e+00
4.000000000000003553e-03 0.000000000000000000e+00
5.000000000000004441e-03 0.000000000000000000e+00
6.000000000000005329e-03 0.000000000000000000e+00
7.000000000000006217e-03 0.000000000000000000e+00
8.000000000000007105e-03 0.000000000000000000e+00
9.000000000000007994e-03 0.000000000000000000e+00
1.000000000000000888e-02 0.000000000000000000e+00
1.100000000000000977e-02 0.000000000000000000e+00
1.200000000000001066e-02 0.000000000000000000e+00
1.300000000000001155e-02 0.000000000000000000e+00
1.400000000000001243e-02 0.000000000000000000e+00
1.500000000000001332e-02 0.000000000000000000e+00
1.600000000000001421e-02 0.000000000000000000e+00
1.700000000000001510e-02 0.000000000000000000e+00
1.800000000000001599e-02 0.000000000000000000e+00
1.900000000000001688e-02 0.000000000000000000e+00
2.000000000000001776e-02 0.000000000000000000e+00
2.100000000000001865e-02 0.000000000000000000e+00
2.200000000000001954e-02 0.000000000000000000e+00
2.300000000000002043e-02 0.000000000000000000e+00
2.400000000000002132e-02 0.000000000000000000e+00
2.499999999999999445e-02 0.000000000000000000e+00
2.599999999999999534e-02 0.000000000000000000e+00
2.699999999999999623e-02 0.000000000000000000e+00
2.799999999999999711e-02 0.000000000000000000e+00
2.899999999999999800e-02 0.000000000000000000e+00
2.999999999999999889e-02 0.000000000000000000e+00
3.099999999999999978e-02 0.000000000000000000e+00
3.200000000000000067e-02 0.000000000000000000e+00
3.300000000000000155e-02 0.000000000000000000e+00
3.400000000000000244e-02 0.000000000000000000e+00
3.500000000000000333e-02 0.000000000000000000e+00
3.600000000000000422e-02 0.000000000000000000e+00
3.700000000000000511e-02 0.000000000000000000e+00
3.800000000000000600e-02 0.000000000000000000e+00
3.900000000000000688e-02 0.000000000000000000e+00
4.000000000000000777e-02 0.000000000000000000e+00
4.100000000000000866e-02 0.000000000000000000e+00
4.200000000000000955e-02 0.000000000000000000e+00
4.300000000000001044e-02 0.000000000000000000e+00
4.400000000000001132e-02 0.000000000000000000e+00
4.500000000000001221e-02 0.000000000000000000e+00
4.600000000000001310e-02 0.000000000000000000e+00
4.700000000000001399e-02 0.000000000000000000e+00
4.800000000000001488e-02 0.000000000000000000e+00
4.900000000000001577e-02 0.000000000000000000e+00
5.000000000000001665e-02 0.000000000000000000e+00
5.100000000000001754e-02 0.000000000000000000e+00
5.200000000000001843e-02 0.000000000000000000e+00
5.300000000000001932e-02 0.000000000000000000e+00
5.400000000000002021e-02 0.000000000000000000e+00
5.500000000000002109e-02 0.000000000000000000e+00
5.599999999999999423e-02 0.000000000000000000e+00
5.699999999999999512e-02 0.000000000000000000e+00
5.799999999999999600e-02 0.000000000000000000e+00
5.899999999999999689e-02 0.000000000000000000e+00
5.999999999999999778e-02 0.000000000000000000e+00
6.099999999999999867e-02 0.000000000000000000e+00
6.199999999999999956e-02 0.000000000000000000e+00
6.300000000000000044e-02 0.000000000000000000e+00
6.400000000000000133e-02 0.000000000000000000e+00
6.500000000000000222e-02 0.000000000000000000e+00
6.600000000000000311e-02 0.000000000000000000e+00
6.700000000000000400e-02 0.000000000000000000e+00
6.800000000000000488e-02 0.000000000000000000e+00
6.900000000000000577e-02 0.000000000000000000e+00
7.000000000000000666e-02 0.000000000000000000e+00
7.100000000000000755e-02 0.000000000000000000e+00
7.200000000000000844e-02 0.000000000000000000e+00
7.300000000000000933e-02 0.000000000000000000e+00
7.400000000000001021e-02 0.000000000000000000e+00
7.500000000000001110e-02 0.000000000000000000e+00
7.600000000000001199e-02 0.000000000000000000e+00
7.700000000000001288e-02 0.000000000000000000e+00
7.800000000000001377e-02 0.000000000000000000e+00
7.900000000000001465e-02 0.000000000000000000e+00
8.000000000000001554e-02 0.000000000000000000e+00
8.100000000000001643e-02 0.000000000000000000e+00
8.200000000000001732e-02 0.000000000000000000e+00
8.300000000000001821e-02 0.000000000000000000e+00
8.400000000000001910e-02 0.000000000000000000e+00
8.500000000000001998e-02 0.000000000000000000e+00
8.600000000000002087e-02 0.000000000000000000e+00
8.700000000000002176e-02 0.000000000000000000e+00
8.800000000000002265e-02 0.000000000000000000e+00
8.899999999999999578e-02 0.000000000000000000e+00
8.999999999999999667e-02 0.000000000000000000e+00
9.099999999999999756e-02 0.000000000000000000e+00
9.199999999999999845e-02 0.000000000000000000e+00
9.299999999999999933e-02 0.000000000000000000e+00
9.400000000000000022e-02 0.000000000000000000e+00
9.500000000000000111e-02 0.000000000000000000e+00
9.600000000000000200e-02 0.000000000000000000e+00
9.700000000000000289e-02 0.000000000000000000e+00
9.800000000000000377e-02 0.000000000000000000e+00
9.900000000000000466e-02 0.000000000000000000e+00
1.000000000000000056e-01 0.000000000000000000e+00
1.010000000000000064e-01 0.000000000000000000e+00
1.020000000000000073e-01 0.000000000000000000e+00
1.030000000000000082e-01 0.000000000000000000e+00
1.040000000000000091e-01 0.000000000000000000e+00
1.050000000000000100e-01 -0.000000000000000000e+00
1.060000000000000109e-01 2.802596928649634142e-45
1.070000000000000118e-01 9.248569864543792668e-44
1.080000000000000127e-01 1.205116679319342681e-42
1.090000000000000135e-01 1.085726050158868267e-41
1.100000000000000144e-01 4.398395619822735822e-41
1.110000000000000153e-01 -6.650730667501300797e-40
1.120000000000000162e-01 -1.986707993637774165e-38
1.130000000000000171e-01 -3.203181972802715196e-37
1.140000000000000180e-01 -4.035550525277054175e-36
1.150000000000000189e-01 -4.338259189938394420e-35
1.160000000000000198e-01 -4.124275194447767357e-34
1.170000000000000207e-01 -3.528849836873846273e-33
1.180000000000000215e-01 -2.741432382879662573e-32
1.190000000000000224e-01 -1.939656897218398198e-31
1.199999999999999956e-01 -1.247726691928903825e-30
1.209999999999999964e-01 -7.245850998129644824e-30
1.219999999999999973e-01 -3.745296078465649273e-29
1.229999999999999982e-01 -1.682692936872148562e-28
1.239999999999999991e-01 -6.371658516715775380e-28
1.250000000000000000e-01 -2.089083751475039467e-27
1.260000000000000009e-01 -9.366633943522969769e-27
1.270000000000000018e-01 -9.869802400793579008e-26
1.280000000000000027e-01 -1.242680948296307887e-24
1.290000000000000036e-01 -1.328233031796662401e-23
1.300000000000000044e-01 -1.201765596707579957e-22
1.310000000000000053e-01 -9.493908935027688896e-22
1.320000000000000062e-01 -6.697412828480855433e-21
1.330000000000000071e-01 -4.277635613964697989e-20
1.340000000000000080e-01 -2.493205342790022138e-19
1.350000000000000089e-01 -1.331172764192425923e-18
1.360000000000000098e-01 -6.515966382876215964e-18
1.370000000000000107e-01 -2.918523819041861421e-17
1.380000000000000115e-01 -1.190401575225472509e-16
1.390000000000000124e-01 -4.382650113047420470e-16
1.400000000000000133e-01 -1.433926406297280839e-15
1.410000000000000142e-01 -4.047022625060323758e-15
1.420000000000000151e-01 -9.198534708725839698e-15
1.430000000000000160e-01 -1.319067891616650459e-14
1.440000000000000169e-01 1.113076339811277377e-14
1.450000000000000178e-01 1.691447681787319746e-13
1.460000000000000187e-01 7.610473124093630748e-13
1.470000000000000195e-01 2.437130575475010552e-12
1.480000000000000204e-01 6.181307635882982154e-12
1.490000000000000213e-01 1.256050038284106662e-11
1.500000000000000222e-01 1.949249095467564530e-11
1.510000000000000231e-01 1.876057122152108292e-11
1.520000000000000240e-01 -5.338375574925890987e-12
1.530000000000000249e-01 -6.813884179113216533e-11
1.540000000000000258e-01 -1.635275664879642932e-10
1.550000000000000266e-01 -2.434225043757010098e-10
1.560000000000000275e-01 -2.338182703010005525e-10
1.570000000000000284e-01 -1.085459083727258189e-10
1.580000000000000293e-01 3.863756883881741544e-11
1.590000000000000302e-01 5.006560097053913694e-11
1.600000000000000311e-01 -9.797582189996489888e-11
1.610000000000000320e-01 -2.027120554748407244e-10
1.620000000000000329e-01 -8.539979834409905379e-11
1.630000000000000338e-01 9.773396675294421243e-11
1.640000000000000346e-01 6.058451657020569314e-11
1.650000000000000355e-01 -9.540758461046294769e-11
1.660000000000000364e-01 -2.331784244857804111e-11
1.670000000000000373e-01 1.702269852854598753e-10
1.680000000000000382e-01 8.688230690445664095e-11
1.689999999999999836e-01 -1.001653968102367287e-10
1.699999999999999845e-01 9.382642232602655952e-12
1.709999999999999853e-01 1.021169954151801562e-10
1.719999999999999862e-01 -1.084924580729840216e-10
1.729999999999999871e-01 -1.215202660720393624e-10
1.739999999999999880e-01 9.699974157229007687e-11
1.749999999999999889e-01 -5.979206279399518209e-12
1.759999999999999898e-01 -8.652143584919613772e-11
1.769999999999999907e-01 1.396244092566334416e-10
1.779999999999999916e-01 4.538131329057115693e-11
1.789999999999999925e-01 -1.120081666305949852e-10
1.799999999999999933e-01 8.116197991459017658e-11
1.809999999999999942e-01 -2.704470501713185371e-11
1.819999999999999951e-01 -1.311962205541306048e-10
1.829999999999999960e-01 1.145254030499032183e-10
1.839999999999999969e-01 -1.511026546940907878e-11
1.849999999999999978e-01 -3.716073282422627244e-11
1.859999999999999987e-01 1.406751243271386898e-10
1.869999999999999996e-01 -1.031849605759305177e-10
1.880000000000000004e-01 -1.445030119867629637e-11
1.890000000000000013e-01 5.232529340370994930e-11
1.900000000000000022e-01 -1.271830557536546280e-10
1.910000000000000031e-01 1.200714805360547643e-10
1.920000000000000040e-01 -7.238772949114125055e-12
1.930000000000000049e-01 -3.494866895881187929e-11
1.940000000000000058e-01 9.587167865143797485e-11
1.950000000000000067e-01 -1.452536285695416041e-10
1.960000000000000075e-01 7.212473673856578671e-11
1.970000000000000084e-01 -2.174536592458586881e-11
1.980000000000000093e-01 -1.934576110418362305e-11
1.990000000000000102e-01 1.133375407413872438e-10
2.000000000000000111e-01 -1.220939183088631808e-10
2.010000000000000120e-01 9.064029388161642942e-11
2.020000000000000129e-01 -9.349526014501563509e-11
2.030000000000000138e-01 2.564297559015660255e-11
2.040000000000000147e-01 5.366690078445479628e-11
2.050000000000000155e-01 -6.548924597060690189e-11
2.060000000000000164e-01 1.195605281445466517e-10
2.070000000000000173e-01 -1.635569180091778207e-10
2.080000000000000182e-01 1.295244883570134675e-10
2.090000000000000191e-01 -1.158368193032721649e-10
2.100000000000000200e-01 7.843298927001640664e-11
2.110000000000000209e-01 2.710515492609921750e-11
2.120000000000000218e-01 -5.634582384006492362e-11
2.130000000000000226e-01 1.673782987210437057e-11
2.140000000000000235e-01 -6.782292782947507703e-11
2.150000000000000244e-01 1.440933206087180452e-10
2.160000000000000253e-01 -1.116412101653807554e-10
2.170000000000000262e-01 8.923896344104065292e-11
2.180000000000000271e-01 -1.260933996105606525e-10
2.190000000000000280e-01 1.143741490405858485e-10
2.200000000000000289e-01 -6.590768902858812339e-11
2.210000000000000298e-01 7.088404863075936646e-11
2.220000000000000306e-01 -6.342766589728654480e-11
2.230000000000000315e-01 2.706494056647912316e-11
2.240000000000000324e-01 -1.647591785225444028e-12
2.250000000000000333e-01 9.382054161344299814e-12
2.260000000000000342e-01 1.152859925579452494e-11
2.270000000000000351e-01 -4.772860232038489414e-11
2.280000000000000360e-01 4.097212152887053094e-11
2.290000000000000369e-01 -3.788054592224199268e-11
2.300000000000000377e-01 7.523130729492066848e-11
2.310000000000000386e-01 -7.238785265650804490e-11
2.319999999999999840e-01 5.610758038732122088e-11
2.329999999999999849e-01 -8.799598549824594329e-11
2.339999999999999858e-01 8.628631142926224129e-11
2.349999999999999867e-01 -7.258028900114510407e-11
2.359999999999999876e-01 8.871319651104769832e-11
2.369999999999999885e-01 -7.915032518290843200e-11
2.379999999999999893e-01 9.197070882649427404e-11
2.389999999999999902e-01 -7.248240202484268480e-11
2.399999999999999911e-01 8.679841567715840256e-11
2.409999999999999920e-01 -8.223301900533996900e-11
2.419999999999999929e-01 6.059029666882764786e-11
2.429999999999999938e-01 -7.305758775721926668e-11
2.439999999999999947e-01 7.107621435853417324e-11
2.449999999999999956e-01 -5.001531133697056930e-11
2.459999999999999964e-01 4.310249379635422429e-11
2.469999999999999973e-01 -3.464556419530140374e-11
2.479999999999999982e-01 4.119851682027331208e-11
2.489999999999999991e-01 1.220162859638662667e-12
2.500000000000000000e-01 9.658551736180243097e-12
2.510000000000000009e-01 1.635530599841672483e-11
2.520000000000000018e-01 -2.310301949748350125e-11
2.530000000000000027e-01 5.212863474213236259e-11
2.540000000000000036e-01 -5.310740736064190060e-11
2.550000000000000044e-01 8.243777882555036740e-11
2.560000000000000053e-01 -8.264422479697941526e-11
2.570000000000000062e-01 9.631950792510224346e-11
2.580000000000000071e-01 -9.009204493537481540e-11
2.590000000000000080e-01 1.267288496364926687e-10
2.600000000000000089e-01 -8.208200785730923599e-11
2.610000000000000098e-01 1.152669071302625525e-10
2.620000000000000107e-01 -8.470779633285019372e-11
2.630000000000000115e-01 9.712963766617122019e-11
2.640000000000000124e-01 -2.515343489051247161e-11
2.650000000000000133e-01 7.345968278116288275e-11
2.660000000000000142e-01 2.506128637946858362e-11
2.670000000000000151e-01 8.642864202101918636e-12
2.680000000000000160e-01 8.808509477375991992e-11
2.690000000000000169e-01 -2.140554400398286816e-11
2.700000000000000178e-01 1.506967883813103981e-10
2.710000000000000187e-01 -4.472910930530815676e-11
2.720000000000000195e-01 1.585878095511361607e-10
2.730000000000000204e-01 -5.316724838166919653e-11
2.740000000000000213e-01 1.478159816770130419e-10
2.750000000000000222e-01 2.379429986376635497e-12
2.760000000000000231e-01 8.558398434388436726e-11
2.770000000000000240e-01 8.184652955378624029e-11
2.780000000000000249e-01 4.226308192301075906e-11
2.790000000000000258e-01 1.470645827339467360e-10
2.800000000000000266e-01 -3.002931237006123411e-11
2.810000000000000275e-01 1.200675114887417294e-10
2.820000000000000284e-01 -6.494005333479435649e-11
2.830000000000000293e-01 6.576073019459727220e-11
2.840000000000000302e-01 -7.603517815368832089e-11
2.850000000000000311e-01 -1.534239402189996326e-11
2.860000000000000320e-01 -9.816147894525784068e-12
2.870000000000000329e-01 -1.706599306317002629e-10
2.880000000000000338e-01 5.181632900530530605e-12
2.890000000000000346e-01 -1.647340042154610273e-10
2.900000000000000355e-01 6.326494883523992030e-11
2.910000000000000364e-01 -1.668212235017563216e-10
2.920000000000000373e-01 -6.777867156415595673e-11
2.930000000000000382e-01 -3.820233018814178649e-11
2.940000000000000391e-01 -2.934186227321333718e-11
2.950000000000000400e-01 -1.588240650107763940e-11
2.960000000000000409e-01 -3.005435900149677764e-10
2.969999999999999862e-01 -7.082334718688798603e-11
2.979999999999999871e-01 -3.427977901537815342e-10
2.989999999999999880e-01 -1.532072246845928021e-10
2.999999999999999889e-01 -2.278390809351549251e-10
3.009999999999999898e-01 -3.037783358195156325e-10
3.019999999999999907e-01 -1.995328346993119339e-10
3.029999999999999916e-01 -3.369891032889427152e-10
3.039999999999999925e-01 -1.156923445932989125e-10
3.049999999999999933e-01 -2.683293587324442342e-10
3.059999999999999942e-01 -2.262066089997460949e-10
3.069999999999999951e-01 -1.241913238914094109e-10
3.079999999999999960e-01 -1.878461830528976861e-10
3.089999999999999969e-01 -1.568301044585496129e-11
3.099999999999999978e-01 -8.225498060454583538e-11
3.109999999999999987e-01 1.895559265108204272e-10
3.119999999999999996e-01 1.267488336509359215e-10
3.130000000000000004e-01 4.763567318377681659e-11
3.140000000000000013e-01 1.993738507621856115e-10
3.150000000000000022e-01 1.119015990980187780e-10
3.160000000000000031e-01 4.202220793558808509e-10
3.170000000000000040e-01 1.970921204019759898e-10
3.180000000000000049e-01 2.796980425046058372e-10
3.190000000000000058e-01 2.956461742087412858e-10
3.200000000000000067e-01 1.990692055642284686e-10
3.210000000000000075e-01 4.183426938197953859e-10
3.220000000000000084e-01 3.705515894125710474e-10
3.230000000000000093e-01 6.478906300344533520e-10
3.240000000000000102e-01 5.986819928693876136e-10
3.250000000000000111e-01 6.382627759649039945e-10
3.260000000000000120e-01 8.937632856031996198e-10
3.270000000000000129e-01 7.315179573197383434e-10
3.280000000000000138e-01 8.518483696207113098e-10
3.290000000000000147e-01 8.526086503479746170e-10
3.300000000000000155e-01 7.583125238852517214e-10
3.310000000000000164e-01 9.006200230032845866e-10
3.320000000000000173e-01 8.550173902222013567e-10
3.330000000000000182e-01 8.971809961622057017e-10
3.340000000000000191e-01 8.627196734778408427e-10
3.350000000000000200e-01 8.294165354527649470e-10
3.360000000000000209e-01 9.579181892149790656e-10
3.370000000000000218e-01 8.762626180214283522e-10
3.380000000000000226e-01 1.003542138278135099e-09
3.390000000000000235e-01 9.228315889231453184e-10
3.400000000000000244e-01 7.762075426853698445e-10
3.410000000000000253e-01 8.510703253250540001e-10
3.420000000000000262e-01 6.222293791324773338e-10
3.430000000000000271e-01 6.989573364535317523e-10
3.440000000000000280e-01 5.363318678064388223e-10
3.450000000000000289e-01 3.929123693069414003e-10
3.460000000000000298e-01 4.292068922495673178e-10
3.470000000000000306e-01 3.029470008186763152e-10
3.480000000000000315e-01 3.055182773437081778e-10
3.490000000000000324e-01 3.448441532327706227e-10
3.500000000000000333e-01 2.347757543930129032e-10
3.510000000000000342e-01 4.291563215907956419e-10
3.520000000000000351e-01 1.867039856051633251e-10
3.530000000000000360e-01 3.030269368764493265e-10
3.540000000000000369e-01 2.502948959204331913e-10
3.550000000000000377e-01 1.512638903022889281e-10
3.560000000000000386e-01 3.752145261159967049e-10
3.570000000000000395e-01 2.868567605673888465e-10
3.580000000000000404e-01 1.999858056933589978e-10
3.590000000000000413e-01 2.576889812644367339e-10
3.599999999999999867e-01 1.292335127800470218e-10
3.609999999999999876e-01 2.391828957115649246e-10
3.619999999999999885e-01 2.464624060394271510e-10
3.629999999999999893e-01 1.764455248576268787e-10
3.639999999999999902e-01 3.734577092018298572e-10
3.649999999999999911e-01 2.075246641197736608e-10
3.659999999999999920e-01 2.712816637995274505e-10
3.669999999999999929e-01 2.966835666029510321e-10
3.679999999999999938e-01 2.055315917459665798e-10
3.689999999999999947e-01 4.072724379966530250e-10
3.699999999999999956e-01 3.346194432651827810e-10
3.709999999999999964e-01 2.554720879288652213e-10
3.719999999999999973e-01 3.850395557947194902e-10
3.729999999999999982e-01 1.985540620808023959e-10
3.739999999999999991e-01 3.959286232202430256e-10
3.750000000000000000e-01 3.892282052220252808e-10
3.760000000000000009e-01 3.272866422321385471e-10
3.770000000000000018e-01 4.310329870804707753e-10
3.780000000000000027e-01 3.511271273737293086e-10
3.790000000000000036e-01 3.624194278017967008e-10
3.800000000000000044e-01 5.593498997313872678e-10
3.810000000000000053e-01 3.689031302656076150e-10
3.820000000000000062e-01 5.150280202315116185e-10
3.830000000000000071e-01 5.105107447889167815e-10
3.840000000000000080e-01 3.773692469621892087e-10
3.850000000000000089e-01 5.925979706944417558e-10
3.860000000000000098e-01 5.367217781326871773e-10
3.870000000000000107e-01 4.933404795792739606e-10
3.880000000000000115e-01 6.649187866969441529e-10
3.890000000000000124e-01 5.639209099683739623e-10
3.900000000000000133e-01 6.454352607931923558e-10
3.910000000000000142e-01 6.763611892779408663e-10
3.920000000000000151e-01 5.316920237419253681e-10
3.930000000000000160e-01 6.612528302696318860e-10
3.940000000000000169e-01 5.974989392143470468e-10
3.950000000000000178e-01 5.814763115452592501e-10
3.960000000000000187e-01 6.772485905415237539e-10
3.970000000000000195e-01 5.077809284159684466e-10
3.980000000000000204e-01 6.397835594640355339e-10
3.990000000000000213e-01 7.036347060562775368e-10
4.000000000000000222e-01 5.001379310698439440e-10
4.010000000000000231e-01 5.969682526085762220e-10
4.020000000000000240e-01 5.591698215567930674e-10
4.030000000000000249e-01 4.491584881805010809e-10
4.040000000000000258e-01 6.456519763275991863e-10
4.050000000000000266e-01 5.166058691941088910e-10
4.060000000000000275e-01 5.165126104600403778e-10
4.070000000000000284e-01 6.068021640714960085e-10
4.080000000000000293e-01 4.511599982492953131e-10
4.090000000000000302e-01 5.617426523940594052e-10
4.100000000000000311e-01 5.792402113513617223e-10
4.110000000000000320e-01 4.264393282937817276e-10
4.120000000000000329e-01 5.548845827263448882e-10
4.130000000000000338e-01 5.855982365687850688e-10
4.140000000000000346e-01 4.688653909568074596e-10
4.150000000000000355e-01 6.194667001580000942e-10
4.160000000000000364e-01 4.836946398967256755e-10
4.170000000000000373e-01 4.722764401776657905e-10
4.180000000000000382e-01 6.280256314994403510e-10
4.190000000000000391e-01 4.404059339435661968e-10
4.200000000000000400e-01 5.164699778958947718e-10
4.210000000000000409e-01 6.244844641400959517e-10
4.220000000000000417e-01 4.617195514811101020e-10
4.230000000000000426e-01 5.908884492811239397e-10
4.240000000000000435e-01 6.240770122900585193e-10
4.250000000000000444e-01 4.277223020210385585e-10
4.260000000000000453e-01 5.451150641988533607e-10
4.270000000000000462e-01 4.689002519597806895e-10
4.280000000000000471e-01 4.442717305153109919e-10
4.290000000000000480e-01 6.192217849587677847e-10
4.300000000000000488e-01 4.959207489108052869e-10
4.310000000000000497e-01 5.108028444666956602e-10
4.320000000000000506e-01 5.569662508975170567e-10
4.330000000000000515e-01 4.428434285941307280e-10
4.340000000000000524e-01 5.011806525345718910e-10
4.350000000000000533e-01 6.334012203623728965e-10
4.360000000000000542e-01 4.235115591555427272e-10
4.370000000000000551e-01 5.093546695533746060e-10
4.380000000000000560e-01 5.577088790786888239e-10
4.390000000000000568e-01 5.306903805291085519e-10
4.400000000000000577e-01 5.313692819086668351e-10
4.410000000000000586e-01 5.651454859645355100e-10
4.420000000000000595e-01 4.479535076207241673e-10
4.430000000000000604e-01 5.950044901226192451e-10
4.440000000000000613e-01 5.624040677609798422e-10
4.450000000000000622e-01 4.667580766337664500e-10
4.460000000000000631e-01 4.889255666995495631e-10
4.470000000000000639e-01 5.717320505915779449e-10
4.480000000000000648e-01 5.692619708952406654e-10
4.490000000000000657e-01 3.585122476668090030e-10
4.500000000000000666e-01 1.080716405255088830e-09
4.510000000000000675e-01 1.959944984086803288e-10
4.520000000000000684e-01 3.387556346545750330e-10
4.530000000000000693e-01 2.103210494652785201e-09
4.540000000000000702e-01 -1.059523135893414292e-09
4.550000000000000711e-01 1.576113684009783356e-09
4.560000000000000719e-01 2.906305862637736936e-09
4.569999999999999618e-01 -3.301320106174898683e-09
4.579999999999999627e-01 5.369535927002289100e-09
4.589999999999999636e-01 1.214383260617069027e-09
4.599999999999999645e-01 -3.800762371497512504e-09
4.609999999999999654e-01 9.886981899853708455e-09
4.619999999999999662e-01 -3.667544490326690720e-09
4.629999999999999671e-01 6.757332471352128778e-10
4.639999999999999680e-01 9.384564236825099215e-09
4.649999999999999689e-01 -5.311100892413378460e-09
4.659999999999999698e-01 5.335600405942386715e-09
4.669999999999999707e-01 4.431242928149004001e-09
4.679999999999999716e-01 1.078817035704560112e-09
4.689999999999999725e-01 2.622854822220688220e-09
4.699999999999999734e-01 6.473399594142392743e-09
4.709999999999999742e-01 5.994991170155117288e-09
4.719999999999999751e-01 7.371738774963887408e-10
4.729999999999999760e-01 1.393459569953847677e-08
4.739999999999999769e-01 6.596081902898731641e-09