-1.199999999999999956e-01 -0.000000000000000000e+00
-1.189999999999999947e-01 -0.000000000000000000e+00
-1.179999999999999938e-01 -0.000000000000000000e+00
-1.169999999999999929e-01 -0.000000000000000000e+00
-1.159999999999999920e-01 -0.000000000000000000e+00
-1.149999999999999911e-01 -0.000000000000000000e+00
-1.139999999999999902e-01 -0.000000000000000000e+00
-1.129999999999999893e-01 -0.000000000000000000e+00
-1.119999999999999885e-01 -0.000000000000000000e+00
-1.109999999999999876e-01 -0.000000000000000000e+00
-1.100000000000000006e-01 -0.000000000000000000e+00
-1.089999999999999997e-01 -0.000000000000000000e+00
-1.079999999999999988e-01 -0.000000000000000000e+00
-1.069999999999999979e-01 -0.000000000000000000e+00
-1.059999999999999970e-01 -0.000000000000000000e+00
-1.049999999999999961e-01 -0.000000000000000000e+00
-1.039999999999999952e-01 -0.000000000000000000e+00
-1.029999999999999943e-01 -0.000000000000000000e+00
-1.019999999999999934e-01 -0.000000000000000000e+00
-1.009999999999999926e-01 -0.000000000000000000e+00
-9.999999999999999167e-02 -0.000000000000000000e+00
-9.899999999999999079e-02 -0.000000000000000000e+00
-9.800000000000000377e-02 -0.000000000000000000e+00
-9.700000000000000289e-02 -0.000000000000000000e+00
-9.600000000000000200e-02 -0.000000000000000000e+00
-9.500000000000000111e-02 -0.000000000000000000e+00
-9.400000000000000022e-02 -0.000000000000000000e+00
-9.299999999999999933e-02 -0.000000000000000000e+00
-9.199999999999999845e-02 -0.000000000000000000e+00
-9.099999999999999756e-02 -0.000000000000000000e+00
-8.999999999999999667e-02 -0.000000000000000000e+00
-8.899999999999999578e-02 -0.000000000000000000e+00
-8.799999999999999489e-02 -0.000000000000000000e+00
-8.699999999999999400e-02 -0.000000000000000000e+00
-8.599999999999999312e-02 -0.000000000000000000e+00
-8.499999999999999223e-02 -0.000000000000000000e+00
-8.399999999999999134e-02 -0.000000000000000000e+00
-8.299999999999999045e-02 -0.000000000000000000e+00
-8.199999999999998956e-02 -0.000000000000000000e+00
-8.099999999999998868e-02 -0.000000000000000000e+00
-7.999999999999998779e-02 -0.000000000000000000e+00
-7.899999999999998690e-02 -0.000000000000000000e+00
-7.799999999999998601e-02 -0.000000000000000000e+00
-7.699999999999998512e-02 -0.000000000000000000e+00
-7.599999999999999811e-02 -0.000000000000000000e+00
-7.499999999999999722e-02 -0.000000000000000000e+00
-7.399999999999999634e-02 -0.000000000000000000e+00
-7.299999999999999545e-02 -0.000000000000000000e+00
-7.199999999999999456e-02 -0.000000000000000000e+00
-7.099999999999999367e-02 -0.000000000000000000e+00
-6.999999999999999278e-02 -0.000000000000000000e+00
-6.899999999999999190e-02 -0.000000000000000000e+00
-6.799999999999999101e-02 -0.000000000000000000e+00
-6.700000000000000400e-02 -0.000000000000000000e+00
-6.600000000000000311e-02 -0.000000000000000000e+00
-6.500000000000000222e-02 -0.000000000000000000e+00
-6.400000000000000133e-02 -0.000000000000000000e+00
-6.300000000000000044e-02 -0.000000000000000000e+00
-6.199999999999999262e-02 -0.000000000000000000e+00
-6.099999999999999173e-02 -0.000000000000000000e+00
-5.999999999999999778e-02 -0.000000000000000000e+00
-5.899999999999999689e-02 -0.000000000000000000e+00
-5.799999999999999600e-02 -0.000000000000000000e+00
-5.699999999999999512e-02 -0.000000000000000000e+00
-5.599999999999999423e-02 -0.000000000000000000e+00
-5.499999999999999334e-02 -0.000000000000000000e+00
-5.399999999999999245e-02 -0.000000000000000000e+00
-5.299999999999999156e-02 -0.000000000000000000e+00
-5.199999999999999067e-02 -0.000000000000000000e+00
-5.099999999999998979e-02 -0.000000000000000000e+00
-4.999999999999998890e-02 -0.000000000000000000e+00
-4.899999999999998801e-02 -0.000000000000000000e+00
-4.799999999999998712e-02 -0.000000000000000000e+00
-4.700000000000000011e-02 -0.000000000000000000e+00
-4.599999999999999922e-02 -0.000000000000000000e+00
-4.499999999999999833e-02 -0.000000000000000000e+00
-4.399999999999999745e-02 -0.000000000000000000e+00
-4.299999999999999656e-02 -0.000000000000000000e+00
-4.199999999999999567e-02 -0.000000000000000000e+00
-4.099999999999999478e-02 -0.000000000000000000e+00
-3.999999999999999389e-02 -0.000000000000000000e+00
-3.899999999999999301e-02 -0.000000000000000000e+00
-3.799999999999999212e-02 -0.000000000000000000e+00
-3.699999999999999123e-02 -0.000000000000000000e+00
-3.599999999999999034e-02 -0.000000000000000000e+00
-3.499999999999998945e-02 -0.000000000000000000e+00
-3.399999999999998856e-02 -0.000000000000000000e+00
-3.299999999999998768e-02 -0.000000000000000000e+00
-3.200000000000000067e-02 -0.000000000000000000e+00
-3.099999999999999978e-02 -0.000000000000000000e+00
-2.999999999999999889e-02 -0.000000000000000000e+00
-2.899999999999999800e-02 -0.000000000000000000e+00
-2.799999999999999711e-02 -0.000000000000000000e+00
-2.699999999999999623e-02 -0.000000000000000000e+00
-2.599999999999999534e-02 -0.000000000000000000e+00
-2.499999999999999445e-02 -0.000000000000000000e+00
-2.399999999999999356e-02 -0.000000000000000000e+00
-2.299999999999999267e-02 -0.000000000000000000e+00
-2.199999999999999178e-02 -0.000000000000000000e+00
-2.099999999999999090e-02 -0.000000000000000000e+00
-1.999999999999999001e-02 -0.000000000000000000e+00
-1.899999999999998912e-02 -0.000000000000000000e+00
-1.799999999999998823e-02 -0.000000000000000000e+00
-1.699999999999998734e-02 -0.000000000000000000e+00
-1.599999999999998646e-02 -0.000000000000000000e+00
-1.499999999999999944e-02 -0.000000000000000000e+00
-1.399999999999999856e-02 -0.000000000000000000e+00
-1.299999999999999767e-02 -0.000000000000000000e+00
-1.199999999999999678e-02 -0.000000000000000000e+00
-1.099999999999999589e-02 -0.000000000000000000e+00
-9.999999999999995004e-03 -0.000000000000000000e+00
-8.999999999999994116e-03 -0.000000000000000000e+00
-7.999999999999993228e-03 -0.000000000000000000e+00
-6.999999999999992339e-03 -0.000000000000000000e+00
-5.999999999999991451e-03 -0.000000000000000000e+00
-4.999999999999990563e-03 -0.000000000000000000e+00
-3.999999999999989675e-03 -0.000000000000000000e+00
-2.999999999999988787e-03 -0.000000000000000000e+00
-1.999999999999987899e-03 -0.000000000000000000e+00
-9.999999999999870104e-04 -0.000000000000000000e+00
0.000000000000000000e+00 -0.000000000000000000e+00
1.000000000000000888e-03 -0.000000000000000000e+00
2.000000000000001776e-03 -0.000000000000000000e+00
3.000000000000002665e-03 -0.000000000000000000e+00
4.000000000000003553e-03 -0.000000000000000000e+00
5.000000000000004441e-03 -0.000000000000000000e+00
6.000000000000005329e-03 -0.000000000000000000e+00
7.000000000000006217e-03 -0.000000000000000000e+00
8.000000000000007105e-03 -0.000000000000000000e+00
9.000000000000007994e-03 -0.000000000000000000e+00
1.000000000000000888e-02 -0.000000000000000000e+00
1.100000000000000977e-02 -0.000000000000000000e+00
1.200000000000001066e-02 -0.000000000000000000e+00
1.300000000000001155e-02 -0.000000000000000000e+00
1.400000000000001243e-02 -0.000000000000000000e+00
1.500000000000001332e-02 -0.000000000000000000e+00
1.600000000000001421e-02 -0.000000000000000000e+00
1.700000000000001510e-02 -0.000000000000000000e+00
1.800000000000001599e-02 -0.000000000000000000e+00
1.900000000000001688e-02 -0.000000000000000000e+00
2.000000000000001776e-02 -0.000000000000000000e+00
2.100000000000001865e-02 -0.000000000000000000e+00
2.200000000000001954e-02 -0.000000000000000000e+00
2.300000000000002043e-02 -0.000000000000000000e+00
2.400000000000002132e-02 -0.000000000000000000e+00
2.499999999999999445e-02 -0.000000000000000000e+00
2.599999999999999534e-02 -0.000000000000000000e+00
2.699999999999999623e-02 -0.000000000000000000e+00
2.799999999999999711e-02 -0.000000000000000000e+00
2.899999999999999800e-02 -0.000000000000000000e+00
2.999999999999999889e-02 -0.000000000000000000e+00
3.099999999999999978e-02 -0.000000000000000000e+00
3.200000000000000067e-02 -0.000000000000000000e+00
3.300000000000000155e-02 -0.000000000000000000e+00
3.400000000000000244e-02 -0.000000000000000000e+00
3.500000000000000333e-02 -0.000000000000000000e+00
3.600000000000000422e-02 -0.000000000000000000e+00
3.700000000000000511e-02 -0.000000000000000000e+00
3.800000000000000600e-02 -0.000000000000000000e+00
3.900000000000000688e-02 -0.000000000000000000e+00
4.000000000000000777e-02 -0.000000000000000000e+00
4.100000000000000866e-02 -0.000000000000000000e+00
4.200000000000000955e-02 -0.000000000000000000e+00
4.300000000000001044e-02 -0.000000000000000000e+00
4.400000000000001132e-02 -0.000000000000000000e+00
4.500000000000001221e-02 -0.000000000000000000e+00
4.600000000000001310e-02 -0.000000000000000000e+00
4.700000000000001399e-02 -0.000000000000000000e+00
4.800000000000001488e-02 -0.000000000000000000e+00
4.900000000000001577e-02 -0.000000000000000000e+00
5.000000000000001665e-02 -0.000000000000000000e+00
5.100000000000001754e-02 -0.000000000000000000e+00
5.200000000000001843e-02 -0.000000000000000000e+00
5.300000000000001932e-02 -0.000000000000000000e+00
5.400000000000002021e-02 -0.000000000000000000e+00
5.500000000000002109e-02 -0.000000000000000000e+00
5.599999999999999423e-02 -0.000000000000000000e+00
5.699999999999999512e-02 -0.000000000000000000e+00
5.799999999999999600e-02 -0.000000000000000000e+00
5.899999999999999689e-02 -0.000000000000000000e+00
5.999999999999999778e-02 -0.000000000000000000e+00
6.099999999999999867e-02 -0.000000000000000000e+00
6.199999999999999956e-02 -0.000000000000000000e+00
6.300000000000000044e-02 -0.000000000000000000e+00
6.400000000000000133e-02 -0.000000000000000000e+00
6.500000000000000222e-02 -0.000000000000000000e+00
6.600000000000000311e-02 -0.000000000000000000e+00
6.700000000000000400e-02 -0.000000000000000000e+00
6.800000000000000488e-02 -0.000000000000000000e+00
6.900000000000000577e-02 -0.000000000000000000e+00
7.000000000000000666e-02 -0.000000000000000000e+00
7.100000000000000755e-02 -0.000000000000000000e+00
7.200000000000000844e-02 -0.000000000000000000e+00
7.300000000000000933e-02 -0.000000000000000000e+00
7.400000000000001021e-02 -1.401298464324817071e-45
7.500000000000001110e-02 -2.802596928649634142e-45
7.600000000000001199e-02 1.163077725389598169e-43
7.700000000000001288e-02 2.794189137863685239e-42
7.800000000000001377e-02 3.597973937000400311e-41
7.900000000000001465e-02 2.388134881856282997e-40
8.000000000000001554e-02 -1.116222508637969260e-39
8.100000000000001643e-02 -5.939225295876075038e-38
8.200000000000001732e-02 -1.026530898236905588e-36
8.300000000000001821e-02 -1.236926558033473754e-35
8.400000000000001910e-02 -1.145066266291519885e-34
8.500000000000001998e-02 -7.905999396451419595e-34
8.600000000000002087e-02 -2.989171931545687543e-33
8.700000000000002176e-02 1.836639393498774894e-32
8.800000000000002265e-02 5.471247237540713396e-31
8.899999999999999578e-02 7.442094231666089842e-30
8.999999999999999667e-02 7.851859901458779110e-29
9.099999999999999756e-02 7.145024834051705776e-28
9.199999999999999845e-02 5.852492033472621909e-27
9.299999999999999933e-02 4.415425817249855763e-26
9.400000000000000022e-02 3.113881251497313807e-25
9.500000000000000111e-02 2.074477580436236313e-24
9.600000000000000200e-02 1.316001980119482179e-23
9.700000000000000289e-02 7.997658659392974019e-23
9.800000000000000377e-02 4.675890343074680315e-22
9.900000000000000466e-02 2.636317306518306290e-21
1.000000000000000056e-01 1.434113562580014651e-20
1.010000000000000064e-01 7.517086534636894298e-20
1.020000000000000073e-01 3.785506770348261623e-19
1.030000000000000082e-01 1.823720665261999895e-18
1.040000000000000091e-01 8.360729695740952330e-18
1.050000000000000100e-01 3.624706767696347356e-17
1.060000000000000109e-01 1.475373898928361094e-16
1.070000000000000118e-01 5.589363954650234702e-16
1.080000000000000127e-01 1.949025352730986843e-15
1.090000000000000135e-01 6.157077411393825639e-15
1.100000000000000144e-01 1.716758245978722286e-14
1.110000000000000153e-01 4.008227669043129548e-14
1.120000000000000162e-01 6.733952588253155902e-14
1.130000000000000171e-01 1.829699586286537283e-14
1.140000000000000180e-01 -4.461118974230515732e-13
1.150000000000000189e-01 -2.352766419189133984e-12
1.160000000000000198e-01 -8.124808985321418930e-12
1.170000000000000207e-01 -2.213048494459357585e-11
1.180000000000000215e-01 -4.956449140003371667e-11
1.190000000000000224e-01 -9.111860571620056248e-11
1.199999999999999956e-01 -1.324197140828431429e-10
1.209999999999999964e-01 -1.348039457838012822e-10
1.219999999999999973e-01 -4.575362311243225122e-11
1.229999999999999982e-01 1.533106974704878667e-10
1.239999999999999991e-01 3.818573235392364040e-10
1.250000000000000000e-01 4.610305470720277299e-10
1.260000000000000009e-01 2.602708604193537667e-10
1.270000000000000018e-01 -9.823494795391241041e-11
1.280000000000000027e-01 -2.683814837034503853e-10
1.290000000000000036e-01 -7.806533197651788214e-11
1.300000000000000044e-01 1.538442706561227169e-10
1.310000000000000053e-01 5.073858000415043534e-12
1.320000000000000062e-01 -3.328629871734989365e-10
1.330000000000000071e-01 -2.650538677428926349e-10
1.340000000000000080e-01 1.397498505806282765e-10
1.350000000000000089e-01 1.762893164780621191e-10
1.360000000000000098e-01 -1.221074352741879920e-10
1.370000000000000107e-01 -7.267186852288887167e-12
1.380000000000000115e-01 3.144587645831364853e-10
1.390000000000000124e-01 6.019705567350541742e-11
1.400000000000000133e-01 -2.571878265911209382e-10
1.410000000000000142e-01 2.121092190776607822e-11
1.420000000000000151e-01 7.307388028010564085e-11
1.430000000000000160e-01 -2.547166089161834179e-10
1.440000000000000169e-01 1.137893251845767395e-11
1.450000000000000178e-01 2.689787281795474883e-10
1.460000000000000187e-01 -9.231289344047155510e-11
1.470000000000000195e-01 1.839473018350190614e-12
1.480000000000000204e-01 1.759093704034597749e-10
1.490000000000000213e-01 -2.399866694258179223e-10
1.500000000000000222e-01 -7.281203417974779768e-11
1.510000000000000231e-01 1.621841549948044303e-10
1.520000000000000240e-01 -1.499997070997238779e-10
1.530000000000000249e-01 1.380465464162483613e-10
1.540000000000000258e-01 1.357184364891850237e-10
1.550000000000000266e-01 -2.221730854845560543e-10
1.560000000000000275e-01 1.055034254404674243e-10
1.570000000000000284e-01 -8.546058305469728111e-11
1.580000000000000293e-01 -9.606880568835407530e-11
1.590000000000000302e-01 2.441486179893814779e-10
1.600000000000000311e-01 -1.271164978833283499e-10
1.610000000000000320e-01 8.255224281938922104e-11
1.620000000000000329e-01 -6.575538724629126364e-12
1.630000000000000338e-01 -1.948105843307956775e-10
1.640000000000000346e-01 1.869387977748715457e-10
1.650000000000000355e-01 -1.176731490026838856e-10
1.660000000000000364e-01 1.312530362174157972e-10
1.670000000000000373e-01 1.682198130792400548e-11
1.680000000000000382e-01 -1.533197457881385617e-10
1.689999999999999836e-01 1.256635073776379841e-10
1.699999999999999845e-01 -1.749015932084319047e-10
1.709999999999999853e-01 1.985243358593180574e-10
1.719999999999999862e-01 -6.267843188911825791e-11
1.729999999999999871e-01 5.475175868241421995e-12
1.739999999999999880e-01 3.470571052766047160e-12
1.749999999999999889e-01 -1.448713232710119314e-10
1.759999999999999898e-01 1.869927823694439439e-10
1.769999999999999907e-01 -1.276707489727968436e-10
1.779999999999999916e-01 1.760349643831204958e-10
1.789999999999999925e-01 -1.768442753347088114e-10
1.799999999999999933e-01 4.275342926907121921e-11
1.809999999999999942e-01 -6.142703012912420490e-11
1.819999999999999951e-01 2.245242186615925561e-11
1.829999999999999960e-01 5.410100492597713639e-11
1.839999999999999969e-01 -1.317641828979532193e-10
1.849999999999999978e-01 5.101812028396324195e-11
1.859999999999999987e-01 -1.821588990758016280e-10
1.869999999999999996e-01 1.478357020134879463e-10
1.880000000000000004e-01 -1.753487077760240709e-10
1.890000000000000013e-01 9.576228698904287739e-11
1.900000000000000022e-01 -2.587583758373313003e-10
1.910000000000000031e-01 4.156183730508189456e-11
1.920000000000000040e-01 -2.044875380136090826e-10
1.930000000000000049e-01 3.280770100033691961e-11
1.940000000000000058e-01 -2.422996803197463578e-10
1.950000000000000067e-01 -1.160744139694358523e-10
1.960000000000000075e-01 -2.965993839421088296e-10
1.970000000000000084e-01 -1.710159791556975506e-10
1.980000000000000093e-01 -3.205884169243944370e-10
1.990000000000000102e-01 -3.232957235255184969e-10
2.000000000000000111e-01 -4.715783874509327234e-10
2.010000000000000120e-01 -4.634327921415604123e-10
2.020000000000000129e-01 -5.510448763956787843e-10
2.030000000000000138e-01 -6.228669802155195612e-10
2.040000000000000147e-01 -8.112938099102962042e-10
2.050000000000000155e-01 -9.490074281970350967e-10
2.060000000000000164e-01 -1.120134540677497625e-09
2.070000000000000173e-01 -1.229003343539147863e-09
2.080000000000000182e-01 -1.468493660006231494e-09
2.090000000000000191e-01 -1.701903729056652992e-09
2.100000000000000200e-01 -2.070952076493881577e-09
2.110000000000000209e-01 -2.246395958138691640e-09
2.120000000000000218e-01 -2.661699083361668272e-09
2.130000000000000226e-01 -2.975762525281311355e-09
2.140000000000000235e-01 -3.609057941389437474e-09
2.150000000000000244e-01 -3.935474612859479748e-09
2.160000000000000253e-01 -4.658931906931229605e-09
2.170000000000000262e-01 -5.090309063149334179e-09
2.180000000000000271e-01 -6.094338811379884646e-09
2.190000000000000280e-01 -6.685929587746386460e-09
2.200000000000000289e-01 -7.850953664956250577e-09
2.210000000000000298e-01 -8.564526865484367590e-09
2.220000000000000306e-01 -9.933829758779211261e-09
2.230000000000000315e-01 -1.095829293973338281e-08
2.240000000000000324e-01 -1.251885617392645145e-08
2.250000000000000333e-01 -1.363711366053621532e-08
2.260000000000000342e-01 -1.532985294261379750e-08
2.270000000000000351e-01 -1.690001383281014569e-08
2.280000000000000360e-01 -1.880604116877293563e-08
2.290000000000000369e-01 -2.088252415433089482e-08
2.300000000000000377e-01 -2.288360789748367097e-08
2.310000000000000386e-01 -2.524735087661156285e-08
2.319999999999999840e-01 -2.756569550399490254e-08
2.329999999999999849e-01 -3.048737440281001909e-08
2.339999999999999858e-01 -3.285244787321062176e-08
2.349999999999999867e-01 -3.609164167528433609e-08
2.359999999999999876e-01 -3.893654820785741322e-08
2.369999999999999885e-01 -4.200285985689333756e-08
2.379999999999999893e-01 -4.490542693247334682e-08
2.389999999999999902e-01 -4.811770182300278975e-08
2.399999999999999911e-01 -5.156617532975360518e-08
2.409999999999999920e-01 -5.517481937999946240e-08
2.419999999999999929e-01 -5.899377342188927287e-08
2.429999999999999938e-01 -6.205446823059901362e-08
2.439999999999999947e-01 -6.626314785762588144e-08
2.449999999999999956e-01 -6.960654985732617206e-08
2.459999999999999964e-01 -7.295741255575194373e-08
2.469999999999999973e-01 -7.673935442653601058e-08
2.479999999999999982e-01 -7.935550883075848105e-08
2.489999999999999991e-01 -8.213805813284125179e-08
2.500000000000000000e-01 -8.470284740269562462e-08
2.510000000000000009e-01 -8.725613298565804143e-08
2.520000000000000018e-01 -8.972008203045334085e-08
2.530000000000000027e-01 -9.087673191743306234e-08
2.540000000000000036e-01 -9.149747626224780106e-08
2.550000000000000044e-01 -9.328368832939304411e-08
2.560000000000000053e-01 -9.393129118961951463e-08
2.570000000000000062e-01 -9.138559420307501568e-08
2.580000000000000071e-01 -8.964586584170319838e-08
2.590000000000000080e-01 -8.805309903436864261e-08
2.600000000000000089e-01 -8.508693127851074678e-08
2.610000000000000098e-01 -8.128748163471755106e-08
2.620000000000000107e-01 -7.736156959481377271e-08
2.630000000000000115e-01 -7.071368202105077216e-08
2.640000000000000124e-01 -6.554493126031957217e-08
2.650000000000000133e-01 -6.116099626751747564e-08
2.660000000000000142e-01 -5.197482977337131160e-08
2.670000000000000151e-01 -4.503558415080988198e-08
2.680000000000000160e-01 -3.481048693743105105e-08
2.690000000000000169e-01 -2.363397477722628537e-08
2.700000000000000178e-01 -1.038011721021803169e-08
2.710000000000000187e-01 7.965050841107768065e-11
2.720000000000000195e-01 1.328927368149379618e-08
2.730000000000000204e-01 2.537096932542226568e-08
2.740000000000000213e-01 3.915527457820644486e-08
2.750000000000000222e-01 5.207335718182548590e-08
2.760000000000000231e-01 6.448271250292236800e-08
2.770000000000000240e-01 7.871683038729315740e-08
2.780000000000000249e-01 9.275109391637670342e-08
2.790000000000000258e-01 1.066316457354332670e-07
2.800000000000000266e-01 1.226023016442923108e-07
2.810000000000000275e-01 1.351399134819075698e-07
2.820000000000000284e-01 1.482611367009667447e-07
2.830000000000000293e-01 1.604687298595308675e-07
2.840000000000000302e-01 1.716797299877725891e-07
2.850000000000000311e-01 1.816169259427624638e-07
2.860000000000000320e-01 1.912502511913771741e-07
2.870000000000000329e-01 2.000554673031729180e-07
2.880000000000000338e-01 2.072625591154064750e-07
2.890000000000000346e-01 2.129888798663159832e-07
2.900000000000000355e-01 2.174019186895748135e-07
2.910000000000000364e-01 2.205218265771691222e-07
2.920000000000000373e-01 2.217718133579182904e-07
2.930000000000000382e-01 2.221983663730497938e-07
2.940000000000000391e-01 2.204679958595079370e-07
2.950000000000000400e-01 2.170123138967028353e-07
2.960000000000000409e-01 2.128505940390823525e-07
2.969999999999999862e-01 2.057668666566314641e-07
2.979999999999999871e-01 1.983097064339744975e-07
2.989999999999999880e-01 1.886675278228722163e-07
2.999999999999999889e-01 1.786214482990544639e-07
3.009999999999999898e-01 1.663317732436553342e-07
3.019999999999999907e-01 1.528882904722195235e-07
3.029999999999999916e-01 1.379440561777300900e-07
3.039999999999999925e-01 1.240485971720772795e-07
3.049999999999999933e-01 1.071944026875826239e-07
3.059999999999999942e-01 9.245997034668107517e-08
3.069999999999999951e-01 7.633350662672455655e-08
3.079999999999999960e-01 6.131620011728955433e-08
3.089999999999999969e-01 4.662403441102469515e-08
3.099999999999999978e-01 2.781773922322372528e-08
3.109999999999999987e-01 1.092127810409238009e-08
3.119999999999999996e-01 -3.643072510328693170e-09
3.130000000000000004e-01 -2.100623497369724646e-08
3.140000000000000013e-01 -3.783526381084811874e-08
3.150000000000000022e-01 -5.472027808650636871e-08
3.160000000000000031e-01 -6.802678598205602611e-08
3.170000000000000040e-01 -8.338859913692431292e-08
3.180000000000000049e-01 -9.479693119374132948e-08
3.190000000000000058e-01 -1.059120720015016559e-07
3.200000000000000067e-01 -1.155143820597004378e-07
3.210000000000000075e-01 -1.242575820015190402e-07
3.220000000000000084e-01 -1.320516958003281616e-07
3.230000000000000093e-01 -1.384371159929287387e-07
3.240000000000000102e-01 -1.424097746394181740e-07
3.250000000000000111e-01 -1.454249627386161592e-07
3.260000000000000120e-01 -1.484452525346569018e-07
3.270000000000000129e-01 -1.501105231227484182e-07
3.280000000000000138e-01 -1.502664872532477602e-07
3.290000000000000147e-01 -1.503116351386779570e-07
3.300000000000000155e-01 -1.484609271074077697e-07
3.310000000000000164e-01 -1.456135834132510354e-07
3.320000000000000173e-01 -1.429841063327330630e-07
3.330000000000000182e-01 -1.385033669976110104e-07
3.340000000000000191e-01 -1.339390536259088549e-07
3.350000000000000200e-01 -1.288792077502876054e-07
3.360000000000000209e-01 -1.238028914940514369e-07
3.370000000000000218e-01 -1.177010986452842189e-07
3.380000000000000226e-01 -1.112824321580774267e-07
3.390000000000000235e-01 -1.047990068059334590e-07
3.400000000000000244e-01 -9.858955962727122824e-08
3.410000000000000253e-01 -9.163029801584343659e-08
3.420000000000000262e-01 -8.534222928346935078e-08
3.430000000000000271e-01 -7.877789443000438041e-08
3.440000000000000280e-01 -7.235489363210945157e-08
3.450000000000000289e-01 -6.625855775155287120e-08
3.460000000000000298e-01 -6.010645137166648055e-08
3.470000000000000306e-01 -5.371354561134467076e-08
3.480000000000000315e-01 -4.840439515874095378e-08
3.490000000000000324e-01 -4.316403945381352969e-08
3.500000000000000333e-01 -3.830630035395188315e-08
3.510000000000000342e-01 -3.330854880800870887e-08
3.520000000000000351e-01 -2.858969949670608912e-08
3.530000000000000360e-01 -2.483516681195396814e-08
3.540000000000000369e-01 -2.112491337413757719e-08
3.550000000000000377e-01 -1.713367403510801523e-08
3.560000000000000386e-01 -1.362390911197053356e-08
3.570000000000000395e-01 -1.122288928456782742e-08
3.580000000000000404e-01 -8.380786731265743583e-09
3.590000000000000413e-01 -6.354536452590764384e-09
3.599999999999999867e-01 -4.232352690536345108e-09
3.609999999999999876e-01 -2.768102413952533425e-09
3.619999999999999885e-01 -9.951145463205079977e-10
3.629999999999999893e-01 1.981382280469290436e-10
3.639999999999999902e-01 1.065871835237430787e-09
3.649999999999999911e-01 1.380290548524953920e-09
3.659999999999999920e-01 2.226130169091788957e-09
3.669999999999999929e-01 2.410909250016857186e-09
3.679999999999999938e-01 2.997326165044000845e-09
3.689999999999999947e-01 2.545889055127759093e-09
3.699999999999999956e-01 2.321819403405811499e-09
3.709999999999999964e-01 2.337462223778175030e-09
3.719999999999999973e-01 1.561659579429885980e-09
3.729999999999999982e-01 1.591960230307165602e-09
3.739999999999999991e-01 1.987686459870019462e-09
3.750000000000000000e-01 1.270396565722364812e-09
3.760000000000000009e-01 1.174935815306810127e-09
3.770000000000000018e-01 5.985278939135696419e-10
3.780000000000000027e-01 -6.634615079548211725e-11
3.790000000000000036e-01 -4.633848860180478368e-10
3.800000000000000044e-01 -1.134224603127620412e-09
3.810000000000000053e-01 -1.473480226721335384e-09
3.820000000000000062e-01 -1.842238805949136804e-09
3.830000000000000071e-01 -2.090523310016578762e-09
3.840000000000000080e-01 -2.308331970013455248e-09
3.850000000000000089e-01 -2.932314835391025554e-09
3.860000000000000098e-01 -3.513521029674393503e-09
3.870000000000000107e-01 -3.652365965223225430e-09
3.880000000000000115e-01 -4.105111806040895317e-09
3.890000000000000124e-01 -4.948199183729684592e-09
3.900000000000000133e-01 -5.317619677924767529e-09
3.910000000000000142e-01 -5.682451842403679620e-09
3.920000000000000151e-01 -6.251868800433157958e-09
3.930000000000000160e-01 -6.486144954465089540e-09
3.940000000000000169e-01 -6.434249133491221073e-09
3.950000000000000178e-01 -7.169647542326629264e-09
3.960000000000000187e-01 -7.102783250445554586e-09
3.970000000000000195e-01 -7.261973244965247432e-09
3.980000000000000204e-01 -7.428116788332772558e-09
3.990000000000000213e-01 -7.722824157951890811e-09
4.000000000000000222e-01 -8.248125737964073778e-09
4.010000000000000231e-01 -8.706400933533586795e-09
4.020000000000000240e-01 -8.562918374366290664e-09
4.030000000000000249e-01 -8.868378031934298633e-09
4.040000000000000258e-01 -9.005203693845942325e-09
4.050000000000000266e-01 -8.835039366772434732e-09
4.060000000000000275e-01 -9.082224750045497785e-09
4.070000000000000284e-01 -9.488767105381157307e-09
4.080000000000000293e-01 -9.469474981926850887e-09
4.090000000000000302e-01 -9.401835754374587850e-09
4.100000000000000311e-01 -9.622976193668364431e-09
4.110000000000000320e-01 -9.638460696237416414e-09
4.120000000000000329e-01 -9.856065297242366796e-09
4.130000000000000338e-01 -9.871518713566729275e-09
4.140000000000000346e-01 -9.669770761888685229e-09
4.150000000000000355e-01 -9.861847338754614611e-09
4.160000000000000364e-01 -9.834256964325049921e-09
4.170000000000000373e-01 -9.845201986991014564e-09
4.180000000000000382e-01 -9.891937935435635154e-09
4.190000000000000391e-01 -9.688863045198559121e-09
4.200000000000000400e-01 -9.900754882607998297e-09
4.210000000000000409e-01 -9.844201898090432223e-09
4.220000000000000417e-01 -9.649268939426747238e-09
4.230000000000000426e-01 -9.776638165703843697e-09
4.240000000000000435e-01 -9.712382897930638137e-09
4.250000000000000444e-01 -9.207765216956431686e-09
4.260000000000000453e-01 -9.076076779024333518e-09
4.270000000000000462e-01 -8.807067075622398988e-09
4.280000000000000471e-01 -8.247436511510386481e-09
4.290000000000000480e-01 -8.151987529458892823e-09
4.300000000000000488e-01 -7.949322089473298547e-09
4.310000000000000497e-01 -7.221958142622497689e-09
4.320000000000000506e-01 -6.945374053657360491e-09
4.330000000000000515e-01 -6.551046816127836792e-09
4.340000000000000524e-01 -5.958612714351829709e-09
4.350000000000000533e-01 -5.475229603035813852e-09
4.360000000000000542e-01 -4.540576803435669717e-09
4.370000000000000551e-01 -3.992351338411026518e-09
4.380000000000000560e-01 -3.420476790694237934e-09
4.390000000000000568e-01 -2.512520858033440163e-09
4.400000000000000577e-01 -1.720802167426427332e-09
4.410000000000000586e-01 -5.973950223392421321e-10
4.420000000000000595e-01 3.074154264481876453e-10
4.430000000000000604e-01 1.506267111039960582e-09
4.440000000000000613e-01 2.754853234421261732e-09
4.450000000000000622e-01 4.177889145751123579e-09
4.460000000000000631e-01 5.602881714139584801e-09
4.470000000000000639e-01 6.926059725742561568e-09
4.480000000000000648e-01 8.589912781076236570e-09
4.490000000000000657e-01 1.026642415524747776e-08
4.500000000000000666e-01 1.196206600440063994e-08
4.510000000000000675e-01 1.364905077849698500e-08
4.520000000000000684e-01 1.574241714763502387e-08
4.530000000000000693e-01 1.743768329731665290e-08
4.540000000000000702e-01 1.933407212106885709e-08
4.550000000000000711e-01 2.087137573880681884e-08
4.560000000000000719e-01 2.291493927941701259e-08
4.569999999999999618e-01 2.491280604033363488e-08
4.579999999999999627e-01 2.662302556188933522e-08
4.589999999999999636e-01 2.834350887326309021e-08
4.599999999999999645e-01 3.010114468793290143e-08
4.609999999999999654e-01 3.172385731886606663e-08
4.619999999999999662e-01 3.273615334364876617e-08
4.629999999999999671e-01 3.393164860199249233e-08
4.639999999999999680e-01 3.513899571316869697e-08
4.649999999999999689e-01 3.576893803369785019e-08
4.659999999999999698e-01 3.645099155846764916e-08
4.669999999999999707e-01 3.631213374433173158e-08