-1.199999999999999956e-01 -0.000000000000000000e+00
-1.189999999999999947e-01 -0.000000000000000000e+00
-1.179999999999999938e-01 -0.000000000000000000e+00
-1.169999999999999929e-01 -0.000000000000000000e+00
-1.159999999999999920e-01 -0.000000000000000000e+00
-1.149999999999999911e-01 -0.000000000000000000e+00
-1.139999999999999902e-01 -0.000000000000000000e+00
-1.129999999999999893e-01 -0.000000000000000000e+00
-1.119999999999999885e-01 -0.000000000000000000e+00
-1.109999999999999876e-01 -0.000000000000000000e+00
-1.100000000000000006e-01 -0.000000000000000000e+00
-1.089999999999999997e-01 -0.000000000000000000e+00
-1.079999999999999988e-01 -0.000000000000000000e+00
-1.069999999999999979e-01 -0.000000000000000000e+00
-1.059999999999999970e-01 -0.000000000000000000e+00
-1.049999999999999961e-01 -0.000000000000000000e+00
-1.039999999999999952e-01 -0.000000000000000000e+00
-1.029999999999999943e-01 -0.000000000000000000e+00
-1.019999999999999934e-01 -0.000000000000000000e+00
-1.009999999999999926e-01 -0.000000000000000000e+00
-9.999999999999999167e-02 -0.000000000000000000e+00
-9.899999999999999079e-02 -0.000000000000000000e+00
-9.800000000000000377e-02 -0.000000000000000000e+00
-9.700000000000000289e-02 -0.000000000000000000e+00
-9.600000000000000200e-02 -0.000000000000000000e+00
-9.500000000000000111e-02 -0.000000000000000000e+00
-9.400000000000000022e-02 -0.000000000000000000e+00
-9.299999999999999933e-02 -0.000000000000000000e+00
-9.199999999999999845e-02 -0.000000000000000000e+00
-9.099999999999999756e-02 -0.000000000000000000e+00
-8.999999999999999667e-02 -0.000000000000000000e+00
-8.899999999999999578e-02 -0.000000000000000000e+00
-8.799999999999999489e-02 -0.000000000000000000e+00
-8.699999999999999400e-02 -0.000000000000000000e+00
-8.599999999999999312e-02 -0.000000000000000000e+00
-8.499999999999999223e-02 -0.000000000000000000e+00
-8.399999999999999134e-02 -0.000000000000000000e+00
-8.299999999999999045e-02 -0.000000000000000000e+00
-8.199999999999998956e-02 -0.000000000000000000e+00
-8.099999999999998868e-02 -0.000000000000000000e+00
-7.999999999999998779e-02 -0.000000000000000000e+00
-7.899999999999998690e-02 -0.000000000000000000e+00
-7.799999999999998601e-02 -0.000000000000000000e+00
-7.699999999999998512e-02 -0.000000000000000000e+00
-7.599999999999999811e-02 -0.000000000000000000e+00
-7.499999999999999722e-02 -0.000000000000000000e+00
-7.399999999999999634e-02 -0.000000000000000000e+00
-7.299999999999999545e-02 -0.000000000000000000e+00
-7.199999999999999456e-02 -0.000000000000000000e+00
-7.099999999999999367e-02 -0.000000000000000000e+00
-6.999999999999999278e-02 -0.000000000000000000e+00
-6.899999999999999190e-02 -0.000000000000000000e+00
-6.799999999999999101e-02 -0.000000000000000000e+00
-6.700000000000000400e-02 -0.000000000000000000e+00
-6.600000000000000311e-02 -0.000000000000000000e+00
-6.500000000000000222e-02 -0.000000000000000000e+00
-6.400000000000000133e-02 -0.000000000000000000e+00
-6.300000000000000044e-02 -0.000000000000000000e+00
-6.199999999999999262e-02 -0.000000000000000000e+00
-6.099999999999999173e-02 -0.000000000000000000e+00
-5.999999999999999778e-02 -0.000000000000000000e+00
-5.899999999999999689e-02 0.000000000000000000e+00
-5.799999999999999600e-02 -4.904544625136859748e-44
-5.699999999999999512e-02 2.948359994908701614e-40
-5.599999999999999423e-02 -9.060144771005803298e-37
-5.499999999999999334e-02 1.418356810160949271e-33
-5.399999999999999245e-02 -1.063247241618199866e-30
-5.299999999999999156e-02 3.373409297892614349e-28
-5.199999999999999067e-02 -3.159765099530461077e-26
-5.099999999999998979e-02 -9.228842314983093008e-25
-4.999999999999998890e-02 3.593182537191186672e-23
-4.899999999999998801e-02 2.832201793896211053e-21
-4.799999999999998712e-02 9.832488500029848157e-20
-4.700000000000000011e-02 2.451576806379043321e-18
-4.599999999999999922e-02 4.819746840924772223e-17
-4.499999999999999833e-02 7.246189516237208032e-16
-4.399999999999999745e-02 7.446173465688356308e-15
-4.299999999999999656e-02 3.825719851590497766e-14
-4.199999999999999567e-02 -1.310126594884775120e-13
-4.099999999999999478e-02 -3.709865747936191838e-12
-3.999999999999999389e-02 -2.644961506759191394e-11
-3.899999999999999301e-02 -8.245079619051409736e-11
-3.799999999999999212e-02 -1.048849895823877887e-11
-3.699999999999999123e-02 7.071863095120534126e-10
-3.599999999999999034e-02 1.893043943823613517e-09
-3.499999999999998945e-02 1.205853195074269024e-09
-3.399999999999998856e-02 -1.503790425516626783e-09
-3.299999999999998768e-02 -6.723149814646944833e-10
-3.200000000000000067e-02 1.781856551197336103e-09
-3.099999999999999978e-02 -6.211364755870363297e-10
-2.999999999999999889e-02 2.586504344037621195e-10
-2.899999999999999800e-02 1.576846986317548271e-09
-2.799999999999999711e-02 -1.097191892895921228e-09
-2.699999999999999623e-02 1.271605820640786533e-09
-2.599999999999999534e-02 -1.016562833910938934e-09
-2.499999999999999445e-02 -8.418543639976405757e-11
-2.399999999999999356e-02 -1.554241180201643147e-10
-2.299999999999999267e-02 -5.210446518688627293e-10
-2.199999999999999178e-02 1.093406254426554369e-09
-2.099999999999999090e-02 -1.008962913218169888e-10
-1.999999999999999001e-02 2.086895545261313600e-09
-1.899999999999998912e-02 2.772284624086296390e-10
-1.799999999999998823e-02 2.107151786390204506e-09
-1.699999999999998734e-02 -5.784167589339972437e-10
-1.599999999999998646e-02 4.663323616149739337e-10
-1.499999999999999944e-02 -2.138134114204603975e-09
-1.399999999999999856e-02 -2.743708871211225642e-10
-1.299999999999999767e-02 -9.735017236778276128e-10
-1.199999999999999678e-02 1.521544557014919974e-09
-1.099999999999999589e-02 5.928988411341151732e-10
-9.999999999999995004e-03 -9.257572486376375309e-11
-8.999999999999994116e-03 -1.605278021621359130e-09
-7.999999999999993228e-03 -2.497857198857644789e-10
-6.999999999999992339e-03 3.405929094313364658e-09
-5.999999999999991451e-03 9.546019530404237230e-10
-4.999999999999990563e-03 -1.246391878595431990e-09
-3.999999999999989675e-03 -1.706255359223973755e-09
-2.999999999999988787e-03 3.624078148689591217e-09
-1.999999999999987899e-03 -2.958438216627001793e-10
-9.999999999999870104e-04 -1.059077270326724829e-10
0.000000000000000000e+00 3.174688512075363178e-09
1.000000000000000888e-03 2.085611683355637069e-10
2.000000000000001776e-03 -2.604624071977923450e-09
3.000000000000002665e-03 8.422462727253332559e-10
4.000000000000003553e-03 2.870053528170046775e-09
5.000000000000004441e-03 -4.069804049322556239e-09
6.000000000000005329e-03 3.350818289504786662e-09
7.000000000000006217e-03 1.999314491740733502e-09
8.000000000000007105e-03 -1.175699537725449773e-09
9.000000000000007994e-03 4.448718726735023665e-09
1.000000000000000888e-02 5.484892540152941365e-10
1.100000000000000977e-02 2.431264078950334806e-09
1.200000000000001066e-02 4.693113453413388925e-09
1.300000000000001155e-02 3.099650314197788248e-09
1.400000000000001243e-02 4.565492872643517330e-09
1.500000000000001332e-02 4.193253744233516045e-09
1.600000000000001421e-02 7.690061920584412292e-09
1.700000000000001510e-02 4.237136863594059832e-09
1.800000000000001599e-02 8.403233664466824848e-09
1.900000000000001688e-02 1.103330760088283569e-08
2.000000000000001776e-02 7.909818577900296077e-09
2.100000000000001865e-02 1.469751964577881154e-08
2.200000000000001954e-02 1.633213742024963722e-08
2.300000000000002043e-02 1.562085572004434653e-08
2.400000000000002132e-02 2.316733116458635777e-08
2.499999999999999445e-02 2.420080136289470829e-08
2.599999999999999534e-02 2.525513309592497535e-08
2.699999999999999623e-02 3.338271881148102693e-08
2.799999999999999711e-02 3.713250862347194925e-08
2.899999999999999800e-02 3.976742846134584397e-08
2.999999999999999889e-02 4.672051545639988035e-08
3.099999999999999978e-02 5.529113877855706960e-08
3.200000000000000067e-02 6.191794454935006797e-08
3.300000000000000155e-02 6.765208127035293728e-08
3.400000000000000244e-02 7.920039024611469358e-08
3.500000000000000333e-02 9.095174391404725611e-08
3.600000000000000422e-02 9.842096915235742927e-08
3.700000000000000511e-02 1.107921434595482424e-07
3.800000000000000600e-02 1.257521944353356957e-07
3.900000000000000688e-02 1.386742951581254601e-07
4.000000000000000777e-02 1.536591298645362258e-07
4.100000000000000866e-02 1.691901161393616349e-07
4.200000000000000955e-02 1.865573722170665860e-07
4.300000000000001044e-02 2.076471901091281325e-07
4.400000000000001132e-02 2.271235644002445042e-07
4.500000000000001221e-02 2.464230419718660414e-07
4.600000000000001310e-02 2.686829247977584600e-07
4.700000000000001399e-02 2.914093784056603909e-07
4.800000000000001488e-02 3.171817297697998583e-07
4.900000000000001577e-02 3.412578735151328146e-07
5.000000000000001665e-02 3.608292900025844574e-07
5.100000000000001754e-02 3.924760676454752684e-07
5.200000000000001843e-02 4.099911166122183204e-07
5.300000000000001932e-02 4.416979209054261446e-07
5.400000000000002021e-02 4.714020178653299809e-07
5.500000000000002109e-02 4.732719389721751213e-07
5.599999999999999423e-02 5.321635399013757706e-07
5.699999999999999512e-02 5.103320290800184011e-07
5.799999999999999600e-02 5.534675437957048416e-07
5.899999999999999689e-02 5.717447493225336075e-07
5.999999999999999778e-02 5.658184818457812071e-07
6.099999999999999867e-02 5.892943590879440308e-07
6.199999999999999956e-02 5.974761734250932932e-07
6.300000000000000044e-02 5.835499905515462160e-07
6.400000000000000133e-02 5.817310011480003595e-07
6.500000000000000222e-02 5.813235475216060877e-07
6.600000000000000311e-02 5.521942512132227421e-07
6.700000000000000400e-02 5.218789738137274981e-07
6.800000000000000488e-02 5.080255505163222551e-07
6.900000000000000577e-02 4.550456651486456394e-07
7.000000000000000666e-02 4.079665814060717821e-07
7.100000000000000755e-02 3.484383341856300831e-07
7.200000000000000844e-02 3.016757545992732048e-07
7.300000000000000933e-02 2.028682501986622810e-07
7.400000000000001021e-02 1.339067239314317703e-07
7.500000000000001110e-02 4.225148586556315422e-08
7.600000000000001199e-02 -5.578476702794432640e-08
7.700000000000001288e-02 -1.773005351424217224e-07
7.800000000000001377e-02 -2.879896783269941807e-07
7.900000000000001465e-02 -4.002140485681593418e-07
8.000000000000001554e-02 -5.485781002789735794e-07
8.100000000000001643e-02 -6.759837560821324587e-07
8.200000000000001732e-02 -8.182832971215248108e-07
8.300000000000001821e-02 -9.515206329524517059e-07
8.400000000000001910e-02 -1.104741386370733380e-06
8.500000000000001998e-02 -1.242151483893394470e-06
8.600000000000002087e-02 -1.360120222670957446e-06
8.700000000000002176e-02 -1.492831870564259589e-06
8.800000000000002265e-02 -1.595821231603622437e-06
8.899999999999999578e-02 -1.700168468232732266e-06
8.999999999999999667e-02 -1.775488726707408205e-06
9.099999999999999756e-02 -1.853099092841148376e-06
9.199999999999999845e-02 -1.929593054228462279e-06
9.299999999999999933e-02 -1.964546754606999457e-06
9.400000000000000022e-02 -2.003565896302461624e-06
9.500000000000000111e-02 -2.012508048210293055e-06
9.600000000000000200e-02 -1.993292244151234627e-06
9.700000000000000289e-02 -1.927866833284497261e-06
9.800000000000000377e-02 -1.809348759707063437e-06
9.900000000000000466e-02 -1.667081960476934910e-06
1.000000000000000056e-01 -1.459702616557478905e-06
1.010000000000000064e-01 -1.205102307721972466e-06
1.020000000000000073e-01 -9.124778443947434425e-07
1.030000000000000082e-01 -5.564070306718349457e-07
1.040000000000000091e-01 -1.506705302745103836e-07
1.050000000000000100e-01 3.455643309280276299e-07
1.060000000000000109e-01 9.251962183043360710e-07
1.070000000000000118e-01 1.580003299750387669e-06
1.080000000000000127e-01 2.355343895033001900e-06
1.090000000000000135e-01 3.232460585422813892e-06
1.100000000000000144e-01 4.221219569444656372e-06
1.110000000000000153e-01 5.337773473002016544e-06
1.120000000000000162e-01 6.586153176613152027e-06
1.130000000000000171e-01 8.019036613404750824e-06
1.140000000000000180e-01 9.630835847929120064e-06
1.150000000000000189e-01 1.143908593803644180e-05
1.160000000000000198e-01 1.349537342321127653e-05
1.170000000000000207e-01 1.579341187607496977e-05
1.180000000000000215e-01 1.837110903579741716e-05
1.190000000000000224e-01 2.125708851963281631e-05
1.199999999999999956e-01 2.447592123644426465e-05
1.209999999999999964e-01 2.809738361975178123e-05
1.219999999999999973e-01 3.214760363334789872e-05
1.229999999999999982e-01 3.665840631583705544e-05
1.239999999999999991e-01 4.169849853496998549e-05
1.250000000000000000e-01 4.729333522845990956e-05
1.260000000000000009e-01 5.349819184630177915e-05
1.270000000000000018e-01 6.036992272129282355e-05
1.280000000000000027e-01 6.795134686399251223e-05
1.290000000000000036e-01 7.633437780896201730e-05
1.300000000000000044e-01 8.556242391932755709e-05
1.310000000000000053e-01 9.566696826368570328e-05
1.320000000000000062e-01 1.067327903001569211e-04
1.330000000000000071e-01 1.187924426631070673e-04
1.340000000000000080e-01 1.318938593612983823e-04
1.350000000000000089e-01 1.461022620787844062e-04
1.360000000000000098e-01 1.614414213690906763e-04
1.370000000000000107e-01 1.779559388523921371e-04
1.380000000000000115e-01 1.956797641469165683e-04
1.390000000000000124e-01 2.145921316696330905e-04
1.400000000000000133e-01 2.347014669794589281e-04
1.410000000000000142e-01 2.560067805461585522e-04
1.420000000000000151e-01 2.784614916890859604e-04
1.430000000000000160e-01 3.020390286110341549e-04
1.440000000000000169e-01 3.266576677560806274e-04
1.450000000000000178e-01 3.522206388879567385e-04
1.460000000000000187e-01 3.786330926232039928e-04
1.470000000000000195e-01 4.057366168126463890e-04
1.480000000000000204e-01 4.333530669100582600e-04
1.490000000000000213e-01 4.613243218045681715e-04
1.500000000000000222e-01 4.894157173112034798e-04
1.510000000000000231e-01 5.173767567612230778e-04
1.520000000000000240e-01 5.449372692964971066e-04
1.530000000000000249e-01 5.717703024856746197e-04
1.540000000000000258e-01 5.975480889901518822e-04
1.550000000000000266e-01 6.219203351065516472e-04
1.560000000000000275e-01 6.444879691116511822e-04
1.570000000000000284e-01 6.648541893810033798e-04
1.580000000000000293e-01 6.826064782217144966e-04
1.590000000000000302e-01 6.972862756811082363e-04
1.600000000000000311e-01 7.084440439939498901e-04
1.610000000000000320e-01 7.156195351853966713e-04
1.620000000000000329e-01 7.183555280789732933e-04
1.630000000000000338e-01 7.162209949456155300e-04
1.640000000000000346e-01 7.087753619998693466e-04
1.650000000000000355e-01 6.955859134905040264e-04
1.660000000000000364e-01 6.762759294360876083e-04
1.670000000000000373e-01 6.504895864054560661e-04
1.680000000000000382e-01 6.179031333886086941e-04
1.689999999999999836e-01 5.782729131169617176e-04
1.699999999999999845e-01 5.313891451805830002e-04
1.709999999999999853e-01 4.771067760884761810e-04
1.719999999999999862e-01 4.153819172643125057e-04
1.729999999999999871e-01 3.462030144874006510e-04
1.739999999999999880e-01 2.696691663004457951e-04
1.749999999999999889e-01 1.859873009379953146e-04
1.759999999999999898e-01 9.542703628540039062e-05
1.769999999999999907e-01 -1.631211489439010620e-06
1.779999999999999916e-01 -1.047176774591207504e-04
1.789999999999999925e-01 -2.132540103048086166e-04
1.799999999999999933e-01 -3.265944251324981451e-04
1.809999999999999942e-01 -4.439670592546463013e-04
1.819999999999999951e-01 -5.645287455990910530e-04
1.829999999999999960e-01 -6.873625679872930050e-04
1.839999999999999969e-01 -8.114471565932035446e-04
1.849999999999999978e-01 -9.357337839901447296e-04
1.859999999999999987e-01 -1.059116097167134285e-03
1.869999999999999996e-01 -1.180424354970455170e-03
1.880000000000000004e-01 -1.298482529819011688e-03
1.890000000000000013e-01 -1.412082696333527565e-03
1.900000000000000022e-01 -1.520025194622576237e-03
1.910000000000000031e-01 -1.621141098439693451e-03
1.920000000000000040e-01 -1.714284764602780342e-03
1.930000000000000049e-01 -1.798349199816584587e-03
1.940000000000000058e-01 -1.872313208878040314e-03
1.950000000000000067e-01 -1.935231499373912811e-03
1.960000000000000075e-01 -1.986233051866292953e-03
1.970000000000000084e-01 -2.024576067924499512e-03
1.980000000000000093e-01 -2.049640985205769539e-03
1.990000000000000102e-01 -2.060929778963327408e-03
2.000000000000000111e-01 -2.058102516457438469e-03
2.010000000000000120e-01 -2.040955936536192894e-03
2.020000000000000129e-01 -2.009419724345207214e-03
2.030000000000000138e-01 -1.963612390682101250e-03
2.040000000000000147e-01 -1.903800992295145988e-03
2.050000000000000155e-01 -1.830395893193781376e-03
2.060000000000000164e-01 -1.743975328281521797e-03
2.070000000000000173e-01 -1.645249780267477036e-03
2.080000000000000182e-01 -1.535058487206697464e-03
2.090000000000000191e-01 -1.414383063092827797e-03
2.100000000000000200e-01 -1.284327590838074684e-03
2.110000000000000209e-01 -1.146043883636593819e-03
2.120000000000000218e-01 -1.000825432129204273e-03
2.130000000000000226e-01 -8.500132826156914234e-04
2.140000000000000235e-01 -6.949792150408029556e-04
2.150000000000000244e-01 -5.371522856876254082e-04
2.160000000000000253e-01 -3.779552935156971216e-04
2.170000000000000262e-01 -2.188083308283239603e-04
2.180000000000000271e-01 -6.111990660429000854e-05
2.190000000000000280e-01 9.373886132379993796e-05
2.200000000000000289e-01 2.444846613798290491e-04
2.210000000000000298e-01 3.898957220371812582e-04
2.220000000000000306e-01 5.288176471367478371e-04
2.230000000000000315e-01 6.602121284231543541e-04
2.240000000000000324e-01 7.831474067643284798e-04
2.250000000000000333e-01 8.967991452664136887e-04
2.260000000000000342e-01 1.000481192022562027e-03
2.270000000000000351e-01 1.093640341423451900e-03
2.280000000000000360e-01 1.175847603008151054e-03
2.290000000000000369e-01 1.246808795258402824e-03
2.300000000000000377e-01 1.306354417465627193e-03
2.310000000000000386e-01 1.354449661448597908e-03
2.319999999999999840e-01 1.391175901517271996e-03
2.329999999999999849e-01 1.416758401319384575e-03
2.339999999999999858e-01 1.431490993127226830e-03
2.349999999999999867e-01 1.435791724361479282e-03
2.359999999999999876e-01 1.430165488272905350e-03
2.369999999999999885e-01 1.415189239196479321e-03
2.379999999999999893e-01 1.391505124047398567e-03
2.389999999999999902e-01 1.359832705929875374e-03
2.399999999999999911e-01 1.320908428169786930e-03
2.409999999999999920e-01 1.275507849641144276e-03
2.419999999999999929e-01 1.224442967213690281e-03
2.429999999999999938e-01 1.168513437733054161e-03
2.439999999999999947e-01 1.108515425585210323e-03
2.449999999999999956e-01 1.045253011398017406e-03
2.459999999999999964e-01 9.795030346140265465e-04
2.469999999999999973e-01 9.120039176195859909e-04
2.479999999999999982e-01 8.434710325673222542e-04
2.489999999999999991e-01 7.745646871626377106e-04
2.500000000000000000e-01 7.058938499540090561e-04
2.510000000000000009e-01 6.380414124578237534e-04
2.520000000000000018e-01 5.715270526707172394e-04
2.530000000000000027e-01 5.067958263680338860e-04
2.540000000000000036e-01 4.442529752850532532e-04
2.550000000000000044e-01 3.842484438791871071e-04
2.560000000000000053e-01 3.270552260801196098e-04
2.570000000000000062e-01 2.729136613197624683e-04
2.580000000000000071e-01 2.220115275122225285e-04
2.590000000000000080e-01 1.744682522257789969e-04
2.600000000000000089e-01 1.303723402088508010e-04
2.610000000000000098e-01 8.976275421446189284e-05
2.620000000000000107e-01 5.262818376650102437e-05
2.630000000000000115e-01 1.893225453386548907e-05
2.640000000000000124e-01 -1.138101470132824033e-05
2.650000000000000133e-01 -3.840820863842964172e-05
2.660000000000000142e-01 -6.227738776942715049e-05
2.670000000000000151e-01 -8.312668796861544251e-05
2.680000000000000160e-01 -1.011147032841108739e-04
2.690000000000000169e-01 -1.164128188975155354e-04
2.700000000000000178e-01 -1.291855733143165708e-04
2.710000000000000187e-01 -1.396151492372155190e-04
2.720000000000000195e-01 -1.478994236094877124e-04
2.730000000000000204e-01 -1.542162644909694791e-04
2.740000000000000213e-01 -1.587476144777610898e-04
2.750000000000000222e-01 -1.616824738448485732e-04
2.760000000000000231e-01 -1.631901686778292060e-04
2.770000000000000240e-01 -1.634269574424251914e-04
2.780000000000000249e-01 -1.625619333935901523e-04
2.790000000000000258e-01 -1.607463345862925053e-04
2.800000000000000266e-01 -1.581107062520459294e-04
2.810000000000000275e-01 -1.547963765915483236e-04
2.820000000000000284e-01 -1.509232824901118875e-04
2.830000000000000293e-01 -1.465842069592326880e-04
2.840000000000000302e-01 -1.418862084392458200e-04
2.850000000000000311e-01 -1.369250385323539376e-04
2.860000000000000320e-01 -1.317763235419988632e-04
2.870000000000000329e-01 -1.265073515241965652e-04
2.880000000000000338e-01 -1.211851631524041295e-04
2.890000000000000346e-01 -1.158510858658701181e-04
2.900000000000000355e-01 -1.105510309571400285e-04
2.910000000000000364e-01 -1.053353335009887815e-04
2.920000000000000373e-01 -1.002306453301571310e-04
2.930000000000000382e-01 -9.525674977339804173e-05
2.940000000000000391e-01 -9.044095349963754416e-05
2.950000000000000400e-01 -8.579748828196898103e-05
2.960000000000000409e-01 -8.132703078445047140e-05
2.969999999999999862e-01 -7.704707968514412642e-05
2.979999999999999871e-01 -7.296934927580878139e-05
2.989999999999999880e-01 -6.908520299475640059e-05
2.999999999999999889e-01 -6.539702735608443618e-05
3.009999999999999898e-01 -6.190549174789339304e-05
3.019999999999999907e-01 -5.859568045707419515e-05
3.029999999999999916e-01 -5.546947795664891601e-05
3.039999999999999925e-01 -5.253170820651575923e-05
3.049999999999999933e-01 -4.976741547579877079e-05
3.059999999999999942e-01 -4.716267358162440360e-05
3.069999999999999951e-01 -4.471506690606474876e-05
3.079999999999999960e-01 -4.241674105287529528e-05
3.089999999999999969e-01 -4.025538146379403770e-05
3.099999999999999978e-01 -3.823361112154088914e-05
3.109999999999999987e-01 -3.634103268268518150e-05
3.119999999999999996e-01 -3.455927071627229452e-05
3.130000000000000004e-01 -3.288868538220413029e-05
3.140000000000000013e-01 -3.132353231194429100e-05
3.150000000000000022e-01 -2.985003084177151322e-05
3.160000000000000031e-01 -2.846867209882475436e-05
3.170000000000000040e-01 -2.717849747568834573e-05
3.180000000000000049e-01 -2.596435660962015390e-05
3.190000000000000058e-01 -2.481654519215226173e-05
3.200000000000000067e-01 -2.373935240029823035e-05
3.210000000000000075e-01 -2.272497840749565512e-05
3.220000000000000084e-01 -2.176653651986271143e-05
3.230000000000000093e-01 -2.087069879053160548e-05
3.240000000000000102e-01 -2.002642395382281393e-05
3.250000000000000111e-01 -1.921976945595815778e-05
3.260000000000000120e-01 -1.845684528234414756e-05
3.270000000000000129e-01 -1.774141856003552675e-05
3.280000000000000138e-01 -1.706146395008545369e-05
3.290000000000000147e-01 -1.641857488721143454e-05
3.300000000000000155e-01 -1.581177639309316874e-05
3.310000000000000164e-01 -1.522976526757702231e-05
3.320000000000000173e-01 -1.467408401367720217e-05
3.330000000000000182e-01 -1.415151746186893433e-05
3.340000000000000191e-01 -1.365410935250110924e-05
3.350000000000000200e-01 -1.317887654295191169e-05
3.360000000000000209e-01 -1.272849385713925585e-05
3.370000000000000218e-01 -1.229901135957334191e-05
3.380000000000000226e-01 -1.188191617984557524e-05
3.390000000000000235e-01 -1.148684987128945068e-05
3.400000000000000244e-01 -1.111281744670122862e-05
3.410000000000000253e-01 -1.075402633432531729e-05
3.420000000000000262e-01 -1.041175073623890057e-05
3.430000000000000271e-01 -1.008344588626641780e-05
3.440000000000000280e-01 -9.764062269823625684e-06
3.450000000000000289e-01 -9.456916814087890089e-06
3.460000000000000298e-01 -9.170407793135382235e-06
3.470000000000000306e-01 -8.896340659703128040e-06
3.480000000000000315e-01 -8.626921953691635281e-06
3.490000000000000324e-01 -8.368597264052368701e-06
3.500000000000000333e-01 -8.120882739603985101e-06
3.510000000000000342e-01 -7.881350938987452537e-06
3.520000000000000351e-01 -7.655721674382220954e-06
3.530000000000000360e-01 -7.440053195750806481e-06
3.540000000000000369e-01 -7.226750312838703394e-06
3.550000000000000377e-01 -7.020794328127522022e-06
3.560000000000000386e-01 -6.825058790127513930e-06
3.570000000000000395e-01 -6.634547389694489539e-06
3.580000000000000404e-01 -6.451189165090909228e-06
3.590000000000000413e-01 -6.279929039010312408e-06
3.599999999999999867e-01 -6.111896709626307711e-06
3.609999999999999876e-01 -5.944139047642238438e-06
3.619999999999999885e-01 -5.784608219983056188e-06
3.629999999999999893e-01 -5.633186901832232252e-06
3.639999999999999902e-01 -5.484263510879827663e-06
3.649999999999999911e-01 -5.344965757103636861e-06
3.659999999999999920e-01 -5.211646566749550402e-06
3.669999999999999929e-01 -5.073538886790629476e-06
3.679999999999999938e-01 -4.939250629831803963e-06
3.689999999999999947e-01 -4.818432444153586403e-06
3.699999999999999956e-01 -4.701483703684061766e-06
3.709999999999999964e-01 -4.583683221426326782e-06
3.719999999999999973e-01 -4.471989086596295238e-06
3.729999999999999982e-01 -4.360811999504221603e-06
3.739999999999999991e-01 -4.250849087839014828e-06
3.750000000000000000e-01 -4.149608230363810435e-06
3.760000000000000009e-01 -4.054879354953300208e-06
3.770000000000000018e-01 -3.957489298045402393e-06
3.780000000000000027e-01 -3.862951416522264481e-06
3.790000000000000036e-01 -3.772583113459404558e-06
3.800000000000000044e-01 -3.681570433400338516e-06
3.810000000000000053e-01 -3.594976533349836245e-06
3.820000000000000062e-01 -3.516100832712254487e-06
3.830000000000000071e-01 -3.438232170083210804e-06
3.840000000000000080e-01 -3.356199385962099768e-06
3.850000000000000089e-01 -3.279208385720266961e-06
3.860000000000000098e-01 -3.205152552254730836e-06
3.870000000000000107e-01 -3.130566938125411980e-06
3.880000000000000115e-01 -3.064016709686256945e-06
3.890000000000000124e-01 -3.001470304297981784e-06
3.900000000000000133e-01 -2.932507413788698614e-06
3.910000000000000142e-01 -2.863864210667088628e-06
3.920000000000000151e-01 -2.802248445732402615e-06
3.930000000000000160e-01 -2.743767936408403330e-06
3.940000000000000169e-01 -2.685546633074409328e-06
3.950000000000000178e-01 -2.630203198350500315e-06
3.960000000000000187e-01 -2.573543042672099546e-06
3.970000000000000195e-01 -2.513917934265919030e-06
3.980000000000000204e-01 -2.462338670738972723e-06
3.990000000000000213e-01 -2.414628170299693011e-06
4.000000000000000222e-01 -2.363555722695309669e-06
4.010000000000000231e-01 -2.314434368599904701e-06
4.020000000000000240e-01 -2.268466005261871032e-06
4.030000000000000249e-01 -2.218730060121743008e-06
4.040000000000000258e-01 -2.171556388930184767e-06
4.050000000000000266e-01 -2.131773953806259669e-06
4.060000000000000275e-01 -2.090090902129304595e-06
4.070000000000000284e-01 -2.045979954345966689e-06
4.080000000000000293e-01 -2.005617261602310464e-06
4.090000000000000302e-01 -1.965036517503904179e-06
4.100000000000000311e-01 -1.923520812852075323e-06
4.110000000000000320e-01 -1.887579401227412745e-06
4.120000000000000329e-01 -1.855574737419374287e-06
4.130000000000000338e-01 -1.817375164137047250e-06
4.140000000000000346e-01 -1.778243699845916126e-06
4.150000000000000355e-01 -1.743792950037459377e-06
4.160000000000000364e-01 -1.711381855784566142e-06
4.170000000000000373e-01 -1.680006448623316828e-06
4.180000000000000382e-01 -1.650791205065615941e-06
4.190000000000000391e-01 -1.618377154954941943e-06
4.200000000000000400e-01 -1.583423454576404765e-06
4.210000000000000409e-01 -1.554056893837696407e-06
4.220000000000000417e-01 -1.529171640868298709e-06
4.230000000000000426e-01 -1.500427970313467085e-06
4.240000000000000435e-01 -1.473085490033554379e-06
4.250000000000000444e-01 -1.446433770979638211e-06
4.260000000000000453e-01 -1.416933400832931511e-06
4.270000000000000462e-01 -1.389718022437591571e-06
4.280000000000000471e-01 -1.368780772281752434e-06
4.290000000000000480e-01 -1.345482360193273053e-06
4.300000000000000488e-01 -1.318707177233591210e-06
4.310000000000000497e-01 -1.295673882850678638e-06
4.320000000000000506e-01 -1.272507347493956331e-06
4.330000000000000515e-01 -1.246756255568470806e-06
4.340000000000000524e-01 -1.226296262757387012e-06
4.350000000000000533e-01 -1.208794174090144224e-06
4.360000000000000542e-01 -1.187037355521169957e-06
4.370000000000000551e-01 -1.162704734269937035e-06
4.380000000000000560e-01 -1.141658458436722867e-06
4.390000000000000568e-01 -1.122375010709220078e-06
4.400000000000000577e-01 -1.104340753954602405e-06
4.410000000000000586e-01 -1.087892883333552163e-06
4.420000000000000595e-01 -1.069042127710417844e-06
4.430000000000000604e-01 -1.045709268510108814e-06
4.440000000000000613e-01 -1.027648067974951118e-06
4.450000000000000622e-01 -1.013325913845619652e-06
4.460000000000000631e-01 -9.972816314984811470e-07
4.470000000000000639e-01 -9.801528904063161463e-07
4.480000000000000648e-01 -9.633868103264831007e-07
4.490000000000000657e-01 -9.446506510357721709e-07
4.500000000000000666e-01 -9.270676173400715925e-07
4.510000000000000675e-01 -9.147209425464097876e-07
4.520000000000000684e-01 -9.022631957122939639e-07
4.530000000000000693e-01 -8.848833203956019133e-07
4.540000000000000702e-01 -8.691510515745903831e-07
4.550000000000000711e-01 -8.553624297746864613e-07
4.560000000000000719e-01 -8.397658461944956798e-07
4.569999999999999618e-01 -8.271288720607117284e-07
4.579999999999999627e-01 -8.171627996489405632e-07
4.589999999999999636e-01 -8.035864311750628985e-07
4.599999999999999645e-01 -7.872110359130601864e-07
4.609999999999999654e-01 -7.742645493635791354e-07
4.619999999999999662e-01 -7.630201253050472587e-07
4.629999999999999671e-01 -7.507632631131855305e-07
4.639999999999999680e-01 -7.414777769554348197e-07
4.649999999999999689e-01 -7.316058940887160134e-07
4.659999999999999698e-01 -7.142219260458659846e-07
4.669999999999999707e-01 -7.017223424554686062e-07
4.679999999999999716e-01 -6.950122042326256633e-07
4.689999999999999725e-01 -6.859654035906714853e-07