-1.199999999999999956e-01 -0.000000000000000000e+00
-1.189999999999999947e-01 -0.000000000000000000e+00
-1.179999999999999938e-01 -0.000000000000000000e+00
-1.169999999999999929e-01 -0.000000000000000000e+00
-1.159999999999999920e-01 -0.000000000000000000e+00
-1.149999999999999911e-01 -0.000000000000000000e+00
-1.139999999999999902e-01 -0.000000000000000000e+00
-1.129999999999999893e-01 -0.000000000000000000e+00
-1.119999999999999885e-01 -0.000000000000000000e+00
-1.109999999999999876e-01 -0.000000000000000000e+00
-1.100000000000000006e-01 -0.000000000000000000e+00
-1.089999999999999997e-01 -0.000000000000000000e+00
-1.079999999999999988e-01 -0.000000000000000000e+00
-1.069999999999999979e-01 -0.000000000000000000e+00
-1.059999999999999970e-01 -0.000000000000000000e+00
-1.049999999999999961e-01 -0.000000000000000000e+00
-1.039999999999999952e-01 -0.000000000000000000e+00
-1.029999999999999943e-01 -0.000000000000000000e+00
-1.019999999999999934e-01 -0.000000000000000000e+00
-1.009999999999999926e-01 -0.000000000000000000e+00
-9.999999999999999167e-02 -0.000000000000000000e+00
-9.899999999999999079e-02 -0.000000000000000000e+00
-9.800000000000000377e-02 -0.000000000000000000e+00
-9.700000000000000289e-02 -0.000000000000000000e+00
-9.600000000000000200e-02 -0.000000000000000000e+00
-9.500000000000000111e-02 -0.000000000000000000e+00
-9.400000000000000022e-02 -0.000000000000000000e+00
-9.299999999999999933e-02 -0.000000000000000000e+00
-9.199999999999999845e-02 -0.000000000000000000e+00
-9.099999999999999756e-02 -0.000000000000000000e+00
-8.999999999999999667e-02 -0.000000000000000000e+00
-8.899999999999999578e-02 -0.000000000000000000e+00
-8.799999999999999489e-02 -0.000000000000000000e+00
-8.699999999999999400e-02 -0.000000000000000000e+00
-8.599999999999999312e-02 -0.000000000000000000e+00
-8.499999999999999223e-02 -0.000000000000000000e+00
-8.399999999999999134e-02 -0.000000000000000000e+00
-8.299999999999999045e-02 -0.000000000000000000e+00
-8.199999999999998956e-02 -0.000000000000000000e+00
-8.099999999999998868e-02 -0.000000000000000000e+00
-7.999999999999998779e-02 -0.000000000000000000e+00
-7.899999999999998690e-02 -0.000000000000000000e+00
-7.799999999999998601e-02 -0.000000000000000000e+00
-7.699999999999998512e-02 -0.000000000000000000e+00
-7.599999999999999811e-02 -0.000000000000000000e+00
-7.499999999999999722e-02 -0.000000000000000000e+00
-7.399999999999999634e-02 -0.000000000000000000e+00
-7.299999999999999545e-02 -0.000000000000000000e+00
-7.199999999999999456e-02 -0.000000000000000000e+00
-7.099999999999999367e-02 -0.000000000000000000e+00
-6.999999999999999278e-02 -0.000000000000000000e+00
-6.899999999999999190e-02 -0.000000000000000000e+00
-6.799999999999999101e-02 -0.000000000000000000e+00
-6.700000000000000400e-02 -0.000000000000000000e+00
-6.600000000000000311e-02 -0.000000000000000000e+00
-6.500000000000000222e-02 -0.000000000000000000e+00
-6.400000000000000133e-02 -0.000000000000000000e+00
-6.300000000000000044e-02 -0.000000000000000000e+00
-6.199999999999999262e-02 -0.000000000000000000e+00
-6.099999999999999173e-02 -0.000000000000000000e+00
-5.999999999999999778e-02 -0.000000000000000000e+00
-5.899999999999999689e-02 -0.000000000000000000e+00
-5.799999999999999600e-02 -0.000000000000000000e+00
-5.699999999999999512e-02 -0.000000000000000000e+00
-5.599999999999999423e-02 -0.000000000000000000e+00
-5.499999999999999334e-02 -0.000000000000000000e+00
-5.399999999999999245e-02 -0.000000000000000000e+00
-5.299999999999999156e-02 -0.000000000000000000e+00
-5.199999999999999067e-02 -0.000000000000000000e+00
-5.099999999999998979e-02 -0.000000000000000000e+00
-4.999999999999998890e-02 -0.000000000000000000e+00
-4.899999999999998801e-02 -0.000000000000000000e+00
-4.799999999999998712e-02 -0.000000000000000000e+00
-4.700000000000000011e-02 -0.000000000000000000e+00
-4.599999999999999922e-02 -0.000000000000000000e+00
-4.499999999999999833e-02 -0.000000000000000000e+00
-4.399999999999999745e-02 -0.000000000000000000e+00
-4.299999999999999656e-02 -0.000000000000000000e+00
-4.199999999999999567e-02 -0.000000000000000000e+00
-4.099999999999999478e-02 -0.000000000000000000e+00
-3.999999999999999389e-02 -0.000000000000000000e+00
-3.899999999999999301e-02 -0.000000000000000000e+00
-3.799999999999999212e-02 -0.000000000000000000e+00
-3.699999999999999123e-02 -0.000000000000000000e+00
-3.599999999999999034e-02 -0.000000000000000000e+00
-3.499999999999998945e-02 -0.000000000000000000e+00
-3.399999999999998856e-02 -0.000000000000000000e+00
-3.299999999999998768e-02 -0.000000000000000000e+00
-3.200000000000000067e-02 -0.000000000000000000e+00
-3.099999999999999978e-02 -0.000000000000000000e+00
-2.999999999999999889e-02 -0.000000000000000000e+00
-2.899999999999999800e-02 -0.000000000000000000e+00
-2.799999999999999711e-02 -0.000000000000000000e+00
-2.699999999999999623e-02 -0.000000000000000000e+00
-2.599999999999999534e-02 -0.000000000000000000e+00
-2.499999999999999445e-02 -0.000000000000000000e+00
-2.399999999999999356e-02 -0.000000000000000000e+00
-2.299999999999999267e-02 -0.000000000000000000e+00
-2.199999999999999178e-02 -0.000000000000000000e+00
-2.099999999999999090e-02 -0.000000000000000000e+00
-1.999999999999999001e-02 -0.000000000000000000e+00
-1.899999999999998912e-02 -0.000000000000000000e+00
-1.799999999999998823e-02 -0.000000000000000000e+00
-1.699999999999998734e-02 -0.000000000000000000e+00
-1.599999999999998646e-02 -0.000000000000000000e+00
-1.499999999999999944e-02 -0.000000000000000000e+00
-1.399999999999999856e-02 -0.000000000000000000e+00
-1.299999999999999767e-02 -0.000000000000000000e+00
-1.199999999999999678e-02 -0.000000000000000000e+00
-1.099999999999999589e-02 -0.000000000000000000e+00
-9.999999999999995004e-03 -0.000000000000000000e+00
-8.999999999999994116e-03 -0.000000000000000000e+00
-7.999999999999993228e-03 -0.000000000000000000e+00
-6.999999999999992339e-03 -0.000000000000000000e+00
-5.999999999999991451e-03 -0.000000000000000000e+00
-4.999999999999990563e-03 -0.000000000000000000e+00
-3.999999999999989675e-03 -0.000000000000000000e+00
-2.999999999999988787e-03 -0.000000000000000000e+00
-1.999999999999987899e-03 -0.000000000000000000e+00
-9.999999999999870104e-04 -0.000000000000000000e+00
0.000000000000000000e+00 -0.000000000000000000e+00
1.000000000000000888e-03 -0.000000000000000000e+00
2.000000000000001776e-03 -0.000000000000000000e+00
3.000000000000002665e-03 -0.000000000000000000e+00
4.000000000000003553e-03 -0.000000000000000000e+00
5.000000000000004441e-03 -0.000000000000000000e+00
6.000000000000005329e-03 -0.000000000000000000e+00
7.000000000000006217e-03 -0.000000000000000000e+00
8.000000000000007105e-03 -0.000000000000000000e+00
9.000000000000007994e-03 -0.000000000000000000e+00
1.000000000000000888e-02 -0.000000000000000000e+00
1.100000000000000977e-02 -0.000000000000000000e+00
1.200000000000001066e-02 -0.000000000000000000e+00
1.300000000000001155e-02 -0.000000000000000000e+00
1.400000000000001243e-02 -0.000000000000000000e+00
1.500000000000001332e-02 -0.000000000000000000e+00
1.600000000000001421e-02 -0.000000000000000000e+00
1.700000000000001510e-02 -0.000000000000000000e+00
1.800000000000001599e-02 -0.000000000000000000e+00
1.900000000000001688e-02 -0.000000000000000000e+00
2.000000000000001776e-02 -0.000000000000000000e+00
2.100000000000001865e-02 -0.000000000000000000e+00
2.200000000000001954e-02 -0.000000000000000000e+00
2.300000000000002043e-02 -0.000000000000000000e+00
2.400000000000002132e-02 -0.000000000000000000e+00
2.499999999999999445e-02 -0.000000000000000000e+00
2.599999999999999534e-02 -0.000000000000000000e+00
2.699999999999999623e-02 -0.000000000000000000e+00
2.799999999999999711e-02 -0.000000000000000000e+00
2.899999999999999800e-02 -0.000000000000000000e+00
2.999999999999999889e-02 -0.000000000000000000e+00
3.099999999999999978e-02 -0.000000000000000000e+00
3.200000000000000067e-02 -0.000000000000000000e+00
3.300000000000000155e-02 -0.000000000000000000e+00
3.400000000000000244e-02 -0.000000000000000000e+00
3.500000000000000333e-02 -0.000000000000000000e+00
3.600000000000000422e-02 -0.000000000000000000e+00
3.700000000000000511e-02 -0.000000000000000000e+00
3.800000000000000600e-02 -0.000000000000000000e+00
3.900000000000000688e-02 -0.000000000000000000e+00
4.000000000000000777e-02 -0.000000000000000000e+00
4.100000000000000866e-02 -0.000000000000000000e+00
4.200000000000000955e-02 -0.000000000000000000e+00
4.300000000000001044e-02 -0.000000000000000000e+00
4.400000000000001132e-02 -0.000000000000000000e+00
4.500000000000001221e-02 -0.000000000000000000e+00
4.600000000000001310e-02 -0.000000000000000000e+00
4.700000000000001399e-02 -0.000000000000000000e+00
4.800000000000001488e-02 -0.000000000000000000e+00
4.900000000000001577e-02 -0.000000000000000000e+00
5.000000000000001665e-02 -0.000000000000000000e+00
5.100000000000001754e-02 -0.000000000000000000e+00
5.200000000000001843e-02 -0.000000000000000000e+00
5.300000000000001932e-02 -0.000000000000000000e+00
5.400000000000002021e-02 -0.000000000000000000e+00
5.500000000000002109e-02 -0.000000000000000000e+00
5.599999999999999423e-02 -0.000000000000000000e+00
5.699999999999999512e-02 -0.000000000000000000e+00
5.799999999999999600e-02 -0.000000000000000000e+00
5.899999999999999689e-02 -0.000000000000000000e+00
5.999999999999999778e-02 -0.000000000000000000e+00
6.099999999999999867e-02 -0.000000000000000000e+00
6.199999999999999956e-02 -0.000000000000000000e+00
6.300000000000000044e-02 -0.000000000000000000e+00
6.400000000000000133e-02 -0.000000000000000000e+00
6.500000000000000222e-02 -0.000000000000000000e+00
6.600000000000000311e-02 -0.000000000000000000e+00
6.700000000000000400e-02 -0.000000000000000000e+00
6.800000000000000488e-02 -0.000000000000000000e+00
6.900000000000000577e-02 -0.000000000000000000e+00
7.000000000000000666e-02 -0.000000000000000000e+00
7.100000000000000755e-02 -0.000000000000000000e+00
7.200000000000000844e-02 -0.000000000000000000e+00
7.300000000000000933e-02 -0.000000000000000000e+00
7.400000000000001021e-02 -0.000000000000000000e+00
7.500000000000001110e-02 -0.000000000000000000e+00
7.600000000000001199e-02 -0.000000000000000000e+00
7.700000000000001288e-02 -0.000000000000000000e+00
7.800000000000001377e-02 -0.000000000000000000e+00
7.900000000000001465e-02 -0.000000000000000000e+00
8.000000000000001554e-02 -0.000000000000000000e+00
8.100000000000001643e-02 -0.000000000000000000e+00
8.200000000000001732e-02 -0.000000000000000000e+00
8.300000000000001821e-02 -0.000000000000000000e+00
8.400000000000001910e-02 -0.000000000000000000e+00
8.500000000000001998e-02 -0.000000000000000000e+00
8.600000000000002087e-02 -0.000000000000000000e+00
8.700000000000002176e-02 -0.000000000000000000e+00
8.800000000000002265e-02 -0.000000000000000000e+00
8.899999999999999578e-02 -0.000000000000000000e+00
8.999999999999999667e-02 -0.000000000000000000e+00
9.099999999999999756e-02 -0.000000000000000000e+00
9.199999999999999845e-02 -0.000000000000000000e+00
9.299999999999999933e-02 -0.000000000000000000e+00
9.400000000000000022e-02 -0.000000000000000000e+00
9.500000000000000111e-02 -0.000000000000000000e+00
9.600000000000000200e-02 -0.000000000000000000e+00
9.700000000000000289e-02 -0.000000000000000000e+00
9.800000000000000377e-02 -0.000000000000000000e+00
9.900000000000000466e-02 -0.000000000000000000e+00
1.000000000000000056e-01 -0.000000000000000000e+00
1.010000000000000064e-01 -0.000000000000000000e+00
1.020000000000000073e-01 -0.000000000000000000e+00
1.030000000000000082e-01 -0.000000000000000000e+00
1.040000000000000091e-01 -0.000000000000000000e+00
1.050000000000000100e-01 -0.000000000000000000e+00
1.060000000000000109e-01 -0.000000000000000000e+00
1.070000000000000118e-01 -0.000000000000000000e+00
1.080000000000000127e-01 -0.000000000000000000e+00
1.090000000000000135e-01 -0.000000000000000000e+00
1.100000000000000144e-01 -0.000000000000000000e+00
1.110000000000000153e-01 -0.000000000000000000e+00
1.120000000000000162e-01 -0.000000000000000000e+00
1.130000000000000171e-01 -0.000000000000000000e+00
1.140000000000000180e-01 -0.000000000000000000e+00
1.150000000000000189e-01 -0.000000000000000000e+00
1.160000000000000198e-01 -0.000000000000000000e+00
1.170000000000000207e-01 -0.000000000000000000e+00
1.180000000000000215e-01 -0.000000000000000000e+00
1.190000000000000224e-01 -0.000000000000000000e+00
1.199999999999999956e-01 -0.000000000000000000e+00
1.209999999999999964e-01 -0.000000000000000000e+00
1.219999999999999973e-01 -0.000000000000000000e+00
1.229999999999999982e-01 -0.000000000000000000e+00
1.239999999999999991e-01 -0.000000000000000000e+00
1.250000000000000000e-01 -2.802596928649634142e-45
1.260000000000000009e-01 -7.006492321624085355e-45
1.270000000000000018e-01 3.615350037958028043e-43
1.280000000000000027e-01 8.452632336807296572e-42
1.290000000000000036e-01 1.199371355615610931e-40
1.300000000000000044e-01 1.309506408419219929e-39
1.310000000000000053e-01 1.154818472240867697e-38
1.320000000000000062e-01 7.996981643992353214e-38
1.330000000000000071e-01 3.557172609874347478e-37
1.340000000000000080e-01 -6.476009600321145261e-37
1.350000000000000089e-01 -3.830052172679314323e-35
1.360000000000000098e-01 -5.668716814374861397e-34
1.370000000000000107e-01 -6.246948730358083366e-33
1.380000000000000115e-01 -5.890228218806561004e-32
1.390000000000000124e-01 -4.994643523197557255e-31
1.400000000000000133e-01 -3.904850045634963638e-30
1.410000000000000142e-01 -2.857580198464778756e-29
1.420000000000000151e-01 -1.978036941997604713e-28
1.430000000000000160e-01 -1.305461183109766505e-27
1.440000000000000169e-01 -8.267238405184893319e-27
1.450000000000000178e-01 -5.049960261208767299e-26
1.460000000000000187e-01 -2.987719466482416034e-25
1.470000000000000195e-01 -1.717164611138189457e-24
1.480000000000000204e-01 -9.603876650086477283e-24
1.490000000000000213e-01 -5.228683675775218072e-23
1.500000000000000222e-01 -2.768336826699868357e-22
1.510000000000000231e-01 -1.422235584218083456e-21
1.520000000000000240e-01 -7.067584634430788254e-21
1.530000000000000249e-01 -3.383880209915649505e-20
1.540000000000000258e-01 -1.554021761110929576e-19
1.550000000000000266e-01 -6.811386183831287113e-19
1.560000000000000275e-01 -2.833630645006819840e-18
1.570000000000000284e-01 -1.111724291262491281e-17
1.580000000000000293e-01 -4.081151647148008451e-17
1.590000000000000302e-01 -1.387168917059422579e-16
1.600000000000000311e-01 -4.297519066683627015e-16
1.610000000000000320e-01 -1.181051919674561135e-15
1.620000000000000329e-01 -2.717578156323334493e-15
1.630000000000000338e-01 -4.369497385442455695e-15
1.640000000000000346e-01 4.069552854424340893e-16
1.650000000000000355e-01 4.056013879795428156e-14
1.660000000000000364e-01 2.123050541792681489e-13
1.670000000000000373e-01 7.767467767073876761e-13
1.680000000000000382e-01 2.318013402752283625e-12
1.689999999999999836e-01 5.874016550944105575e-12
1.699999999999999845e-01 1.271164857402640180e-11
1.709999999999999853e-01 2.308023563935002187e-11
1.719999999999999862e-01 3.325561354072803510e-11
1.729999999999999871e-01 3.141037430154369758e-11
1.739999999999999880e-01 -3.935074488481404842e-12
1.749999999999999889e-01 -9.551909263549873685e-11
1.759999999999999898e-01 -2.438599877585545528e-10
1.769999999999999907e-01 -3.990588970381736544e-10
1.779999999999999916e-01 -4.621306948227044131e-10
1.789999999999999925e-01 -3.509404988832898198e-10
1.799999999999999933e-01 -1.061055687756606858e-10
1.809999999999999942e-01 8.080336399984844320e-11
1.819999999999999951e-01 2.633826490239243867e-11
1.829999999999999960e-01 -2.021198208801422425e-10
1.839999999999999969e-01 -2.888570216352803754e-10
1.849999999999999978e-01 -5.485218529388546926e-11
1.859999999999999987e-01 2.304998969471228065e-10
1.869999999999999996e-01 1.847617059347328450e-10
1.880000000000000004e-01 -6.499958904448988051e-11
1.890000000000000013e-01 -4.192812763648134933e-11
1.900000000000000022e-01 2.214918248810704426e-10
1.910000000000000031e-01 1.778996117085540618e-10
1.920000000000000040e-01 -1.674656524563999938e-10
1.930000000000000049e-01 -1.876878652495861388e-10
1.940000000000000058e-01 8.239195437020896406e-11
1.950000000000000067e-01 -2.068345494876666635e-13
1.960000000000000075e-01 -2.195157666751157421e-10
1.970000000000000084e-01 3.135594214831449733e-11
1.980000000000000093e-01 2.467535620276350983e-10
1.990000000000000102e-01 -2.976832669254747543e-11
2.000000000000000111e-01 -6.754302672717926725e-11
2.010000000000000120e-01 1.706465524442535298e-10
2.020000000000000129e-01 -6.755426773530359696e-11
2.030000000000000138e-01 -2.289712169867286207e-10
2.040000000000000147e-01 1.010377892463054650e-10
2.050000000000000155e-01 3.692113281772435585e-11
2.060000000000000164e-01 -1.168815599861261489e-10
2.070000000000000173e-01 1.942549315847585945e-10
2.080000000000000182e-01 6.211837988434609770e-11
2.090000000000000191e-01 -1.812556216229666006e-10
2.100000000000000200e-01 8.837899856395381448e-11
2.110000000000000209e-01 -5.712461059736995139e-11
2.120000000000000218e-01 -1.404375088442932906e-10
2.130000000000000226e-01 2.047209207711730983e-10
2.140000000000000235e-01 -2.076580574161823733e-11
2.150000000000000244e-01 -3.737088416500000676e-11
2.160000000000000253e-01 1.345372702132863196e-10
2.170000000000000262e-01 -1.982844860526356001e-10
2.180000000000000271e-01 1.110489478151066578e-11
2.190000000000000280e-01 8.357314840168328374e-11
2.200000000000000289e-01 -1.076715591685761808e-10
2.210000000000000298e-01 1.894630285992349172e-10
2.220000000000000306e-01 -7.055533934874347324e-11
2.230000000000000315e-01 -7.782655075949662660e-11
2.240000000000000324e-01 8.457180789012141986e-11
2.250000000000000333e-01 -1.600331811513200364e-10
2.260000000000000342e-01 1.634504198655406526e-10
2.270000000000000351e-01 -1.388486547959644213e-12
2.280000000000000360e-01 -4.110717322092227732e-11
2.290000000000000369e-01 8.502938630972067813e-11
2.300000000000000377e-01 -1.919491371404902225e-10
2.310000000000000386e-01 1.326111581656519434e-10
2.319999999999999840e-01 -4.579464585319215075e-11
2.329999999999999849e-01 4.324685054513111027e-11
2.339999999999999858e-01 6.631156040937113971e-11
2.349999999999999867e-01 -1.576757197030431712e-10
2.359999999999999876e-01 1.165794405455500282e-10
2.369999999999999885e-01 -1.334284349674419445e-10
2.379999999999999893e-01 1.454197456896011431e-10
2.389999999999999902e-01 -2.721636631342061463e-11
2.399999999999999911e-01 -1.658459480857743529e-11
2.409999999999999920e-01 3.099658030247809393e-11
2.419999999999999929e-01 -1.220330225759624909e-10
2.429999999999999938e-01 1.599484295011777135e-10
2.439999999999999947e-01 -1.008036015770485960e-10
2.449999999999999956e-01 1.341436961510567016e-10
2.459999999999999964e-01 -1.473011990160699725e-10
2.469999999999999973e-01 3.775759913060561246e-11
2.479999999999999982e-01 -2.696784462408174932e-11
2.489999999999999991e-01 2.019888423188120896e-11
2.500000000000000000e-01 4.896334379611566590e-11
2.510000000000000009e-01 -1.135917748751325007e-10
2.520000000000000018e-01 5.637751376852406793e-11
2.530000000000000027e-01 -1.470605165421190463e-10
2.540000000000000036e-01 1.263801702178213304e-10
2.550000000000000044e-01 -1.460839643696587586e-10
2.560000000000000053e-01 8.177797328201563687e-11
2.570000000000000062e-01 -1.894875367725035176e-10
2.580000000000000071e-01 4.981437137785427183e-11
2.590000000000000080e-01 -1.347395112150095997e-10
2.600000000000000089e-01 1.500435886647721873e-11
2.610000000000000098e-01 -1.623010476015096515e-10
2.620000000000000107e-01 -1.060668219921012678e-10
2.630000000000000115e-01 -1.760733364664091027e-10
2.640000000000000124e-01 -1.463326126938113703e-10
2.650000000000000133e-01 -1.829223994498363481e-10
2.660000000000000142e-01 -2.819550426469419335e-10
2.670000000000000151e-01 -2.904519680324568753e-10
2.680000000000000160e-01 -4.172339418406778577e-10
2.690000000000000169e-01 -3.656791536243986229e-10
2.700000000000000178e-01 -5.224728427677405307e-10
2.710000000000000187e-01 -5.082612664075725206e-10
2.720000000000000195e-01 -7.636183907422378070e-10
2.730000000000000204e-01 -7.299733040255773631e-10
2.740000000000000213e-01 -9.771407016856414884e-10
2.750000000000000222e-01 -9.860511296366780698e-10
2.760000000000000231e-01 -1.345900391136467533e-09
2.770000000000000240e-01 -1.412246319887344725e-09
2.780000000000000249e-01 -1.744088540256427677e-09
2.790000000000000258e-01 -1.838865948400325578e-09
2.800000000000000266e-01 -2.277297461716898397e-09
2.810000000000000275e-01 -2.499375151288063535e-09
2.820000000000000284e-01 -2.985389047083231162e-09
2.830000000000000293e-01 -3.254791325346673148e-09
2.840000000000000302e-01 -3.818703575575455034e-09
2.850000000000000311e-01 -4.261506258984582018e-09
2.860000000000000320e-01 -4.946742127032166536e-09
2.870000000000000329e-01 -5.517282630762565532e-09
2.880000000000000338e-01 -6.254649687065239050e-09
2.890000000000000346e-01 -7.041540683871971851e-09
2.900000000000000355e-01 -7.939082280472575803e-09
2.910000000000000364e-01 -8.950970631360632979e-09
2.920000000000000373e-01 -9.944306711417993938e-09
2.930000000000000382e-01 -1.114908254606916671e-08
2.940000000000000391e-01 -1.219171164024146492e-08
2.950000000000000400e-01 -1.362928792048023752e-08
2.960000000000000409e-01 -1.494736778795413557e-08
2.969999999999999862e-01 -1.658330184284295683e-08
2.979999999999999871e-01 -1.810386329736957123e-08
2.989999999999999880e-01 -2.015612032835178979e-08
2.999999999999999889e-01 -2.156793499352716026e-08
3.009999999999999898e-01 -2.383583108667153283e-08
3.019999999999999907e-01 -2.580519442574313871e-08
3.029999999999999916e-01 -2.792858744271597971e-08
3.039999999999999925e-01 -2.982766389436619647e-08
3.049999999999999933e-01 -3.225217426461313153e-08
3.059999999999999942e-01 -3.487777888722121133e-08
3.069999999999999951e-01 -3.733121189952726127e-08
3.079999999999999960e-01 -4.036776601878955262e-08
3.089999999999999969e-01 -4.303924683313198329e-08
3.099999999999999978e-01 -4.595587199673900614e-08
3.109999999999999987e-01 -4.781670526199377491e-08
3.119999999999999996e-01 -5.034248218294123944e-08
3.130000000000000004e-01 -5.282621984292745765e-08
3.140000000000000013e-01 -5.542262826452315494e-08
3.150000000000000022e-01 -5.785557988247091998e-08
3.160000000000000031e-01 -5.904562172531768738e-08
3.170000000000000040e-01 -6.006899155863720807e-08
3.180000000000000049e-01 -6.184681211607312434e-08
3.190000000000000058e-01 -6.260903973043241422e-08
3.200000000000000067e-01 -6.383400119602811174e-08
3.210000000000000075e-01 -6.486192205557017587e-08
3.220000000000000084e-01 -6.482825654074986232e-08
3.230000000000000093e-01 -6.514832051607299945e-08
3.240000000000000102e-01 -6.515490014180613798e-08
3.250000000000000111e-01 -6.419091391762776766e-08
3.260000000000000120e-01 -6.293174692473257892e-08
3.270000000000000129e-01 -5.988234619280774496e-08
3.280000000000000138e-01 -5.746135656181650120e-08
3.290000000000000147e-01 -5.338388930908877228e-08
3.300000000000000155e-01 -4.851963808505388442e-08
3.310000000000000164e-01 -4.338393466696288669e-08
3.320000000000000173e-01 -3.797330450083791220e-08
3.330000000000000182e-01 -3.120072733509005047e-08
3.340000000000000191e-01 -2.461406012344014016e-08
3.350000000000000200e-01 -1.687457462651309470e-08
3.360000000000000209e-01 -9.255555433185236325e-09
3.370000000000000218e-01 -1.128658833060569577e-09
3.380000000000000226e-01 7.613641272996574116e-09
3.390000000000000235e-01 1.811422656317063229e-08
3.400000000000000244e-01 2.777429664035935275e-08
3.410000000000000253e-01 3.673441284490763792e-08
3.420000000000000262e-01 4.798452479803927417e-08
3.430000000000000271e-01 5.757840071396458370e-08
3.440000000000000280e-01 6.890613235555065330e-08
3.450000000000000289e-01 7.911881283462207648e-08
3.460000000000000298e-01 8.954510377634505858e-08
3.470000000000000306e-01 1.001834135649914970e-07
3.480000000000000315e-01 1.093631851745158201e-07
3.490000000000000324e-01 1.189956435609929031e-07
3.500000000000000333e-01 1.280578487694583600e-07
3.510000000000000342e-01 1.363375332630312187e-07
3.520000000000000351e-01 1.438164787259665900e-07
3.530000000000000360e-01 1.504128732676690561e-07
3.540000000000000369e-01 1.564639546813850757e-07
3.550000000000000377e-01 1.615162119605884072e-07
3.560000000000000386e-01 1.654183563459810102e-07
3.570000000000000395e-01 1.678802874494067510e-07
3.580000000000000404e-01 1.700055918263387866e-07
3.590000000000000413e-01 1.710580193048372166e-07
3.599999999999999867e-01 1.698054177268204512e-07
3.609999999999999876e-01 1.686672135292610619e-07
3.619999999999999885e-01 1.653226604503288399e-07
3.629999999999999893e-01 1.621371410465144436e-07
3.639999999999999902e-01 1.566104828043535235e-07
3.649999999999999911e-01 1.519789094572843169e-07
3.659999999999999920e-01 1.433670888673077570e-07
3.669999999999999929e-01 1.354708558665151941e-07
3.679999999999999938e-01 1.270315266310717561e-07
3.689999999999999947e-01 1.176625801235786639e-07
3.699999999999999956e-01 1.074152038427200750e-07
3.709999999999999964e-01 9.716277560301023186e-08
3.719999999999999973e-01 8.562845010828823433e-08
3.729999999999999982e-01 7.357678555308666546e-08
3.739999999999999991e-01 6.253721096527442569e-08
3.750000000000000000e-01 5.113683698709792225e-08
3.760000000000000009e-01 3.800751002813740342e-08
3.770000000000000018e-01 2.686710232069344784e-08
3.780000000000000027e-01 1.611662980849359883e-08
3.790000000000000036e-01 2.993004066809135111e-09
3.800000000000000044e-01 -8.208932200659546652e-09
3.810000000000000053e-01 -1.694644069516471063e-08
3.820000000000000062e-01 -2.918482877589667623e-08
3.830000000000000071e-01 -3.825838135185222200e-08
3.840000000000000080e-01 -4.845925616336899111e-08
3.850000000000000089e-01 -5.790901624891375832e-08
3.860000000000000098e-01 -6.492056314755245694e-08
3.870000000000000107e-01 -7.031403015389514621e-08
3.880000000000000115e-01 -7.566431747818569420e-08
3.890000000000000124e-01 -8.123386407987709390e-08
3.900000000000000133e-01 -8.574891552370900172e-08
3.910000000000000142e-01 -8.922856409299129155e-08
3.920000000000000151e-01 -9.125695044076564955e-08
3.930000000000000160e-01 -9.288821445352368755e-08
3.940000000000000169e-01 -9.345343698896613205e-08
3.950000000000000178e-01 -9.388669042209585314e-08
3.960000000000000187e-01 -9.283331792175886221e-08
3.970000000000000195e-01 -9.197628259016710217e-08
3.980000000000000204e-01 -8.999148803923162632e-08
3.990000000000000213e-01 -8.718348709635392879e-08
4.000000000000000222e-01 -8.365859827108579339e-08
4.010000000000000231e-01 -7.985579486557980999e-08
4.020000000000000240e-01 -7.624410613971122075e-08
4.030000000000000249e-01 -7.223603404327150201e-08
4.040000000000000258e-01 -6.805175445379063603e-08
4.050000000000000266e-01 -6.346268577317459858e-08
4.060000000000000275e-01 -5.887002885174297262e-08
4.070000000000000284e-01 -5.382692336297623115e-08
4.080000000000000293e-01 -4.902651440374938829e-08
4.090000000000000302e-01 -4.404921938316874730e-08
4.100000000000000311e-01 -3.851063112847441516e-08
4.110000000000000320e-01 -3.367159706613165326e-08
4.120000000000000329e-01 -2.904477724996468169e-08
4.130000000000000338e-01 -2.401773890881031548e-08
4.140000000000000346e-01 -1.988566467048258346e-08
4.150000000000000355e-01 -1.564837326384349581e-08
4.160000000000000364e-01 -1.158619777896774394e-08
4.170000000000000373e-01 -8.137340579139618058e-09
4.180000000000000382e-01 -4.389153485107044617e-09
4.190000000000000391e-01 -1.524529835705834557e-09
4.200000000000000400e-01 1.779518754574382911e-09
4.210000000000000409e-01 4.424979049844068868e-09
4.220000000000000417e-01 6.764929505465033799e-09
4.230000000000000426e-01 8.692531139331549639e-09
4.240000000000000435e-01 1.034565233481998803e-08
4.250000000000000444e-01 1.222765977360040779e-08
4.260000000000000453e-01 1.401806049017295663e-08
4.270000000000000462e-01 1.509289582202200108e-08
4.280000000000000471e-01 1.585054931751983531e-08
4.290000000000000480e-01 1.691514839308183582e-08
4.300000000000000488e-01 1.824903250735587790e-08
4.310000000000000497e-01 1.895401702256549470e-08
4.320000000000000506e-01 1.973009489120158833e-08
4.330000000000000515e-01 1.999542931230280374e-08
4.340000000000000524e-01 2.026825285383893060e-08
4.350000000000000533e-01 2.005595689524852787e-08
4.360000000000000542e-01 2.027891810030268971e-08
4.370000000000000551e-01 2.051612746356568096e-08
4.380000000000000560e-01 2.006013843924847606e-08
4.390000000000000568e-01 2.013742950168762036e-08
4.400000000000000577e-01 1.986708220158561744e-08
4.410000000000000586e-01 1.967536533697966661e-08
4.420000000000000595e-01 2.000281362768419058e-08
4.430000000000000604e-01 1.945137384495865263e-08
4.440000000000000613e-01 1.908765057123673614e-08
4.450000000000000622e-01 1.877682898054899852e-08
4.460000000000000631e-01 1.838079377591839147e-08
4.470000000000000639e-01 1.791916126592241199e-08
4.480000000000000648e-01 1.792079196150098142e-08
4.490000000000000657e-01 1.767785917650144256e-08
4.500000000000000666e-01 1.735592647378325637e-08
4.510000000000000675e-01 1.689208772859274177e-08
4.520000000000000684e-01 1.634860957722139574e-08
4.530000000000000693e-01 1.595867971104780736e-08
4.540000000000000702e-01 1.544150229904062144e-08
4.550000000000000711e-01 1.507264535405283823e-08
4.560000000000000719e-01 1.509603286820038193e-08
4.569999999999999618e-01 1.455372267145094156e-08
4.579999999999999627e-01 1.441505670385367921e-08
4.589999999999999636e-01 1.446747255329228210e-08
4.599999999999999645e-01 1.381431946612110551e-08
4.609999999999999654e-01 1.389568282661457488e-08
4.619999999999999662e-01 1.348466582840046613e-08
4.629999999999999671e-01 1.318593234600484720e-08
4.639999999999999680e-01 1.319841125280163396e-08
4.649999999999999689e-01 1.267648297442747207e-08
4.659999999999999698e-01 1.263431759213062833e-08
4.669999999999999707e-01 1.253734627226776865e-08