-1.199999999999999956e-01 0.000000000000000000e+00
-1.189999999999999947e-01 0.000000000000000000e+00
-1.179999999999999938e-01 0.000000000000000000e+00
-1.169999999999999929e-01 0.000000000000000000e+00
-1.159999999999999920e-01 0.000000000000000000e+00
-1.149999999999999911e-01 0.000000000000000000e+00
-1.139999999999999902e-01 0.000000000000000000e+00
-1.129999999999999893e-01 0.000000000000000000e+00
-1.119999999999999885e-01 0.000000000000000000e+00
-1.109999999999999876e-01 0.000000000000000000e+00
-1.100000000000000006e-01 0.000000000000000000e+00
-1.089999999999999997e-01 0.000000000000000000e+00
-1.079999999999999988e-01 0.000000000000000000e+00
-1.069999999999999979e-01 0.000000000000000000e+00
-1.059999999999999970e-01 0.000000000000000000e+00
-1.049999999999999961e-01 0.000000000000000000e+00
-1.039999999999999952e-01 0.000000000000000000e+00
-1.029999999999999943e-01 0.000000000000000000e+00
-1.019999999999999934e-01 0.000000000000000000e+00
-1.009999999999999926e-01 0.000000000000000000e+00
-9.999999999999999167e-02 0.000000000000000000e+00
-9.899999999999999079e-02 0.000000000000000000e+00
-9.800000000000000377e-02 0.000000000000000000e+00
-9.700000000000000289e-02 0.000000000000000000e+00
-9.600000000000000200e-02 0.000000000000000000e+00
-9.500000000000000111e-02 0.000000000000000000e+00
-9.400000000000000022e-02 0.000000000000000000e+00
-9.299999999999999933e-02 0.000000000000000000e+00
-9.199999999999999845e-02 0.000000000000000000e+00
-9.099999999999999756e-02 0.000000000000000000e+00
-8.999999999999999667e-02 0.000000000000000000e+00
-8.899999999999999578e-02 0.000000000000000000e+00
-8.799999999999999489e-02 0.000000000000000000e+00
-8.699999999999999400e-02 0.000000000000000000e+00
-8.599999999999999312e-02 0.000000000000000000e+00
-8.499999999999999223e-02 0.000000000000000000e+00
-8.399999999999999134e-02 0.000000000000000000e+00
-8.299999999999999045e-02 0.000000000000000000e+00
-8.199999999999998956e-02 0.000000000000000000e+00
-8.099999999999998868e-02 0.000000000000000000e+00
-7.999999999999998779e-02 0.000000000000000000e+00
-7.899999999999998690e-02 0.000000000000000000e+00
-7.799999999999998601e-02 0.000000000000000000e+00
-7.699999999999998512e-02 0.000000000000000000e+00
-7.599999999999999811e-02 0.000000000000000000e+00
-7.499999999999999722e-02 0.000000000000000000e+00
-7.399999999999999634e-02 0.000000000000000000e+00
-7.299999999999999545e-02 0.000000000000000000e+00
-7.199999999999999456e-02 0.000000000000000000e+00
-7.099999999999999367e-02 0.000000000000000000e+00
-6.999999999999999278e-02 0.000000000000000000e+00
-6.899999999999999190e-02 0.000000000000000000e+00
-6.799999999999999101e-02 0.000000000000000000e+00
-6.700000000000000400e-02 0.000000000000000000e+00
-6.600000000000000311e-02 0.000000000000000000e+00
-6.500000000000000222e-02 0.000000000000000000e+00
-6.400000000000000133e-02 0.000000000000000000e+00
-6.300000000000000044e-02 0.000000000000000000e+00
-6.199999999999999262e-02 0.000000000000000000e+00
-6.099999999999999173e-02 0.000000000000000000e+00
-5.999999999999999778e-02 0.000000000000000000e+00
-5.899999999999999689e-02 0.000000000000000000e+00
-5.799999999999999600e-02 0.000000000000000000e+00
-5.699999999999999512e-02 0.000000000000000000e+00
-5.599999999999999423e-02 0.000000000000000000e+00
-5.499999999999999334e-02 0.000000000000000000e+00
-5.399999999999999245e-02 0.000000000000000000e+00
-5.299999999999999156e-02 0.000000000000000000e+00
-5.199999999999999067e-02 0.000000000000000000e+00
-5.099999999999998979e-02 0.000000000000000000e+00
-4.999999999999998890e-02 0.000000000000000000e+00
-4.899999999999998801e-02 0.000000000000000000e+00
-4.799999999999998712e-02 0.000000000000000000e+00
-4.700000000000000011e-02 0.000000000000000000e+00
-4.599999999999999922e-02 0.000000000000000000e+00
-4.499999999999999833e-02 0.000000000000000000e+00
-4.399999999999999745e-02 0.000000000000000000e+00
-4.299999999999999656e-02 0.000000000000000000e+00
-4.199999999999999567e-02 0.000000000000000000e+00
-4.099999999999999478e-02 0.000000000000000000e+00
-3.999999999999999389e-02 0.000000000000000000e+00
-3.899999999999999301e-02 0.000000000000000000e+00
-3.799999999999999212e-02 0.000000000000000000e+00
-3.699999999999999123e-02 0.000000000000000000e+00
-3.599999999999999034e-02 0.000000000000000000e+00
-3.499999999999998945e-02 0.000000000000000000e+00
-3.399999999999998856e-02 0.000000000000000000e+00
-3.299999999999998768e-02 0.000000000000000000e+00
-3.200000000000000067e-02 0.000000000000000000e+00
-3.099999999999999978e-02 0.000000000000000000e+00
-2.999999999999999889e-02 0.000000000000000000e+00
-2.899999999999999800e-02 0.000000000000000000e+00
-2.799999999999999711e-02 0.000000000000000000e+00
-2.699999999999999623e-02 0.000000000000000000e+00
-2.599999999999999534e-02 0.000000000000000000e+00
-2.499999999999999445e-02 0.000000000000000000e+00
-2.399999999999999356e-02 0.000000000000000000e+00
-2.299999999999999267e-02 0.000000000000000000e+00
-2.199999999999999178e-02 0.000000000000000000e+00
-2.099999999999999090e-02 0.000000000000000000e+00
-1.999999999999999001e-02 0.000000000000000000e+00
-1.899999999999998912e-02 0.000000000000000000e+00
-1.799999999999998823e-02 0.000000000000000000e+00
-1.699999999999998734e-02 0.000000000000000000e+00
-1.599999999999998646e-02 0.000000000000000000e+00
-1.499999999999999944e-02 0.000000000000000000e+00
-1.399999999999999856e-02 0.000000000000000000e+00
-1.299999999999999767e-02 0.000000000000000000e+00
-1.199999999999999678e-02 0.000000000000000000e+00
-1.099999999999999589e-02 0.000000000000000000e+00
-9.999999999999995004e-03 0.000000000000000000e+00
-8.999999999999994116e-03 0.000000000000000000e+00
-7.999999999999993228e-03 0.000000000000000000e+00
-6.999999999999992339e-03 0.000000000000000000e+00
-5.999999999999991451e-03 0.000000000000000000e+00
-4.999999999999990563e-03 0.000000000000000000e+00
-3.999999999999989675e-03 0.000000000000000000e+00
-2.999999999999988787e-03 0.000000000000000000e+00
-1.999999999999987899e-03 0.000000000000000000e+00
-9.999999999999870104e-04 0.000000000000000000e+00
0.000000000000000000e+00 0.000000000000000000e+00
1.000000000000000888e-03 0.000000000000000000e+00
2.000000000000001776e-03 0.000000000000000000e+00
3.000000000000002665e-03 0.000000000000000000e+00
4.000000000000003553e-03 0.000000000000000000e+00
5.000000000000004441e-03 0.000000000000000000e+00
6.000000000000005329e-03 0.000000000000000000e+00
7.000000000000006217e-03 0.000000000000000000e+00
8.000000000000007105e-03 0.000000000000000000e+00
9.000000000000007994e-03 0.000000000000000000e+00
1.000000000000000888e-02 0.000000000000000000e+00
1.100000000000000977e-02 0.000000000000000000e+00
1.200000000000001066e-02 0.000000000000000000e+00
1.300000000000001155e-02 0.000000000000000000e+00
1.400000000000001243e-02 0.000000000000000000e+00
1.500000000000001332e-02 0.000000000000000000e+00
1.600000000000001421e-02 0.000000000000000000e+00
1.700000000000001510e-02 0.000000000000000000e+00
1.800000000000001599e-02 0.000000000000000000e+00
1.900000000000001688e-02 0.000000000000000000e+00
2.000000000000001776e-02 0.000000000000000000e+00
2.100000000000001865e-02 0.000000000000000000e+00
2.200000000000001954e-02 0.000000000000000000e+00
2.300000000000002043e-02 0.000000000000000000e+00
2.400000000000002132e-02 0.000000000000000000e+00
2.499999999999999445e-02 0.000000000000000000e+00
2.599999999999999534e-02 0.000000000000000000e+00
2.699999999999999623e-02 0.000000000000000000e+00
2.799999999999999711e-02 0.000000000000000000e+00
2.899999999999999800e-02 0.000000000000000000e+00
2.999999999999999889e-02 0.000000000000000000e+00
3.099999999999999978e-02 0.000000000000000000e+00
3.200000000000000067e-02 0.000000000000000000e+00
3.300000000000000155e-02 0.000000000000000000e+00
3.400000000000000244e-02 0.000000000000000000e+00
3.500000000000000333e-02 0.000000000000000000e+00
3.600000000000000422e-02 0.000000000000000000e+00
3.700000000000000511e-02 0.000000000000000000e+00
3.800000000000000600e-02 0.000000000000000000e+00
3.900000000000000688e-02 0.000000000000000000e+00
4.000000000000000777e-02 0.000000000000000000e+00
4.100000000000000866e-02 0.000000000000000000e+00
4.200000000000000955e-02 0.000000000000000000e+00
4.300000000000001044e-02 0.000000000000000000e+00
4.400000000000001132e-02 0.000000000000000000e+00
4.500000000000001221e-02 0.000000000000000000e+00
4.600000000000001310e-02 0.000000000000000000e+00
4.700000000000001399e-02 0.000000000000000000e+00
4.800000000000001488e-02 0.000000000000000000e+00
4.900000000000001577e-02 0.000000000000000000e+00
5.000000000000001665e-02 0.000000000000000000e+00
5.100000000000001754e-02 0.000000000000000000e+00
5.200000000000001843e-02 0.000000000000000000e+00
5.300000000000001932e-02 0.000000000000000000e+00
5.400000000000002021e-02 0.000000000000000000e+00
5.500000000000002109e-02 0.000000000000000000e+00
5.599999999999999423e-02 0.000000000000000000e+00
5.699999999999999512e-02 0.000000000000000000e+00
5.799999999999999600e-02 0.000000000000000000e+00
5.899999999999999689e-02 0.000000000000000000e+00
5.999999999999999778e-02 0.000000000000000000e+00
6.099999999999999867e-02 0.000000000000000000e+00
6.199999999999999956e-02 0.000000000000000000e+00
6.300000000000000044e-02 0.000000000000000000e+00
6.400000000000000133e-02 0.000000000000000000e+00
6.500000000000000222e-02 0.000000000000000000e+00
6.600000000000000311e-02 0.000000000000000000e+00
6.700000000000000400e-02 0.000000000000000000e+00
6.800000000000000488e-02 0.000000000000000000e+00
6.900000000000000577e-02 0.000000000000000000e+00
7.000000000000000666e-02 0.000000000000000000e+00
7.100000000000000755e-02 0.000000000000000000e+00
7.200000000000000844e-02 0.000000000000000000e+00
7.300000000000000933e-02 0.000000000000000000e+00
7.400000000000001021e-02 -0.000000000000000000e+00
7.500000000000001110e-02 -8.407790785948902426e-45
7.600000000000001199e-02 -1.835700988265510363e-43
7.700000000000001288e-02 -2.139782755023995667e-42
7.800000000000001377e-02 -7.318981879168519561e-42
7.900000000000001465e-02 2.494283240528887890e-40
8.000000000000001554e-02 6.394151517384962466e-39
8.100000000000001643e-02 9.058881696621999480e-38
8.200000000000001732e-02 8.875538383938914773e-37
8.300000000000001821e-02 5.438979142633848401e-36
8.400000000000001910e-02 -2.574697279792390104e-36
8.500000000000001998e-02 -6.387582578603057893e-34
8.600000000000002087e-02 -1.118132504022464596e-32
8.700000000000002176e-02 -1.361189544410385910e-31
8.800000000000002265e-02 -1.359837161669651885e-30
8.899999999999999578e-02 -1.177118225738287449e-29
8.999999999999999667e-02 -9.043462850706542983e-29
9.099999999999999756e-02 -6.233038746003531886e-28
9.199999999999999845e-02 -3.862686696549838991e-27
9.299999999999999933e-02 -2.138818080431121028e-26
9.400000000000000022e-02 -1.037618454180659056e-25
9.500000000000000111e-02 -4.193619084819502177e-25
9.600000000000000200e-02 -1.198291843767134705e-24
9.700000000000000289e-02 -1.645880625248283439e-25
9.800000000000000377e-02 2.893836518784861872e-23
9.900000000000000466e-02 2.589450183993137647e-22
1.000000000000000056e-01 1.515260283594054270e-21
1.010000000000000064e-01 6.354160339252625123e-21
1.020000000000000073e-01 1.381781141021537731e-20
1.030000000000000082e-01 -6.603166987569731873e-20
1.040000000000000091e-01 -1.102184562014524410e-18
1.050000000000000100e-01 -9.065465243759592977e-18
1.060000000000000109e-01 -5.804957662528095665e-17
1.070000000000000118e-01 -3.178969972884756719e-16
1.080000000000000127e-01 -1.541223881374245708e-15
1.090000000000000135e-01 -6.715703686921035628e-15
1.100000000000000144e-01 -2.646572400794543201e-14
1.110000000000000153e-01 -9.443066852554346524e-14
1.120000000000000162e-01 -3.041757384164567313e-13
1.130000000000000171e-01 -8.783360865884104474e-13
1.140000000000000180e-01 -2.244530949990775071e-12
1.150000000000000189e-01 -4.957674461930627885e-12
1.160000000000000198e-01 -9.011848559059565389e-12
1.170000000000000207e-01 -1.174671210996125481e-11
1.180000000000000215e-01 -3.841042935104344025e-12
1.190000000000000224e-01 3.486285912734921055e-11
1.199999999999999956e-01 1.330801441268292251e-10
1.209999999999999964e-01 3.090149525153407239e-10
1.219999999999999973e-01 5.326569185726270916e-10
1.229999999999999982e-01 6.974916200164216207e-10
1.239999999999999991e-01 6.610569314169367772e-10
1.250000000000000000e-01 3.826270134066334094e-10
1.260000000000000009e-01 5.195925634193798714e-11
1.270000000000000018e-01 -9.899577685379412628e-12
1.280000000000000027e-01 2.804506071818479995e-10
1.290000000000000036e-01 5.431577965175904410e-10
1.300000000000000044e-01 3.401543213765734208e-10
1.310000000000000053e-01 -1.491243656337459811e-10
1.320000000000000062e-01 -2.892864003900541547e-10
1.330000000000000071e-01 -1.847872375948522716e-11
1.340000000000000080e-01 -9.980054109515190675e-12
1.350000000000000089e-01 -3.791347791270993639e-10
1.360000000000000098e-01 -3.394116931954016536e-10
1.370000000000000107e-01 1.826463980059145342e-10
1.380000000000000115e-01 2.681743993537821780e-10
1.390000000000000124e-01 -1.895908950666491677e-11
1.400000000000000133e-01 1.671489197052622444e-10
1.410000000000000142e-01 3.176034713003872412e-10
1.420000000000000151e-01 -1.826717804798150269e-10
1.430000000000000160e-01 -3.272869475434703190e-10
1.440000000000000169e-01 2.771099669174326152e-11
1.450000000000000178e-01 -1.231877377882995006e-10
1.460000000000000187e-01 -1.147893238795383297e-10
1.470000000000000195e-01 3.737513354362675955e-10
1.480000000000000204e-01 1.497342250189603874e-10
1.490000000000000213e-01 -1.218888601162149143e-10
1.500000000000000222e-01 9.387952915052011349e-11
1.510000000000000231e-01 -2.437888224626760802e-10
1.520000000000000240e-01 -2.362902651320553105e-10
1.530000000000000249e-01 2.374920260450608112e-10
1.540000000000000258e-01 1.537544223884079742e-11
1.550000000000000266e-01 1.406453009611396965e-10
1.560000000000000275e-01 1.700414392624693960e-10
1.570000000000000284e-01 -3.216744925982339964e-10
1.580000000000000293e-01 -3.159369293959102265e-11
1.590000000000000302e-01 -5.167228103730714395e-11
1.600000000000000311e-01 -2.204238007397218979e-11
1.610000000000000320e-01 3.455085939574331633e-10
1.620000000000000329e-01 -9.718748028575419085e-11
1.630000000000000338e-01 -1.328466850414322664e-11
1.640000000000000346e-01 -1.205284760885660944e-10
1.650000000000000355e-01 -1.962256884757707098e-10
1.660000000000000364e-01 2.654627073717108487e-10
1.670000000000000373e-01 -1.428765699501566289e-11
1.680000000000000382e-01 1.651580955330800293e-10
1.689999999999999836e-01 -1.222887624496848957e-10
1.699999999999999845e-01 -2.073279881109613143e-10
1.709999999999999853e-01 8.981845822653156119e-11
1.719999999999999862e-01 -5.581362455542304701e-11
1.729999999999999871e-01 2.972104506948625158e-10
1.739999999999999880e-01 -1.314607589453231640e-10
1.749999999999999889e-01 -3.621355298966122405e-11
1.759999999999999898e-01 -1.357579881844372949e-10
1.769999999999999907e-01 -9.583459514243136690e-14
1.779999999999999916e-01 2.266759696611941877e-10
1.789999999999999925e-01 -5.181364712281144591e-11
1.799999999999999933e-01 7.894334491664878328e-11
1.809999999999999942e-01 -2.884053551532872461e-10
1.819999999999999951e-01 1.291222545551917733e-10
1.829999999999999960e-01 -1.584504229212857496e-11
1.839999999999999969e-01 2.230199636077401237e-10
1.849999999999999978e-01 -9.274395140757007994e-11
1.859999999999999987e-01 -8.015534763705645105e-11
1.869999999999999996e-01 -5.338714539893096855e-11
1.880000000000000004e-01 7.903508403295234075e-11
1.890000000000000013e-01 1.984918618358477715e-10
1.900000000000000022e-01 -5.237053846141037639e-11
1.910000000000000031e-01 1.407589496349448410e-11
1.920000000000000040e-01 -1.391682880047540039e-10
1.930000000000000049e-01 2.510901486729721910e-10
1.940000000000000058e-01 5.398899730058026591e-11
1.950000000000000067e-01 2.216078293093559637e-10
1.960000000000000075e-01 -1.607206312481679333e-10
1.970000000000000084e-01 1.750564138092158828e-10
1.980000000000000093e-01 5.684635054348241567e-11
1.990000000000000102e-01 4.188311086839036079e-10
2.000000000000000111e-01 6.404951569116690280e-11
2.010000000000000120e-01 2.619981454010655852e-10
2.020000000000000129e-01 6.669542002013528759e-11
2.030000000000000138e-01 5.201246655595070933e-10
2.040000000000000147e-01 3.408125448522980605e-10
2.050000000000000155e-01 5.534706581933335201e-10
2.060000000000000164e-01 2.686252331685068384e-10
2.070000000000000173e-01 7.086607967110580830e-10
2.080000000000000182e-01 6.812440611625447673e-10
2.090000000000000191e-01 1.044510034020618150e-09
2.100000000000000200e-01 7.931515444425940586e-10
2.110000000000000209e-01 1.158479756568908670e-09
2.120000000000000218e-01 1.157369422521981051e-09
2.130000000000000226e-01 1.716724429279281594e-09
2.140000000000000235e-01 1.673593486017921350e-09
2.150000000000000244e-01 2.030263512864394215e-09
2.160000000000000253e-01 2.050898784133892150e-09
2.170000000000000262e-01 2.701958434769835549e-09
2.180000000000000271e-01 2.965659051668012580e-09
2.190000000000000280e-01 3.439525775306151445e-09
2.200000000000000289e-01 3.627326217170434575e-09
2.210000000000000298e-01 4.259866681621815587e-09
2.220000000000000306e-01 4.899921801637674434e-09
2.230000000000000315e-01 5.531884728071645441e-09
2.240000000000000324e-01 6.107650829534350123e-09
2.250000000000000333e-01 6.706226685082583572e-09
2.260000000000000342e-01 7.709334504113485309e-09
2.270000000000000351e-01 8.517637262173138879e-09
2.280000000000000360e-01 9.602326045410336519e-09
2.290000000000000369e-01 1.027215468241138296e-08
2.300000000000000377e-01 1.159673423956064653e-08
2.310000000000000386e-01 1.266546689748793142e-08
2.319999999999999840e-01 1.421084050434728852e-08
2.329999999999999849e-01 1.525387993694948818e-08
2.339999999999999858e-01 1.673503824406452622e-08
2.349999999999999867e-01 1.819362438482130528e-08
2.359999999999999876e-01 1.994160214735529735e-08
2.369999999999999885e-01 2.157458922624755360e-08
2.379999999999999893e-01 2.306574842236841505e-08
2.389999999999999902e-01 2.495830564441803290e-08
2.399999999999999911e-01 2.672903498535106337e-08
2.409999999999999920e-01 2.887162686704414227e-08
2.419999999999999929e-01 3.043526675128305214e-08
2.429999999999999938e-01 3.242285373517006519e-08
2.439999999999999947e-01 3.428945660743920598e-08
2.449999999999999956e-01 3.639394563492714951e-08
2.459999999999999964e-01 3.815245364080510626e-08
2.469999999999999973e-01 3.975458184868330136e-08
2.479999999999999982e-01 4.163601374784775544e-08
2.489999999999999991e-01 4.323005242667932180e-08
2.500000000000000000e-01 4.490390281830514141e-08
2.510000000000000009e-01 4.592082802901131799e-08
2.520000000000000018e-01 4.724417124180035898e-08
2.530000000000000027e-01 4.816488541337093920e-08
2.540000000000000036e-01 4.903393246991072374e-08
2.550000000000000044e-01 4.950859278096686467e-08
2.560000000000000053e-01 4.943079190411481250e-08
2.570000000000000062e-01 4.952935128699209599e-08
2.580000000000000071e-01 4.893808380757036502e-08
2.590000000000000080e-01 4.827749222613419988e-08
2.600000000000000089e-01 4.670299702524971508e-08
2.610000000000000098e-01 4.502534167727390013e-08
2.620000000000000107e-01 4.307647927248581254e-08
2.630000000000000115e-01 4.042937717940731090e-08
2.640000000000000124e-01 3.744493426438566530e-08
2.650000000000000133e-01 3.376515422814918566e-08
2.660000000000000142e-01 3.000074855208367808e-08
2.670000000000000151e-01 2.546003052827927604e-08
2.680000000000000160e-01 2.066789228649668075e-08
2.690000000000000169e-01 1.524346693315692391e-08
2.700000000000000178e-01 9.422508995271527965e-09
2.710000000000000187e-01 3.549759153287368463e-09
2.720000000000000195e-01 -3.251989566521729103e-09
2.730000000000000204e-01 -1.008788341749777828e-08
2.740000000000000213e-01 -1.726058229678528733e-08
2.750000000000000222e-01 -2.460142134452780738e-08
2.760000000000000231e-01 -3.206738341532400227e-08
2.770000000000000240e-01 -3.997546471623536490e-08
2.780000000000000249e-01 -4.769717776298421086e-08
2.790000000000000258e-01 -5.563263627550441015e-08
2.800000000000000266e-01 -6.320760093103672261e-08
2.810000000000000275e-01 -7.088097220275813015e-08
2.820000000000000284e-01 -7.864943540880631190e-08
2.830000000000000293e-01 -8.554207653332923655e-08
2.840000000000000302e-01 -9.249282584278262220e-08
2.850000000000000311e-01 -9.899084574271910242e-08
2.860000000000000320e-01 -1.051566869136877358e-07
2.870000000000000329e-01 -1.107400322553075966e-07
2.880000000000000338e-01 -1.154131084035725507e-07
2.890000000000000346e-01 -1.199234418436390115e-07
2.900000000000000355e-01 -1.235015218981061480e-07
2.910000000000000364e-01 -1.265012201656645630e-07
2.920000000000000373e-01 -1.284713135873971623e-07
2.930000000000000382e-01 -1.297525642485197750e-07
2.940000000000000391e-01 -1.306078019069900620e-07
2.950000000000000400e-01 -1.304106973520902102e-07
2.960000000000000409e-01 -1.293249738409940619e-07
2.969999999999999862e-01 -1.275968060099330614e-07
2.979999999999999871e-01 -1.248065757408767240e-07
2.989999999999999880e-01 -1.217633212036162149e-07
2.999999999999999889e-01 -1.174987289687123848e-07
3.009999999999999898e-01 -1.128056581478631415e-07
3.019999999999999907e-01 -1.075516919968322327e-07
3.029999999999999916e-01 -1.015909916191048978e-07
3.039999999999999925e-01 -9.508555365300708218e-08
3.049999999999999933e-01 -8.796868655736034270e-08
3.059999999999999942e-01 -8.079066304844673141e-08
3.069999999999999951e-01 -7.345196451069568866e-08
3.079999999999999960e-01 -6.535380947525482043e-08
3.089999999999999969e-01 -5.747580189563450404e-08
3.099999999999999978e-01 -4.942905107441220025e-08
3.109999999999999987e-01 -4.146685128603166959e-08
3.119999999999999996e-01 -3.355374644797848305e-08
3.130000000000000004e-01 -2.551909972225985257e-08
3.140000000000000013e-01 -1.814470351746422239e-08
3.150000000000000022e-01 -1.083207568086663741e-08
3.160000000000000031e-01 -3.707655293894163151e-09
3.170000000000000040e-01 2.849367852775230858e-09
3.180000000000000049e-01 9.175304072073231509e-09
3.190000000000000058e-01 1.466385413095849799e-08
3.200000000000000067e-01 2.004210841732856352e-08
3.210000000000000075e-01 2.480339489352445526e-08
3.220000000000000084e-01 2.897912843025096663e-08
3.230000000000000093e-01 3.257513725429816986e-08
3.240000000000000102e-01 3.559261685381898133e-08
3.250000000000000111e-01 3.812701265815121587e-08
3.260000000000000120e-01 4.006514586762932595e-08
3.270000000000000129e-01 4.106970408201959799e-08
3.280000000000000138e-01 4.200939685006233049e-08
3.290000000000000147e-01 4.238068029849273444e-08
3.300000000000000155e-01 4.209235271446232218e-08
3.310000000000000164e-01 4.145868359728410724e-08
3.320000000000000173e-01 4.012623833204997936e-08
3.330000000000000182e-01 3.894107436508420506e-08
3.340000000000000191e-01 3.708065321461617714e-08
3.350000000000000200e-01 3.477142485053263954e-08
3.360000000000000209e-01 3.251700775308563607e-08
3.370000000000000218e-01 2.994664072275554645e-08
3.380000000000000226e-01 2.687372635534757137e-08
3.390000000000000235e-01 2.408916266460892075e-08
3.400000000000000244e-01 2.067417526063763944e-08
3.410000000000000253e-01 1.760983181497977057e-08
3.420000000000000262e-01 1.444966546415571429e-08
3.430000000000000271e-01 1.091166801359122474e-08
3.440000000000000280e-01 7.717424033160114050e-09
3.450000000000000289e-01 4.525120278486838288e-09
3.460000000000000298e-01 1.276077910006279126e-09
3.470000000000000306e-01 -1.757266998581030748e-09
3.480000000000000315e-01 -4.904443073883157922e-09
3.490000000000000324e-01 -7.800446510941583256e-09
3.500000000000000333e-01 -1.020937112627962051e-08
3.510000000000000342e-01 -1.339920530085692008e-08
3.520000000000000351e-01 -1.584160180811977625e-08
3.530000000000000360e-01 -1.816502859242064005e-08
3.540000000000000369e-01 -2.045231184411022696e-08
3.550000000000000377e-01 -2.252112807354933466e-08
3.560000000000000386e-01 -2.461486481308838847e-08
3.570000000000000395e-01 -2.621773020905493468e-08
3.580000000000000404e-01 -2.765518125613652956e-08
3.590000000000000413e-01 -2.947588306767556787e-08
3.599999999999999867e-01 -3.090022460128238890e-08
3.609999999999999876e-01 -3.192851139033336949e-08
3.619999999999999885e-01 -3.326084296872977575e-08
3.629999999999999893e-01 -3.418168148527911399e-08
3.639999999999999902e-01 -3.516950997095591447e-08
3.649999999999999911e-01 -3.591039288153297093e-08
3.659999999999999920e-01 -3.632722922475295491e-08
3.669999999999999929e-01 -3.728208497477680794e-08
3.679999999999999938e-01 -3.785442714843156864e-08
3.689999999999999947e-01 -3.813548588027515507e-08
3.699999999999999956e-01 -3.864967013100795157e-08
3.709999999999999964e-01 -3.907202383857111272e-08
3.719999999999999973e-01 -3.927937797243430396e-08
3.729999999999999982e-01 -3.957828553780018410e-08
3.739999999999999991e-01 -3.985011787221992563e-08
3.750000000000000000e-01 -4.011710785789546208e-08
3.760000000000000009e-01 -4.040243339886728791e-08
3.770000000000000018e-01 -4.030849609648612386e-08
3.780000000000000027e-01 -4.041134005206004076e-08
3.790000000000000036e-01 -4.071775094871554757e-08
3.800000000000000044e-01 -4.080979110199223214e-08
3.810000000000000053e-01 -4.100465389456076082e-08
3.820000000000000062e-01 -4.120461483125836821e-08
3.830000000000000071e-01 -4.139191744911840942e-08
3.840000000000000080e-01 -4.162831501730579475e-08
3.850000000000000089e-01 -4.167996436876819644e-08
3.860000000000000098e-01 -4.190508562373906898e-08
3.870000000000000107e-01 -4.204894565873473766e-08
3.880000000000000115e-01 -4.225410776825810899e-08
3.890000000000000124e-01 -4.240821382950343832e-08
3.900000000000000133e-01 -4.263749531219218625e-08
3.910000000000000142e-01 -4.266600939217823907e-08
3.920000000000000151e-01 -4.304987299974527559e-08
3.930000000000000160e-01 -4.335174352831927536e-08
3.940000000000000169e-01 -4.342793147316115210e-08
3.950000000000000178e-01 -4.389812602312304080e-08
3.960000000000000187e-01 -4.426858524197996303e-08
3.970000000000000195e-01 -4.431127464954442985e-08
3.980000000000000204e-01 -4.484479276811725867e-08
3.990000000000000213e-01 -4.507792539243382635e-08
4.000000000000000222e-01 -4.520832774801419873e-08
4.010000000000000231e-01 -4.541868747764965519e-08
4.020000000000000240e-01 -4.558107136176658969e-08
4.030000000000000249e-01 -4.601718117669406638e-08
4.040000000000000258e-01 -4.642125617237979895e-08
4.050000000000000266e-01 -4.647327145335111709e-08
4.060000000000000275e-01 -4.663795749593191431e-08
4.070000000000000284e-01 -4.684531873522246315e-08
4.080000000000000293e-01 -4.701470857071399223e-08
4.090000000000000302e-01 -4.727247215896568378e-08
4.100000000000000311e-01 -4.734244640758333844e-08
4.110000000000000320e-01 -4.761254501772782532e-08
4.120000000000000329e-01 -4.770868855530352448e-08
4.130000000000000338e-01 -4.779649032116140006e-08
4.140000000000000346e-01 -4.766325290006534487e-08
4.150000000000000355e-01 -4.795139929569813830e-08
4.160000000000000364e-01 -4.769499639678542735e-08
4.170000000000000373e-01 -4.739079884075181326e-08
4.180000000000000382e-01 -4.717986712421406992e-08
4.190000000000000391e-01 -4.668681086172910000e-08
4.200000000000000400e-01 -4.578918932907072303e-08
4.210000000000000409e-01 -4.506820872052230698e-08
4.220000000000000417e-01 -4.405988818234618520e-08
4.230000000000000426e-01 -4.275227283301319403e-08
4.240000000000000435e-01 -4.134662390242738184e-08
4.250000000000000444e-01 -3.953413951762740908e-08
4.260000000000000453e-01 -3.761637401566986227e-08
4.270000000000000462e-01 -3.530407610696784104e-08
4.280000000000000471e-01 -3.229247269587176561e-08
4.290000000000000480e-01 -2.870363857709889999e-08
4.300000000000000488e-01 -2.497866979922491737e-08
4.310000000000000497e-01 -2.061841897216254438e-08
4.320000000000000506e-01 -1.549730832550721971e-08
4.330000000000000515e-01 -9.637982856247617747e-09
4.340000000000000524e-01 -2.893898454203736037e-09
4.350000000000000533e-01 4.623214699961408769e-09
4.360000000000000542e-01 1.315289033243516315e-08
4.370000000000000551e-01 2.303903556821751408e-08
4.380000000000000560e-01 3.362158196296149981e-08
4.390000000000000568e-01 4.572306622208088811e-08
4.400000000000000577e-01 5.933881297437437752e-08
4.410000000000000586e-01 7.426719150771532441e-08
4.420000000000000595e-01 9.069506745618127752e-08
4.430000000000000604e-01 1.088749712607750553e-07
4.440000000000000613e-01 1.288368736140910187e-07
4.450000000000000622e-01 1.506439701870476711e-07
4.460000000000000631e-01 1.746091413679096149e-07
4.470000000000000639e-01 2.005952239869657205e-07
4.480000000000000648e-01 2.287920466415016563e-07
4.490000000000000657e-01 2.595329533505719155e-07
4.500000000000000666e-01 2.921431416780251311e-07
4.510000000000000675e-01 3.273676725257246289e-07
4.520000000000000684e-01 3.649803375083138235e-07
4.530000000000000693e-01 4.047665527195931645e-07
4.540000000000000702e-01 4.471059185107151279e-07
4.550000000000000711e-01 4.919465936836786568e-07
4.560000000000000719e-01 5.389107400333159603e-07
4.569999999999999618e-01 5.879700779587437864e-07
4.579999999999999627e-01 6.392159548340714537e-07
4.589999999999999636e-01 6.919971724528295454e-07
4.599999999999999645e-01 7.467687055395799689e-07
4.609999999999999654e-01 8.027503213270392735e-07
4.619999999999999662e-01 8.596714451414300129e-07
4.629999999999999671e-01 9.170107091449608561e-07
4.639999999999999680e-01 9.747659532877150923e-07
4.649999999999999689e-01 1.032003979162254836e-06
4.659999999999999698e-01 1.088504973267845344e-06
4.669999999999999707e-01 1.144021894106117543e-06
4.679999999999999716e-01 1.197361825688858517e-06
4.689999999999999725e-01 1.248031367140356451e-06
4.699999999999999734e-01 1.295427182412822731e-06
4.709999999999999742e-01 1.339038590231211856e-06
4.719999999999999751e-01 1.377757484988251235e-06