-1.199999999999999956e-01 0.000000000000000000e+00
-1.189999999999999947e-01 0.000000000000000000e+00
-1.179999999999999938e-01 0.000000000000000000e+00
-1.169999999999999929e-01 0.000000000000000000e+00
-1.159999999999999920e-01 0.000000000000000000e+00
-1.149999999999999911e-01 0.000000000000000000e+00
-1.139999999999999902e-01 0.000000000000000000e+00
-1.129999999999999893e-01 0.000000000000000000e+00
-1.119999999999999885e-01 0.000000000000000000e+00
-1.109999999999999876e-01 0.000000000000000000e+00
-1.100000000000000006e-01 0.000000000000000000e+00
-1.089999999999999997e-01 0.000000000000000000e+00
-1.079999999999999988e-01 0.000000000000000000e+00
-1.069999999999999979e-01 0.000000000000000000e+00
-1.059999999999999970e-01 0.000000000000000000e+00
-1.049999999999999961e-01 0.000000000000000000e+00
-1.039999999999999952e-01 0.000000000000000000e+00
-1.029999999999999943e-01 0.000000000000000000e+00
-1.019999999999999934e-01 0.000000000000000000e+00
-1.009999999999999926e-01 0.000000000000000000e+00
-9.999999999999999167e-02 0.000000000000000000e+00
-9.899999999999999079e-02 0.000000000000000000e+00
-9.800000000000000377e-02 0.000000000000000000e+00
-9.700000000000000289e-02 0.000000000000000000e+00
-9.600000000000000200e-02 0.000000000000000000e+00
-9.500000000000000111e-02 0.000000000000000000e+00
-9.400000000000000022e-02 0.000000000000000000e+00
-9.299999999999999933e-02 0.000000000000000000e+00
-9.199999999999999845e-02 0.000000000000000000e+00
-9.099999999999999756e-02 0.000000000000000000e+00
-8.999999999999999667e-02 0.000000000000000000e+00
-8.899999999999999578e-02 0.000000000000000000e+00
-8.799999999999999489e-02 0.000000000000000000e+00
-8.699999999999999400e-02 0.000000000000000000e+00
-8.599999999999999312e-02 0.000000000000000000e+00
-8.499999999999999223e-02 0.000000000000000000e+00
-8.399999999999999134e-02 0.000000000000000000e+00
-8.299999999999999045e-02 0.000000000000000000e+00
-8.199999999999998956e-02 0.000000000000000000e+00
-8.099999999999998868e-02 0.000000000000000000e+00
-7.999999999999998779e-02 0.000000000000000000e+00
-7.899999999999998690e-02 0.000000000000000000e+00
-7.799999999999998601e-02 0.000000000000000000e+00
-7.699999999999998512e-02 0.000000000000000000e+00
-7.599999999999999811e-02 0.000000000000000000e+00
-7.499999999999999722e-02 0.000000000000000000e+00
-7.399999999999999634e-02 0.000000000000000000e+00
-7.299999999999999545e-02 0.000000000000000000e+00
-7.199999999999999456e-02 0.000000000000000000e+00
-7.099999999999999367e-02 0.000000000000000000e+00
-6.999999999999999278e-02 0.000000000000000000e+00
-6.899999999999999190e-02 0.000000000000000000e+00
-6.799999999999999101e-02 0.000000000000000000e+00
-6.700000000000000400e-02 0.000000000000000000e+00
-6.600000000000000311e-02 0.000000000000000000e+00
-6.500000000000000222e-02 0.000000000000000000e+00
-6.400000000000000133e-02 0.000000000000000000e+00
-6.300000000000000044e-02 0.000000000000000000e+00
-6.199999999999999262e-02 0.000000000000000000e+00
-6.099999999999999173e-02 0.000000000000000000e+00
-5.999999999999999778e-02 0.000000000000000000e+00
-5.899999999999999689e-02 0.000000000000000000e+00
-5.799999999999999600e-02 0.000000000000000000e+00
-5.699999999999999512e-02 0.000000000000000000e+00
-5.599999999999999423e-02 0.000000000000000000e+00
-5.499999999999999334e-02 0.000000000000000000e+00
-5.399999999999999245e-02 0.000000000000000000e+00
-5.299999999999999156e-02 0.000000000000000000e+00
-5.199999999999999067e-02 0.000000000000000000e+00
-5.099999999999998979e-02 0.000000000000000000e+00
-4.999999999999998890e-02 0.000000000000000000e+00
-4.899999999999998801e-02 0.000000000000000000e+00
-4.799999999999998712e-02 0.000000000000000000e+00
-4.700000000000000011e-02 0.000000000000000000e+00
-4.599999999999999922e-02 0.000000000000000000e+00
-4.499999999999999833e-02 0.000000000000000000e+00
-4.399999999999999745e-02 0.000000000000000000e+00
-4.299999999999999656e-02 0.000000000000000000e+00
-4.199999999999999567e-02 -3.391142283666057312e-43
-4.099999999999999478e-02 9.544482061255264289e-40
-3.999999999999999389e-02 -1.469513673568149166e-36
-3.899999999999999301e-02 1.143186898780394674e-33
-3.799999999999999212e-02 -3.864965710390659554e-31
-3.699999999999999123e-02 3.493989003186404129e-29
-3.599999999999999034e-02 2.436724699051629669e-27
-3.499999999999998945e-02 -1.018879148118051474e-27
-3.399999999999998856e-02 -5.657301387865739574e-24
-3.299999999999998768e-02 -3.442023787323122768e-22
-3.200000000000000067e-02 -1.239735650594143114e-20
-3.099999999999999978e-02 -2.726215917491615886e-19
-2.999999999999999889e-02 -1.583117813308088182e-18
-2.899999999999999800e-02 1.054968749370043381e-16
-2.799999999999999711e-02 3.250326093004267912e-15
-2.699999999999999623e-02 3.327010907982867749e-14
-2.599999999999999534e-02 -2.772577699654450722e-14
-2.499999999999999445e-02 -2.481331329642899597e-12
-2.399999999999999356e-02 -8.629771376666983684e-12
-2.299999999999999267e-02 3.665240333461383671e-11
-2.199999999999999178e-02 1.421582712657354364e-10
-2.099999999999999090e-02 -1.668662708009804874e-10
-1.999999999999999001e-02 -3.309294227538117639e-10
-1.899999999999998912e-02 2.481356231598397244e-10
-1.799999999999998823e-02 -3.438279383427556013e-10
-1.699999999999998734e-02 2.386045527824620649e-10
-1.599999999999998646e-02 -3.280880012113129851e-10
-1.499999999999999944e-02 2.599737647379640748e-10
-1.399999999999999856e-02 -3.734698661439495027e-10
-1.299999999999999767e-02 2.965190315507015839e-10
-1.199999999999999678e-02 -2.993077452551062834e-10
-1.099999999999999589e-02 1.561109852499242834e-10
-9.999999999999995004e-03 5.179024570312051878e-11
-8.999999999999994116e-03 -1.628378543117037225e-10
-7.999999999999993228e-03 3.652896318762088868e-10
-6.999999999999992339e-03 -5.853040274672594023e-10
-5.999999999999991451e-03 -2.567194026803498730e-11
-4.999999999999990563e-03 8.931643757925655791e-10
-3.999999999999989675e-03 -4.306381917729140696e-10
-2.999999999999988787e-03 7.630549525572405400e-10
-1.999999999999987899e-03 -1.203637189917117212e-10
-9.999999999999870104e-04 -5.069324404693986708e-10
0.000000000000000000e+00 5.704750005719461114e-10
1.000000000000000888e-03 1.636630830859076013e-10
2.000000000000001776e-03 -3.409040272295271734e-10
3.000000000000002665e-03 -7.663575329885929932e-11
4.000000000000003553e-03 -2.405297905294645489e-10
5.000000000000004441e-03 2.604158555463698121e-10
6.000000000000005329e-03 7.422373826670991548e-10
7.000000000000006217e-03 -1.909886554463113839e-10
8.000000000000007105e-03 -4.180245594120890473e-10
9.000000000000007994e-03 3.944315707382628489e-10
1.000000000000000888e-02 3.523434322083573988e-10
1.100000000000000977e-02 1.440504937555431297e-10
1.200000000000001066e-02 1.028122587065638527e-10
1.300000000000001155e-02 -5.398296809566716092e-10
1.400000000000001243e-02 -4.351669580238137769e-10
1.500000000000001332e-02 4.844283862937004415e-10
1.600000000000001421e-02 1.842413999142422654e-10
1.700000000000001510e-02 -5.403658076552630973e-10
1.800000000000001599e-02 -1.433926311023014932e-10
1.900000000000001688e-02 2.241503649358378425e-10
2.000000000000001776e-02 1.536764049347993932e-10
2.100000000000001865e-02 3.165561146545314841e-10
2.200000000000001954e-02 -7.599498808019689022e-11
2.300000000000002043e-02 -7.518261568861817068e-10
2.400000000000002132e-02 -1.852034081650799635e-10
2.499999999999999445e-02 5.582991846608820197e-10
2.599999999999999534e-02 2.544853217045783822e-11
2.699999999999999623e-02 -4.285167776174603205e-10
2.799999999999999711e-02 -7.549205705004169431e-11
2.899999999999999800e-02 -7.319478356748732040e-12
2.999999999999999889e-02 -7.335465568303334294e-11
3.099999999999999978e-02 9.996981020776729565e-11
3.200000000000000067e-02 -2.828217660066911776e-10
3.300000000000000155e-02 -6.717861822380655212e-10
3.400000000000000244e-02 3.324096553569688695e-11
3.500000000000000333e-02 5.350475618115524412e-10
3.600000000000000422e-02 -2.203925930643890752e-10
3.700000000000000511e-02 -7.182912042935640784e-10
3.800000000000000600e-02 -2.778648422463447787e-10
3.900000000000000688e-02 -4.103561934698518598e-11
4.000000000000000777e-02 -3.043965079996269196e-11
4.100000000000000866e-02 6.924949502717936411e-11
4.200000000000000955e-02 -3.439524220993916970e-10
4.300000000000001044e-02 -8.391047856548539130e-10
4.400000000000001132e-02 -2.430233791983482661e-10
4.500000000000001221e-02 3.001332515850663185e-10
4.600000000000001310e-02 -3.027125217158754822e-10
4.700000000000001399e-02 -7.893845577200409025e-10
4.800000000000001488e-02 -4.394209440761187579e-10
4.900000000000001577e-02 -2.055244863186089788e-10
5.000000000000001665e-02 -3.581632768145937007e-10
5.100000000000001754e-02 -2.836273438333591912e-10
5.200000000000001843e-02 -3.255209435337746982e-10
5.300000000000001932e-02 -6.232312443898990750e-10
5.400000000000002021e-02 -2.210427396676095668e-10
5.500000000000002109e-02 2.813891342157148756e-10
5.599999999999999423e-02 -2.257536380056990311e-10
5.699999999999999512e-02 -8.338787438333383761e-10
5.799999999999999600e-02 -2.450377678542281501e-10
5.899999999999999689e-02 1.217443923451355658e-10
5.999999999999999778e-02 -3.850999519272590987e-10
6.099999999999999867e-02 -5.028653049521381035e-10
6.199999999999999956e-02 -6.037197408659267239e-10
6.300000000000000044e-02 -3.823288352577947080e-10
6.400000000000000133e-02 -1.214033318319707178e-10
6.500000000000000222e-02 4.129105946049094200e-10
6.600000000000000311e-02 1.793551973605644889e-10
6.700000000000000400e-02 -2.161186785087920725e-10
6.800000000000000488e-02 2.091269379889126867e-10
6.900000000000000577e-02 9.139569101535016671e-10
7.000000000000000666e-02 8.743086254980880767e-10
7.100000000000000755e-02 1.997761955863097683e-10
7.200000000000000844e-02 2.248924602099577896e-09
7.300000000000000933e-02 -1.638568392081651837e-09
7.400000000000001021e-02 8.866010148267378099e-09
7.500000000000001110e-02 -1.136476157626020722e-08
7.600000000000001199e-02 2.146904876099142712e-08
7.700000000000001288e-02 -2.224265926997759379e-08
7.800000000000001377e-02 2.386894948358531110e-08
7.900000000000001465e-02 -6.923869477759581059e-09
8.000000000000001554e-02 -3.968096962125855498e-10
8.100000000000001643e-02 1.942463256909832126e-08
8.200000000000001732e-02 -1.242104019638645696e-08
8.300000000000001821e-02 5.536406888495548628e-09
8.400000000000001910e-02 1.604689714440610260e-08
8.500000000000001998e-02 -1.000015004137821961e-08
8.600000000000002087e-02 3.589434527384582907e-09
8.700000000000002176e-02 1.494171897320484277e-08
8.800000000000002265e-02 -7.084455688755042502e-09
8.899999999999999578e-02 -3.359492684040787935e-09
8.999999999999999667e-02 1.587648768008875777e-08
9.099999999999999756e-02 -5.568523420151905157e-11
9.199999999999999845e-02 -1.203045485453912988e-08
9.299999999999999933e-02 6.983029265938967001e-09
9.400000000000000022e-02 8.983306543086655438e-09
9.500000000000000111e-02 -9.855568805505754426e-09
9.600000000000000200e-02 -3.567578232832602225e-09
9.700000000000000289e-02 1.216247369484335650e-08
9.800000000000000377e-02 6.510163075290620327e-09
9.900000000000000466e-02 1.106627678382210433e-09
1.000000000000000056e-01 9.167763437289977446e-09
1.010000000000000064e-01 1.145974692917661741e-08
1.020000000000000073e-01 1.276652028536773287e-08
1.030000000000000082e-01 1.284388417843729258e-08
1.040000000000000091e-01 5.029278327128849924e-09
1.050000000000000100e-01 9.401674105902202427e-09
1.060000000000000109e-01 2.483227490301942453e-08
1.070000000000000118e-01 2.328022219444392249e-08
1.080000000000000127e-01 2.048682290478609502e-08
1.090000000000000135e-01 3.211744115105830133e-08
1.100000000000000144e-01 3.763648237509187311e-08
1.110000000000000153e-01 4.274443199392408133e-08
1.120000000000000162e-01 5.293782123771961778e-08
1.130000000000000171e-01 4.740832082461565733e-08
1.140000000000000180e-01 4.991943569621071219e-08
1.150000000000000189e-01 7.449489203281700611e-08
1.160000000000000198e-01 7.927337719593197107e-08
1.170000000000000207e-01 7.783455657772719860e-08
1.180000000000000215e-01 1.032285581459291279e-07
1.190000000000000224e-01 1.215512384078465402e-07
1.199999999999999956e-01 1.208418325404636562e-07
1.209999999999999964e-01 1.289581632590852678e-07
1.219999999999999973e-01 1.432581484550610185e-07
1.229999999999999982e-01 1.636690285522490740e-07
1.239999999999999991e-01 1.865901140263304114e-07
1.250000000000000000e-01 1.973676262423396111e-07
1.260000000000000009e-01 2.130673237843438983e-07
1.270000000000000018e-01 2.381457306910306215e-07
1.280000000000000027e-01 2.450869942549616098e-07
1.290000000000000036e-01 2.566412149462848902e-07
1.300000000000000044e-01 2.909036993514746428e-07
1.310000000000000053e-01 3.130953700747340918e-07
1.320000000000000062e-01 3.196764737367630005e-07
1.330000000000000071e-01 3.322929842397570610e-07
1.340000000000000080e-01 3.457898856140673161e-07
1.350000000000000089e-01 3.598252078518271446e-07
1.360000000000000098e-01 3.723180270753800869e-07
1.370000000000000107e-01 3.759196260944008827e-07
1.380000000000000115e-01 3.850509529002010822e-07
1.390000000000000124e-01 3.945751814171671867e-07
1.400000000000000133e-01 3.799432306550443172e-07
1.410000000000000142e-01 3.629538696259260178e-07
1.420000000000000151e-01 3.563473001122474670e-07
1.430000000000000160e-01 3.372551873326301575e-07
1.440000000000000169e-01 3.076129360124468803e-07
1.450000000000000178e-01 2.768792910501360893e-07
1.460000000000000187e-01 2.393644535914063454e-07
1.470000000000000195e-01 1.956505002453923225e-07
1.480000000000000204e-01 1.369335222989320755e-07
1.490000000000000213e-01 5.673791747540235519e-08
1.500000000000000222e-01 -2.229353412985801697e-08
1.510000000000000231e-01 -9.938958100974559784e-08
1.520000000000000240e-01 -1.992157194763422012e-07
1.530000000000000249e-01 -3.077730070799589157e-07
1.540000000000000258e-01 -4.084722604602575302e-07
1.550000000000000266e-01 -5.205511115491390228e-07
1.560000000000000275e-01 -6.454356480389833450e-07
1.570000000000000284e-01 -7.801281753927469254e-07
1.580000000000000293e-01 -9.258219506591558456e-07
1.590000000000000302e-01 -1.070235157385468483e-06
1.600000000000000311e-01 -1.215812517330050468e-06
1.610000000000000320e-01 -1.371779944747686386e-06
1.620000000000000329e-01 -1.514301402494311333e-06
1.630000000000000338e-01 -1.637934474274516106e-06
1.640000000000000346e-01 -1.768610673025250435e-06
1.650000000000000355e-01 -1.899519702419638634e-06
1.660000000000000364e-01 -2.015440259128808975e-06
1.670000000000000373e-01 -2.121349098160862923e-06
1.680000000000000382e-01 -2.209417289122939110e-06
1.689999999999999836e-01 -2.282380592077970505e-06
1.699999999999999845e-01 -2.346554538235068321e-06
1.709999999999999853e-01 -2.378161298111081123e-06
1.719999999999999862e-01 -2.380809746682643890e-06
1.729999999999999871e-01 -2.365704858675599098e-06
1.739999999999999880e-01 -2.322631189599633217e-06
1.749999999999999889e-01 -2.236760337837040424e-06
1.759999999999999898e-01 -2.121203579008579254e-06
1.769999999999999907e-01 -1.981017703656107187e-06
1.779999999999999916e-01 -1.806351065170019865e-06
1.789999999999999925e-01 -1.611195330042392015e-06
1.799999999999999933e-01 -1.382417394779622555e-06
1.809999999999999942e-01 -1.122927642427384853e-06
1.819999999999999951e-01 -8.459028322249650955e-07
1.829999999999999960e-01 -5.424371920526027679e-07
1.839999999999999969e-01 -2.041342668235301971e-07
1.849999999999999978e-01 1.461885403841733932e-07
1.859999999999999987e-01 4.998291842639446259e-07
1.869999999999999996e-01 8.724746294319629669e-07
1.880000000000000004e-01 1.258566044270992279e-06
1.890000000000000013e-01 1.647218596190214157e-06
1.900000000000000022e-01 2.032669726759195328e-06
1.910000000000000031e-01 2.400891389697790146e-06
1.920000000000000040e-01 2.759217750281095505e-06
1.930000000000000049e-01 3.103748895227909088e-06
1.940000000000000058e-01 3.418710548430681229e-06
1.950000000000000067e-01 3.698980435729026794e-06
1.960000000000000075e-01 3.957655280828475952e-06
1.970000000000000084e-01 4.181871190667152405e-06
1.980000000000000093e-01 4.356727004051208496e-06
1.990000000000000102e-01 4.482571966946125031e-06
2.000000000000000111e-01 4.564411938190460205e-06
2.010000000000000120e-01 4.598405212163925171e-06
2.020000000000000129e-01 4.591769538819789886e-06
2.030000000000000138e-01 4.530185833573341370e-06
2.040000000000000147e-01 4.412548150867223740e-06
2.050000000000000155e-01 4.251895006746053696e-06
2.060000000000000164e-01 4.047411493957042694e-06
2.070000000000000173e-01 3.788853064179420471e-06
2.080000000000000182e-01 3.489956725388765335e-06
2.090000000000000191e-01 3.161025233566761017e-06
2.100000000000000200e-01 2.804445102810859680e-06
2.110000000000000209e-01 2.411252353340387344e-06
2.120000000000000218e-01 1.990236341953277588e-06
2.130000000000000226e-01 1.542328391224145889e-06
2.140000000000000235e-01 1.091859303414821625e-06
2.150000000000000244e-01 6.418267730623483658e-07
2.160000000000000253e-01 1.791340764611959457e-07
2.170000000000000262e-01 -2.780871000140905380e-07
2.180000000000000271e-01 -7.187954906839877367e-07
2.190000000000000280e-01 -1.142378096119500697e-06
2.200000000000000289e-01 -1.553999027237296104e-06
2.210000000000000298e-01 -1.933163730427622795e-06
2.220000000000000306e-01 -2.281871275044977665e-06
2.230000000000000315e-01 -2.593413228169083595e-06
2.240000000000000324e-01 -2.865883288905024529e-06
2.250000000000000333e-01 -3.107095835730433464e-06
2.260000000000000342e-01 -3.313791239634156227e-06
2.270000000000000351e-01 -3.466673661023378372e-06
2.280000000000000360e-01 -3.569992259144783020e-06
2.290000000000000369e-01 -3.639317583292722702e-06
2.300000000000000377e-01 -3.670167643576860428e-06
2.310000000000000386e-01 -3.653811290860176086e-06
2.319999999999999840e-01 -3.604684025049209595e-06
2.329999999999999849e-01 -3.516615834087133408e-06
2.339999999999999858e-01 -3.396358806639909744e-06
2.349999999999999867e-01 -3.248511347919702530e-06
2.359999999999999876e-01 -3.062887117266654968e-06
2.369999999999999885e-01 -2.855842467397451401e-06
2.379999999999999893e-01 -2.640648745000362396e-06
2.389999999999999902e-01 -2.412940375506877899e-06
2.399999999999999911e-01 -2.163928002119064331e-06
2.409999999999999920e-01 -1.903506927192211151e-06
2.419999999999999929e-01 -1.642620190978050232e-06
2.429999999999999938e-01 -1.381849870085716248e-06
2.439999999999999947e-01 -1.128064468502998352e-06
2.449999999999999956e-01 -8.791103027760982513e-07
2.459999999999999964e-01 -6.316113285720348358e-07
2.469999999999999973e-01 -4.004396032541990280e-07
2.479999999999999982e-01 -1.850712578743696213e-07
2.489999999999999991e-01 2.287561073899269104e-08
2.500000000000000000e-01 2.163287717849016190e-07
2.510000000000000009e-01 3.845198079943656921e-07
2.520000000000000018e-01 5.320762284100055695e-07
2.530000000000000027e-01 6.660120561718940735e-07
2.540000000000000036e-01 7.860944606363773346e-07
2.550000000000000044e-01 8.886272553354501724e-07
2.560000000000000053e-01 9.698414942249655724e-07
2.570000000000000062e-01 1.024935045279562473e-06
2.580000000000000071e-01 1.070235157385468483e-06
2.590000000000000080e-01 1.105661795008927584e-06
2.600000000000000089e-01 1.123036781791597605e-06
2.610000000000000098e-01 1.124572008848190308e-06
2.620000000000000107e-01 1.118576619774103165e-06
2.630000000000000115e-01 1.101573616324458271e-06
2.640000000000000124e-01 1.070155121851712465e-06
2.650000000000000133e-01 1.030397470458410680e-06
2.660000000000000142e-01 9.856466931523755193e-07
2.670000000000000151e-01 9.388641046825796366e-07
2.680000000000000160e-01 8.924725989345461130e-07
2.690000000000000169e-01 8.361603249795734882e-07
2.700000000000000178e-01 7.697017281316220760e-07
2.710000000000000187e-01 7.069465937092900276e-07
2.720000000000000195e-01 6.533082341775298119e-07
2.730000000000000204e-01 5.966212484054267406e-07
2.740000000000000213e-01 5.374386091716587543e-07
2.750000000000000222e-01 4.800531314685940742e-07
2.760000000000000231e-01 4.236862878315150738e-07
2.770000000000000240e-01 3.713357727974653244e-07
2.780000000000000249e-01 3.252280293963849545e-07
2.790000000000000258e-01 2.776505425572395325e-07
2.800000000000000266e-01 2.332599251531064510e-07
2.810000000000000275e-01 1.996959326788783073e-07
2.820000000000000284e-01 1.653970684856176376e-07
2.830000000000000293e-01 1.261942088603973389e-07
2.840000000000000302e-01 9.350333129987120628e-08
2.850000000000000311e-01 7.158814696595072746e-08
2.860000000000000320e-01 5.379843059927225113e-08
2.870000000000000329e-01 3.579043550416827202e-08
2.880000000000000338e-01 1.512671587988734245e-08
2.890000000000000346e-01 -6.359186954796314240e-09
2.900000000000000355e-01 -1.856824383139610291e-08
2.910000000000000364e-01 -2.278102329000830650e-08
2.920000000000000373e-01 -3.131935955025255680e-08
2.930000000000000382e-01 -4.193134373053908348e-08
2.940000000000000391e-01 -4.586763679981231689e-08
2.950000000000000400e-01 -4.886533133685588837e-08
2.960000000000000409e-01 -5.432593752630054951e-08
2.969999999999999862e-01 -5.664696800522506237e-08
2.979999999999999871e-01 -5.608671926893293858e-08
2.989999999999999880e-01 -5.335459718480706215e-08
2.999999999999999889e-01 -5.008405423723161221e-08
3.009999999999999898e-01 -5.156471161171793938e-08
3.019999999999999907e-01 -5.808942660223692656e-08
3.029999999999999916e-01 -5.578294803854078054e-08
3.039999999999999925e-01 -4.534376785159111023e-08
3.049999999999999933e-01 -4.064168024342507124e-08
3.059999999999999942e-01 -4.262074071448296309e-08
3.069999999999999951e-01 -4.349021764937788248e-08
3.079999999999999960e-01 -4.155481292400509119e-08
3.089999999999999969e-01 -3.704735718201845884e-08
3.099999999999999978e-01 -3.162494977004826069e-08
3.109999999999999987e-01 -3.002423909492790699e-08
3.119999999999999996e-01 -2.962406142614781857e-08
3.130000000000000004e-01 -2.590240910649299622e-08
3.140000000000000013e-01 -2.280648914165794849e-08
3.150000000000000022e-01 -2.478191163390874863e-08
3.160000000000000031e-01 -2.358046913286671042e-08
3.170000000000000040e-01 -1.582520781084895134e-08
3.180000000000000049e-01 -1.154512574430555105e-08
3.190000000000000058e-01 -1.297485141549259424e-08
3.200000000000000067e-01 -1.652551873121410608e-08
3.210000000000000075e-01 -1.710031938273459673e-08
3.220000000000000084e-01 -1.239641278516501188e-08
3.230000000000000093e-01 -4.893081495538353920e-09
3.240000000000000102e-01 -4.688445187639445066e-09
3.250000000000000111e-01 -1.014632289297878742e-08
3.260000000000000120e-01 -9.878021955955773592e-09
3.270000000000000129e-01 -5.617948772851377726e-09
3.280000000000000138e-01 -4.379216989036649466e-09
3.290000000000000147e-01 -4.317371349316090345e-09
3.300000000000000155e-01 -2.150954969692975283e-09
3.310000000000000164e-01 -2.156411937903612852e-09
3.320000000000000173e-01 -2.888100425479933619e-09
3.330000000000000182e-01 -3.036802809219807386e-09
3.340000000000000191e-01 -4.247795004630461335e-09
3.350000000000000200e-01 -2.105025487253442407e-09
3.360000000000000209e-01 4.089542926521971822e-09
3.370000000000000218e-01 4.605681169778108597e-09
3.380000000000000226e-01 -2.327396941836923361e-09
3.390000000000000235e-01 -4.302819434087723494e-09
3.400000000000000244e-01 3.501554601825773716e-10
3.410000000000000253e-01 4.656612873077392578e-09
3.420000000000000262e-01 6.213667802512645721e-09
3.430000000000000271e-01 3.542936610756441951e-09
3.440000000000000280e-01 -1.533408067189157009e-09
3.450000000000000289e-01 -5.770743882749229670e-10
3.460000000000000298e-01 5.077708919998258352e-09
3.470000000000000306e-01 5.785750545328482985e-09
3.480000000000000315e-01 2.355136530240997672e-09
3.490000000000000324e-01 3.362401912454515696e-09
3.500000000000000333e-01 4.682533472077921033e-09
3.510000000000000342e-01 2.247361408080905676e-09
3.520000000000000351e-01 1.688931661192327738e-09
3.530000000000000360e-01 4.202547643217258155e-09
3.540000000000000369e-01 6.620894055231474340e-09
3.550000000000000377e-01 8.116103344946168363e-09
3.560000000000000386e-01 5.819856596644967794e-09
3.570000000000000395e-01 4.206412995699793100e-11
3.580000000000000404e-01 1.047055775416083634e-09
3.590000000000000413e-01 8.773440640652552247e-09
3.599999999999999867e-01 1.119337866839487106e-08
3.609999999999999876e-01 6.402160579455085099e-09
3.619999999999999885e-01 2.654360287124291062e-09
3.629999999999999893e-01 2.643218977027572691e-09
3.639999999999999902e-01 5.595211405307054520e-09
3.649999999999999911e-01 9.760015018400736153e-09
3.659999999999999920e-01 8.944198270910419524e-09
3.669999999999999929e-01 4.873299985774792731e-09
3.679999999999999938e-01 4.408320819493383169e-09
3.689999999999999947e-01 7.097469278960488737e-09
3.699999999999999956e-01 6.351456249831244349e-09
3.709999999999999964e-01 5.846686690347269177e-09
3.719999999999999973e-01 8.646793503430671990e-09
3.729999999999999982e-01 9.667928679846227169e-09
3.739999999999999991e-01 6.389200279954820871e-09
3.750000000000000000e-01 3.907643986167386174e-09
3.760000000000000009e-01 3.878085408359766006e-09
3.770000000000000018e-01 6.759819370927289128e-09
3.780000000000000027e-01 1.132411853177472949e-08
3.790000000000000036e-01 1.136163518822286278e-08
3.800000000000000044e-01 3.560103323252405971e-09
3.810000000000000053e-01 7.348717190325260162e-10
3.820000000000000062e-01 6.287677933869417757e-09
3.830000000000000071e-01 1.087005330191459507e-08
3.840000000000000080e-01 9.036625669978093356e-09
3.850000000000000089e-01 5.832703209307510406e-09
3.860000000000000098e-01 3.607169674069155008e-09
3.870000000000000107e-01 3.357627065270207822e-09
3.880000000000000115e-01 6.490154191851615906e-09
3.890000000000000124e-01 8.209894986066501588e-09
3.900000000000000133e-01 5.758352017437573522e-09
3.910000000000000142e-01 5.383185452956240624e-09
3.920000000000000151e-01 6.164555088616907597e-09
3.930000000000000160e-01 3.521904545777942985e-09
3.940000000000000169e-01 2.087858774757478386e-09
3.950000000000000178e-01 5.247898116067517549e-09
3.960000000000000187e-01 8.315396371472161263e-09
3.970000000000000195e-01 6.087702786317095160e-09
3.980000000000000204e-01 3.578406904125586152e-09
3.990000000000000213e-01 4.079083737451583147e-10
4.000000000000000222e-01 1.059561327565461397e-09
4.010000000000000231e-01 7.323706086026504636e-09
4.020000000000000240e-01 9.601194506103638560e-09
4.030000000000000249e-01 3.758941602427512407e-09
4.040000000000000258e-01 -1.293869900109712034e-09
4.050000000000000266e-01 1.029661689244676381e-09
4.060000000000000275e-01 4.927187546854838729e-09
4.070000000000000284e-01 5.835204319737385958e-09
4.080000000000000293e-01 4.753815119329374284e-09
4.090000000000000302e-01 1.734747456794138998e-09
4.100000000000000311e-01 1.292619344894774258e-10
4.110000000000000320e-01 2.161414158763363957e-09
4.120000000000000329e-01 3.643663148977793753e-09
4.130000000000000338e-01 2.515662345103919506e-09
4.140000000000000346e-01 2.720639713515993208e-09
4.150000000000000355e-01 4.931450803269399330e-09
4.160000000000000364e-01 2.048977876256685704e-09
4.170000000000000373e-01 -1.230205270985607058e-09
4.180000000000000382e-01 4.175149115326348692e-10
4.190000000000000391e-01 4.488640570343704894e-09
4.200000000000000400e-01 6.178424882818944752e-09
4.210000000000000409e-01 4.308617462811525911e-09
4.220000000000000417e-01 -4.426965460879728198e-10
4.230000000000000426e-01 -2.518618202884681523e-09
4.240000000000000435e-01 3.022137207153718919e-09
4.250000000000000444e-01 8.868653367244405672e-09
4.260000000000000453e-01 6.222649062692653388e-09
4.270000000000000462e-01 1.884359335235785693e-10
4.280000000000000471e-01 -1.622311174287460744e-10
4.290000000000000480e-01 2.689944267331156880e-09
4.300000000000000488e-01 5.938602498645195737e-09
4.310000000000000497e-01 6.683762876491528004e-09
4.320000000000000506e-01 4.267519670975161716e-09
4.330000000000000515e-01 1.808643901313189417e-09
4.340000000000000524e-01 3.354386990395141765e-09
4.350000000000000533e-01 5.208221409702673554e-09
4.360000000000000542e-01 3.917705271305749193e-09
4.370000000000000551e-01 4.617106696969131008e-09
4.380000000000000560e-01 7.304038263100665063e-09
4.390000000000000568e-01 6.734751423209672794e-09
4.400000000000000577e-01 2.313470304216025397e-09
4.410000000000000586e-01 1.867249466158682480e-09
4.420000000000000595e-01 5.195147423364687711e-09
4.430000000000000604e-01 8.355698355444474146e-09
4.440000000000000613e-01 8.516281013726256788e-09
4.450000000000000622e-01 4.569130851450609043e-09
4.460000000000000631e-01 4.189928404230158776e-10
4.470000000000000639e-01 2.382478214713046327e-09
4.480000000000000648e-01 8.847564458847045898e-09
4.490000000000000657e-01 1.030844032356981188e-08
4.500000000000000666e-01 5.134268121764762327e-09
4.510000000000000675e-01 1.167933305623591878e-09
4.520000000000000684e-01 2.344705762880039401e-09
4.530000000000000693e-01 5.784727363788988441e-09
4.540000000000000702e-01 8.177977406376157887e-09
4.550000000000000711e-01 6.945072072994662449e-09
4.560000000000000719e-01 3.298254114270093851e-09
4.569999999999999618e-01 2.551956868046545424e-09
4.579999999999999627e-01 4.909111339657101780e-09
4.589999999999999636e-01 5.038941708335187286e-09
4.599999999999999645e-01 3.989043761976063251e-09
4.609999999999999654e-01 5.705288685931009240e-09
4.619999999999999662e-01 6.728299695168971084e-09
4.629999999999999671e-01 3.538076498443842866e-09
4.639999999999999680e-01 1.627654455660376698e-09
4.649999999999999689e-01 2.898531192840891890e-09
4.659999999999999698e-01 5.642220912704942748e-09
4.669999999999999707e-01 8.122356121020857245e-09
4.679999999999999716e-01 6.654829576291376725e-09
4.689999999999999725e-01 6.141362973721697927e-10
4.699999999999999734e-01 -3.510933765937807038e-10
4.709999999999999742e-01 5.661348723151604645e-09
4.719999999999999751e-01 9.838544201556942426e-09