-1.199999999999999956e-01 -0.000000000000000000e+00
-1.189999999999999947e-01 -0.000000000000000000e+00
-1.179999999999999938e-01 -0.000000000000000000e+00
-1.169999999999999929e-01 -0.000000000000000000e+00
-1.159999999999999920e-01 -0.000000000000000000e+00
-1.149999999999999911e-01 -0.000000000000000000e+00
-1.139999999999999902e-01 -0.000000000000000000e+00
-1.129999999999999893e-01 -0.000000000000000000e+00
-1.119999999999999885e-01 -0.000000000000000000e+00
-1.109999999999999876e-01 -0.000000000000000000e+00
-1.100000000000000006e-01 -0.000000000000000000e+00
-1.089999999999999997e-01 -0.000000000000000000e+00
-1.079999999999999988e-01 -0.000000000000000000e+00
-1.069999999999999979e-01 -0.000000000000000000e+00
-1.059999999999999970e-01 -0.000000000000000000e+00
-1.049999999999999961e-01 -0.000000000000000000e+00
-1.039999999999999952e-01 -0.000000000000000000e+00
-1.029999999999999943e-01 -0.000000000000000000e+00
-1.019999999999999934e-01 -0.000000000000000000e+00
-1.009999999999999926e-01 -0.000000000000000000e+00
-9.999999999999999167e-02 -0.000000000000000000e+00
-9.899999999999999079e-02 -0.000000000000000000e+00
-9.800000000000000377e-02 -0.000000000000000000e+00
-9.700000000000000289e-02 -0.000000000000000000e+00
-9.600000000000000200e-02 -0.000000000000000000e+00
-9.500000000000000111e-02 -0.000000000000000000e+00
-9.400000000000000022e-02 -0.000000000000000000e+00
-9.299999999999999933e-02 -0.000000000000000000e+00
-9.199999999999999845e-02 -0.000000000000000000e+00
-9.099999999999999756e-02 -0.000000000000000000e+00
-8.999999999999999667e-02 -0.000000000000000000e+00
-8.899999999999999578e-02 -0.000000000000000000e+00
-8.799999999999999489e-02 -0.000000000000000000e+00
-8.699999999999999400e-02 -0.000000000000000000e+00
-8.599999999999999312e-02 -0.000000000000000000e+00
-8.499999999999999223e-02 -0.000000000000000000e+00
-8.399999999999999134e-02 -0.000000000000000000e+00
-8.299999999999999045e-02 -0.000000000000000000e+00
-8.199999999999998956e-02 -0.000000000000000000e+00
-8.099999999999998868e-02 -0.000000000000000000e+00
-7.999999999999998779e-02 -0.000000000000000000e+00
-7.899999999999998690e-02 -0.000000000000000000e+00
-7.799999999999998601e-02 -0.000000000000000000e+00
-7.699999999999998512e-02 -0.000000000000000000e+00
-7.599999999999999811e-02 -0.000000000000000000e+00
-7.499999999999999722e-02 -0.000000000000000000e+00
-7.399999999999999634e-02 -0.000000000000000000e+00
-7.299999999999999545e-02 -0.000000000000000000e+00
-7.199999999999999456e-02 -0.000000000000000000e+00
-7.099999999999999367e-02 -0.000000000000000000e+00
-6.999999999999999278e-02 -0.000000000000000000e+00
-6.899999999999999190e-02 -0.000000000000000000e+00
-6.799999999999999101e-02 -0.000000000000000000e+00
-6.700000000000000400e-02 -0.000000000000000000e+00
-6.600000000000000311e-02 -0.000000000000000000e+00
-6.500000000000000222e-02 -0.000000000000000000e+00
-6.400000000000000133e-02 -0.000000000000000000e+00
-6.300000000000000044e-02 -0.000000000000000000e+00
-6.199999999999999262e-02 -0.000000000000000000e+00
-6.099999999999999173e-02 -0.000000000000000000e+00
-5.999999999999999778e-02 -0.000000000000000000e+00
-5.899999999999999689e-02 -0.000000000000000000e+00
-5.799999999999999600e-02 -0.000000000000000000e+00
-5.699999999999999512e-02 -0.000000000000000000e+00
-5.599999999999999423e-02 -0.000000000000000000e+00
-5.499999999999999334e-02 -0.000000000000000000e+00
-5.399999999999999245e-02 -0.000000000000000000e+00
-5.299999999999999156e-02 -0.000000000000000000e+00
-5.199999999999999067e-02 -0.000000000000000000e+00
-5.099999999999998979e-02 -0.000000000000000000e+00
-4.999999999999998890e-02 -0.000000000000000000e+00
-4.899999999999998801e-02 -0.000000000000000000e+00
-4.799999999999998712e-02 -0.000000000000000000e+00
-4.700000000000000011e-02 -0.000000000000000000e+00
-4.599999999999999922e-02 -0.000000000000000000e+00
-4.499999999999999833e-02 -0.000000000000000000e+00
-4.399999999999999745e-02 -0.000000000000000000e+00
-4.299999999999999656e-02 -0.000000000000000000e+00
-4.199999999999999567e-02 -0.000000000000000000e+00
-4.099999999999999478e-02 -0.000000000000000000e+00
-3.999999999999999389e-02 -0.000000000000000000e+00
-3.899999999999999301e-02 -0.000000000000000000e+00
-3.799999999999999212e-02 -0.000000000000000000e+00
-3.699999999999999123e-02 -0.000000000000000000e+00
-3.599999999999999034e-02 -0.000000000000000000e+00
-3.499999999999998945e-02 -0.000000000000000000e+00
-3.399999999999998856e-02 -0.000000000000000000e+00
-3.299999999999998768e-02 -0.000000000000000000e+00
-3.200000000000000067e-02 -0.000000000000000000e+00
-3.099999999999999978e-02 -0.000000000000000000e+00
-2.999999999999999889e-02 -0.000000000000000000e+00
-2.899999999999999800e-02 -0.000000000000000000e+00
-2.799999999999999711e-02 -0.000000000000000000e+00
-2.699999999999999623e-02 -0.000000000000000000e+00
-2.599999999999999534e-02 -0.000000000000000000e+00
-2.499999999999999445e-02 -0.000000000000000000e+00
-2.399999999999999356e-02 -0.000000000000000000e+00
-2.299999999999999267e-02 -0.000000000000000000e+00
-2.199999999999999178e-02 -0.000000000000000000e+00
-2.099999999999999090e-02 -0.000000000000000000e+00
-1.999999999999999001e-02 -0.000000000000000000e+00
-1.899999999999998912e-02 -0.000000000000000000e+00
-1.799999999999998823e-02 -0.000000000000000000e+00
-1.699999999999998734e-02 -0.000000000000000000e+00
-1.599999999999998646e-02 -0.000000000000000000e+00
-1.499999999999999944e-02 -0.000000000000000000e+00
-1.399999999999999856e-02 -0.000000000000000000e+00
-1.299999999999999767e-02 -0.000000000000000000e+00
-1.199999999999999678e-02 -0.000000000000000000e+00
-1.099999999999999589e-02 -0.000000000000000000e+00
-9.999999999999995004e-03 -0.000000000000000000e+00
-8.999999999999994116e-03 -0.000000000000000000e+00
-7.999999999999993228e-03 -0.000000000000000000e+00
-6.999999999999992339e-03 -0.000000000000000000e+00
-5.999999999999991451e-03 -0.000000000000000000e+00
-4.999999999999990563e-03 -0.000000000000000000e+00
-3.999999999999989675e-03 -0.000000000000000000e+00
-2.999999999999988787e-03 -0.000000000000000000e+00
-1.999999999999987899e-03 -0.000000000000000000e+00
-9.999999999999870104e-04 -0.000000000000000000e+00
0.000000000000000000e+00 -0.000000000000000000e+00
1.000000000000000888e-03 -0.000000000000000000e+00
2.000000000000001776e-03 -0.000000000000000000e+00
3.000000000000002665e-03 -0.000000000000000000e+00
4.000000000000003553e-03 -0.000000000000000000e+00
5.000000000000004441e-03 -0.000000000000000000e+00
6.000000000000005329e-03 -0.000000000000000000e+00
7.000000000000006217e-03 -0.000000000000000000e+00
8.000000000000007105e-03 -0.000000000000000000e+00
9.000000000000007994e-03 -0.000000000000000000e+00
1.000000000000000888e-02 -0.000000000000000000e+00
1.100000000000000977e-02 -0.000000000000000000e+00
1.200000000000001066e-02 -0.000000000000000000e+00
1.300000000000001155e-02 -0.000000000000000000e+00
1.400000000000001243e-02 -0.000000000000000000e+00
1.500000000000001332e-02 -0.000000000000000000e+00
1.600000000000001421e-02 -0.000000000000000000e+00
1.700000000000001510e-02 -0.000000000000000000e+00
1.800000000000001599e-02 -0.000000000000000000e+00
1.900000000000001688e-02 -0.000000000000000000e+00
2.000000000000001776e-02 -0.000000000000000000e+00
2.100000000000001865e-02 -0.000000000000000000e+00
2.200000000000001954e-02 -0.000000000000000000e+00
2.300000000000002043e-02 -0.000000000000000000e+00
2.400000000000002132e-02 -0.000000000000000000e+00
2.499999999999999445e-02 -0.000000000000000000e+00
2.599999999999999534e-02 -0.000000000000000000e+00
2.699999999999999623e-02 -0.000000000000000000e+00
2.799999999999999711e-02 -0.000000000000000000e+00
2.899999999999999800e-02 -0.000000000000000000e+00
2.999999999999999889e-02 -0.000000000000000000e+00
3.099999999999999978e-02 -0.000000000000000000e+00
3.200000000000000067e-02 -0.000000000000000000e+00
3.300000000000000155e-02 -0.000000000000000000e+00
3.400000000000000244e-02 -0.000000000000000000e+00
3.500000000000000333e-02 -0.000000000000000000e+00
3.600000000000000422e-02 -0.000000000000000000e+00
3.700000000000000511e-02 -0.000000000000000000e+00
3.800000000000000600e-02 -0.000000000000000000e+00
3.900000000000000688e-02 -0.000000000000000000e+00
4.000000000000000777e-02 -0.000000000000000000e+00
4.100000000000000866e-02 -0.000000000000000000e+00
4.200000000000000955e-02 -0.000000000000000000e+00
4.300000000000001044e-02 -0.000000000000000000e+00
4.400000000000001132e-02 -0.000000000000000000e+00
4.500000000000001221e-02 -0.000000000000000000e+00
4.600000000000001310e-02 -0.000000000000000000e+00
4.700000000000001399e-02 -0.000000000000000000e+00
4.800000000000001488e-02 -0.000000000000000000e+00
4.900000000000001577e-02 -0.000000000000000000e+00
5.000000000000001665e-02 -0.000000000000000000e+00
5.100000000000001754e-02 -0.000000000000000000e+00
5.200000000000001843e-02 -0.000000000000000000e+00
5.300000000000001932e-02 -0.000000000000000000e+00
5.400000000000002021e-02 -0.000000000000000000e+00
5.500000000000002109e-02 -0.000000000000000000e+00
5.599999999999999423e-02 -0.000000000000000000e+00
5.699999999999999512e-02 -0.000000000000000000e+00
5.799999999999999600e-02 -0.000000000000000000e+00
5.899999999999999689e-02 -0.000000000000000000e+00
5.999999999999999778e-02 -0.000000000000000000e+00
6.099999999999999867e-02 -0.000000000000000000e+00
6.199999999999999956e-02 -0.000000000000000000e+00
6.300000000000000044e-02 -0.000000000000000000e+00
6.400000000000000133e-02 -0.000000000000000000e+00
6.500000000000000222e-02 -0.000000000000000000e+00
6.600000000000000311e-02 -0.000000000000000000e+00
6.700000000000000400e-02 -0.000000000000000000e+00
6.800000000000000488e-02 -0.000000000000000000e+00
6.900000000000000577e-02 -0.000000000000000000e+00
7.000000000000000666e-02 -0.000000000000000000e+00
7.100000000000000755e-02 -0.000000000000000000e+00
7.200000000000000844e-02 -0.000000000000000000e+00
7.300000000000000933e-02 -0.000000000000000000e+00
7.400000000000001021e-02 -0.000000000000000000e+00
7.500000000000001110e-02 -0.000000000000000000e+00
7.600000000000001199e-02 -0.000000000000000000e+00
7.700000000000001288e-02 -0.000000000000000000e+00
7.800000000000001377e-02 -0.000000000000000000e+00
7.900000000000001465e-02 -0.000000000000000000e+00
8.000000000000001554e-02 -0.000000000000000000e+00
8.100000000000001643e-02 -0.000000000000000000e+00
8.200000000000001732e-02 -0.000000000000000000e+00
8.300000000000001821e-02 -0.000000000000000000e+00
8.400000000000001910e-02 -0.000000000000000000e+00
8.500000000000001998e-02 -0.000000000000000000e+00
8.600000000000002087e-02 -0.000000000000000000e+00
8.700000000000002176e-02 -0.000000000000000000e+00
8.800000000000002265e-02 -0.000000000000000000e+00
8.899999999999999578e-02 -0.000000000000000000e+00
8.999999999999999667e-02 -0.000000000000000000e+00
9.099999999999999756e-02 -0.000000000000000000e+00
9.199999999999999845e-02 -0.000000000000000000e+00
9.299999999999999933e-02 -0.000000000000000000e+00
9.400000000000000022e-02 -0.000000000000000000e+00
9.500000000000000111e-02 -0.000000000000000000e+00
9.600000000000000200e-02 -0.000000000000000000e+00
9.700000000000000289e-02 -0.000000000000000000e+00
9.800000000000000377e-02 -0.000000000000000000e+00
9.900000000000000466e-02 -0.000000000000000000e+00
1.000000000000000056e-01 -0.000000000000000000e+00
1.010000000000000064e-01 -0.000000000000000000e+00
1.020000000000000073e-01 -0.000000000000000000e+00
1.030000000000000082e-01 -0.000000000000000000e+00
1.040000000000000091e-01 -0.000000000000000000e+00
1.050000000000000100e-01 1.401298464324817071e-45
1.060000000000000109e-01 -4.203895392974451213e-45
1.070000000000000118e-01 -1.807675018979014021e-43
1.080000000000000127e-01 -2.375200897030564935e-42
1.090000000000000135e-01 -2.144407039956267564e-41
1.100000000000000144e-01 -8.756854233412214358e-41
1.110000000000000153e-01 1.298546853129735534e-39
1.120000000000000162e-01 3.901690245119389703e-38
1.130000000000000171e-01 6.299880956859544733e-37
1.140000000000000180e-01 7.943205055393017167e-36
1.150000000000000189e-01 8.544070357458478978e-35
1.160000000000000198e-01 8.127042843928896541e-34
1.170000000000000207e-01 6.957751062517119760e-33
1.180000000000000215e-01 5.408956146198549230e-32
1.190000000000000224e-01 3.830504447804213044e-31
1.199999999999999956e-01 2.467277254466337748e-30
1.209999999999999964e-01 1.435742856794904205e-29
1.219999999999999973e-01 7.447421835374751033e-29
1.229999999999999982e-01 3.368902140340262120e-28
1.239999999999999991e-01 1.294967561214778211e-27
1.250000000000000000e-01 4.392402172173881889e-27
1.260000000000000009e-01 2.027905007529024523e-26
1.270000000000000018e-01 2.058311651120768423e-25
1.280000000000000027e-01 2.515077892461838678e-24
1.290000000000000036e-01 2.653516039352160305e-23
1.300000000000000044e-01 2.386331248890955479e-22
1.310000000000000053e-01 1.879095857779056056e-21
1.320000000000000062e-01 1.323029830221391994e-20
1.330000000000000071e-01 8.439458833588582975e-20
1.340000000000000080e-01 4.914481644451847217e-19
1.350000000000000089e-01 2.622147238951765498e-18
1.360000000000000098e-01 1.282807079506628805e-17
1.370000000000000107e-01 5.743006466859304189e-17
1.380000000000000115e-01 2.341423529941908527e-16
1.390000000000000124e-01 8.616587710336587498e-16
1.400000000000000133e-01 2.817852881234613957e-15
1.410000000000000142e-01 7.948069286056735905e-15
1.420000000000000151e-01 1.804682298782792071e-14
1.430000000000000160e-01 2.579926832065038145e-14
1.440000000000000169e-01 -2.227737308860278098e-14
1.450000000000000178e-01 -3.334973356500237074e-13
1.460000000000000187e-01 -1.498041708042352482e-12
1.470000000000000195e-01 -4.793628601701405145e-12
1.480000000000000204e-01 -1.215193484033205706e-11
1.490000000000000213e-01 -2.468191623306026372e-11
1.500000000000000222e-01 -3.828337646893942292e-11
1.510000000000000231e-01 -3.680364346614339865e-11
1.520000000000000240e-01 1.060612708769781420e-11
1.530000000000000249e-01 1.340444422126552126e-10
1.540000000000000258e-01 3.214557786623828406e-10
1.550000000000000266e-01 4.783652363116175366e-10
1.560000000000000275e-01 4.594524760648255324e-10
1.570000000000000284e-01 2.134148413546199663e-10
1.580000000000000293e-01 -7.557543479919104357e-11
1.590000000000000302e-01 -9.799017153255817902e-11
1.600000000000000311e-01 1.926091508508420702e-10
1.610000000000000320e-01 3.981280860543279232e-10
1.620000000000000329e-01 1.678166494656352370e-10
1.630000000000000338e-01 -1.916372477372974004e-10
1.640000000000000346e-01 -1.188535936336165832e-10
1.650000000000000355e-01 1.870461008302015671e-10
1.660000000000000364e-01 4.550008980697128891e-11
1.670000000000000373e-01 -3.341877607976329045e-10
1.680000000000000382e-01 -1.706839669601833975e-10
1.689999999999999836e-01 1.962415646650228496e-10
1.699999999999999845e-01 -1.841993224616089719e-11
1.709999999999999853e-01 -2.000636045718096057e-10
1.719999999999999862e-01 2.129837556319458258e-10
1.729999999999999871e-01 2.385181496755706121e-10
1.739999999999999880e-01 -1.899567725338613400e-10
1.749999999999999889e-01 1.170719077236981320e-11
1.759999999999999898e-01 1.693638423949650473e-10
1.769999999999999907e-01 -2.739286297792631331e-10
1.779999999999999916e-01 -8.915983229496049489e-11
1.789999999999999925e-01 2.194362191954013497e-10
1.799999999999999933e-01 -1.588449372036393470e-10
1.809999999999999942e-01 5.327641106056546505e-11
1.819999999999999951e-01 2.572435875425327367e-10
1.829999999999999960e-01 -2.243238095278599076e-10
1.839999999999999969e-01 2.939692933523474494e-11
1.849999999999999978e-01 7.249567612888085932e-11
1.859999999999999987e-01 -2.756830319583514211e-10
1.869999999999999996e-01 2.021437600641107224e-10
1.880000000000000004e-01 2.855249370270485088e-11
1.890000000000000013e-01 -1.022073536915968361e-10
1.900000000000000022e-01 2.490782025077464823e-10
1.910000000000000031e-01 -2.352709416175713386e-10
1.920000000000000040e-01 1.389852122279933155e-11
1.930000000000000049e-01 6.827899357020328353e-11
1.940000000000000058e-01 -1.875546662422067357e-10
1.950000000000000067e-01 2.845867153045134046e-10
1.960000000000000075e-01 -1.409866667856363165e-10
1.970000000000000084e-01 4.249883778228991105e-11
1.980000000000000093e-01 3.761066458274342494e-11
1.990000000000000102e-01 -2.220024442056711678e-10
2.000000000000000111e-01 2.389512754330525013e-10
2.010000000000000120e-01 -1.771334745548358569e-10
2.020000000000000129e-01 1.831896301318636233e-10
2.030000000000000138e-01 -5.034641453738331052e-11
2.040000000000000147e-01 -1.047796849285020926e-10
2.050000000000000155e-01 1.266971805247152361e-10
2.060000000000000164e-01 -2.310744789957297485e-10
2.070000000000000173e-01 3.145066429510734451e-10
2.080000000000000182e-01 -2.433460655204555678e-10
2.090000000000000191e-01 2.137042487415641290e-10
2.100000000000000200e-01 -1.459296017358724384e-10
2.110000000000000209e-01 -4.224465222080198146e-11
2.120000000000000218e-01 8.726058764452204741e-11
2.130000000000000226e-01 -4.423414412535464635e-11
2.140000000000000235e-01 1.728658050037523708e-10
2.150000000000000244e-01 -2.364376749941499156e-10
2.160000000000000253e-01 2.041250779516445846e-10
2.170000000000000262e-01 -2.317199210288833910e-10
2.180000000000000271e-01 2.223419504066015406e-10
2.190000000000000280e-01 -1.856839959568645781e-10
2.200000000000000289e-01 1.713310604500861700e-10
2.210000000000000298e-01 -1.538771055020760059e-10
2.220000000000000306e-01 7.041885130565361806e-11
2.230000000000000315e-01 -7.262121459739034890e-11
2.240000000000000324e-01 3.987199459487555941e-11
2.250000000000000333e-01 1.679309469260203969e-11
2.260000000000000342e-01 -4.502676009821016123e-11
2.270000000000000351e-01 3.680684923512700379e-11
2.280000000000000360e-01 -1.023085505202914192e-10
2.290000000000000369e-01 1.019561657322753945e-10
2.300000000000000377e-01 -1.271351912635054759e-10
2.310000000000000386e-01 1.028491736221326391e-10
2.319999999999999840e-01 -1.804287830253770153e-10
2.329999999999999849e-01 1.318467557354097153e-10
2.339999999999999858e-01 -1.687923134596758246e-10
2.349999999999999867e-01 1.236348801114672824e-10
2.359999999999999876e-01 -2.541487020835120347e-10
2.369999999999999885e-01 3.874500720257856301e-11
2.379999999999999893e-01 -2.747189142837669351e-10
2.389999999999999902e-01 6.833822396856703563e-11
2.399999999999999911e-01 -2.798934417569398647e-10
2.409999999999999920e-01 -2.750155658759467769e-11
2.419999999999999929e-01 -3.571312134909021552e-10
2.429999999999999938e-01 -9.937117795288941124e-11
2.439999999999999947e-01 -3.922728808447573101e-10
2.449999999999999956e-01 -2.285016620362512185e-10
2.459999999999999964e-01 -5.230553767887613503e-10
2.469999999999999973e-01 -4.616289572823006893e-10
2.479999999999999982e-01 -6.649685246884473599e-10
2.489999999999999991e-01 -6.623430692798137898e-10
2.500000000000000000e-01 -8.215934599320462439e-10
2.510000000000000009e-01 -1.020907802740111947e-09
2.520000000000000018e-01 -1.117285819418611936e-09
2.530000000000000027e-01 -1.419159900706290500e-09
2.540000000000000036e-01 -1.405233263085392537e-09
2.550000000000000044e-01 -1.939483240676054265e-09
2.560000000000000053e-01 -1.939426397257193457e-09
2.570000000000000062e-01 -2.614086724861408584e-09
2.580000000000000071e-01 -2.579469082775176503e-09
2.590000000000000080e-01 -3.390198344277450815e-09
2.600000000000000089e-01 -3.463469511189032346e-09
2.610000000000000098e-01 -4.397378461362677626e-09
2.620000000000000107e-01 -4.580272161547327414e-09
2.630000000000000115e-01 -5.540186975849792361e-09
2.640000000000000124e-01 -5.988113116472959518e-09
2.650000000000000133e-01 -6.979405497986590490e-09
2.660000000000000142e-01 -7.769585863570682704e-09
2.670000000000000151e-01 -8.670326678839046508e-09
2.680000000000000160e-01 -9.815039447857998312e-09
2.690000000000000169e-01 -1.069497557182330638e-08
2.700000000000000178e-01 -1.225089363288134336e-08
2.710000000000000187e-01 -1.318699105468112975e-08
2.720000000000000195e-01 -1.496346158091910183e-08
2.730000000000000204e-01 -1.600096766196656972e-08
2.740000000000000213e-01 -1.795547177607659250e-08
2.750000000000000222e-01 -1.935768523253500462e-08
2.760000000000000231e-01 -2.129559106833767146e-08
2.770000000000000240e-01 -2.311594471393618733e-08
2.780000000000000249e-01 -2.492379280738532543e-08
2.790000000000000258e-01 -2.709998625505249947e-08
2.800000000000000266e-01 -2.881256477849092335e-08
2.810000000000000275e-01 -3.120726432825904340e-08
2.820000000000000284e-01 -3.295281203463673592e-08
2.830000000000000293e-01 -3.530954018060583621e-08
2.840000000000000302e-01 -3.714922058861702681e-08
2.850000000000000311e-01 -3.938475856557488441e-08
2.860000000000000320e-01 -4.146477294852957129e-08
2.870000000000000329e-01 -4.312323653721250594e-08
2.880000000000000338e-01 -4.532603270490653813e-08
2.890000000000000346e-01 -4.673302100854925811e-08
2.900000000000000355e-01 -4.878347681369632483e-08
2.910000000000000364e-01 -4.974617695552296937e-08
2.920000000000000373e-01 -5.110541678732261062e-08
2.930000000000000382e-01 -5.206175046623684466e-08
2.940000000000000391e-01 -5.269976099953055382e-08
2.950000000000000400e-01 -5.303900252329185605e-08
2.960000000000000409e-01 -5.243418854661285877e-08
2.969999999999999862e-01 -5.242782208370044827e-08
2.979999999999999871e-01 -5.100901034893468022e-08
2.989999999999999880e-01 -5.006131686968728900e-08
2.999999999999999889e-01 -4.813773557543754578e-08
3.009999999999999898e-01 -4.571666067931801081e-08
3.019999999999999907e-01 -4.312641976866871119e-08
3.029999999999999916e-01 -3.953937266487628222e-08
3.039999999999999925e-01 -3.613513399614021182e-08
3.049999999999999933e-01 -3.146851668134331703e-08
3.059999999999999942e-01 -2.665001375135034323e-08
3.069999999999999951e-01 -2.143497113138437271e-08
3.079999999999999960e-01 -1.538410288048908114e-08
3.089999999999999969e-01 -9.320501703768968582e-09
3.099999999999999978e-01 -2.369233698118478060e-09
3.109999999999999987e-01 4.333742253948003054e-09
3.119999999999999996e-01 1.206808519782498479e-08
3.130000000000000004e-01 2.016440703300759196e-08
3.140000000000000013e-01 2.804154064506292343e-08
3.150000000000000022e-01 3.655623004306107759e-08
3.160000000000000031e-01 4.442154022399336100e-08
3.170000000000000040e-01 5.339097697287797928e-08
3.180000000000000049e-01 6.174104782985523343e-08
3.190000000000000058e-01 7.009384717093780637e-08
3.200000000000000067e-01 7.846529115340672433e-08
3.210000000000000075e-01 8.594133760198019445e-08
3.220000000000000084e-01 9.358154784422367811e-08
3.230000000000000093e-01 1.001471900963224471e-07
3.240000000000000102e-01 1.068233359546866268e-07
3.250000000000000111e-01 1.127223185903858393e-07
3.260000000000000120e-01 1.175321813207119703e-07
3.270000000000000129e-01 1.224119046128180344e-07
3.280000000000000138e-01 1.259613924275981844e-07
3.290000000000000147e-01 1.288984776692814194e-07
3.300000000000000155e-01 1.311323103436734527e-07
3.310000000000000164e-01 1.319713192060589790e-07
3.320000000000000173e-01 1.322237039858009666e-07
3.330000000000000182e-01 1.313601387664675713e-07
3.340000000000000191e-01 1.296721165999770164e-07
3.350000000000000200e-01 1.270427674171514809e-07
3.360000000000000209e-01 1.231701389770023525e-07
3.370000000000000218e-01 1.187727320939302444e-07
3.380000000000000226e-01 1.131065801018849015e-07
3.390000000000000235e-01 1.070657162927091122e-07
3.400000000000000244e-01 1.003909346763975918e-07
3.410000000000000253e-01 9.257200872525572777e-08
3.420000000000000262e-01 8.472579793306067586e-08
3.430000000000000271e-01 7.576636562589555979e-08
3.440000000000000280e-01 6.684695108560845256e-08
3.450000000000000289e-01 5.751826392952352762e-08
3.460000000000000298e-01 4.756475391332060099e-08
3.470000000000000306e-01 3.776403900701552629e-08
3.480000000000000315e-01 2.763590600807219744e-08
3.490000000000000324e-01 1.745866029523313046e-08
3.500000000000000333e-01 7.676135282963514328e-09
3.510000000000000342e-01 -2.495653461664915085e-09
3.520000000000000351e-01 -1.153239281848073006e-08
3.530000000000000360e-01 -2.091837814077734947e-08
3.540000000000000369e-01 -2.952219801954925060e-08
3.550000000000000377e-01 -3.752757038455456495e-08
3.560000000000000386e-01 -4.563207767205312848e-08
3.570000000000000395e-01 -5.252695700619369745e-08
3.580000000000000404e-01 -5.876700015505775809e-08
3.590000000000000413e-01 -6.457685230998322368e-08
3.599999999999999867e-01 -6.932714313734322786e-08
3.609999999999999876e-01 -7.385733624687418342e-08
3.619999999999999885e-01 -7.747985364403575659e-08
3.629999999999999893e-01 -8.019378583412617445e-08
3.639999999999999902e-01 -8.268307283287867904e-08
3.649999999999999911e-01 -8.379174687433987856e-08
3.659999999999999920e-01 -8.473216439597308636e-08
3.669999999999999929e-01 -8.495135261910036206e-08
3.679999999999999938e-01 -8.428696673945523798e-08
3.689999999999999947e-01 -8.359938874491490424e-08
3.699999999999999956e-01 -8.188590072677470744e-08
3.709999999999999964e-01 -7.972721505211666226e-08
3.719999999999999973e-01 -7.754420039418619126e-08
3.729999999999999982e-01 -7.434937288053333759e-08
3.739999999999999991e-01 -7.152993930503726006e-08
3.750000000000000000e-01 -6.805362318118568510e-08
3.760000000000000009e-01 -6.428592769225360826e-08
3.770000000000000018e-01 -6.068086122468230315e-08
3.780000000000000027e-01 -5.658753821080608759e-08
3.790000000000000036e-01 -5.253362900248248479e-08
3.800000000000000044e-01 -4.881681547885818873e-08
3.810000000000000053e-01 -4.439061740413308144e-08
3.820000000000000062e-01 -4.066168912686407566e-08
3.830000000000000071e-01 -3.666423253889661282e-08
3.840000000000000080e-01 -3.249692781537305564e-08
3.850000000000000089e-01 -2.916988250944996253e-08
3.860000000000000098e-01 -2.548404154367744923e-08
3.870000000000000107e-01 -2.198908077843952924e-08
3.880000000000000115e-01 -1.906164470710791647e-08
3.890000000000000124e-01 -1.576700014993548393e-08
3.900000000000000133e-01 -1.306148078583646566e-08
3.910000000000000142e-01 -1.048829290084540844e-08
3.920000000000000151e-01 -7.784137778799049556e-09
3.930000000000000160e-01 -5.804849934065714478e-09
3.940000000000000169e-01 -3.596824171836487949e-09
3.950000000000000178e-01 -1.702574081718921661e-09
3.960000000000000187e-01 -3.153672878397628665e-10
3.970000000000000195e-01 1.417447492713108659e-09
3.980000000000000204e-01 2.449723979225382209e-09
3.990000000000000213e-01 3.447667040745727718e-09
4.000000000000000222e-01 4.775301931658759713e-09
4.010000000000000231e-01 5.338733899407088757e-09
4.020000000000000240e-01 6.030631993780843914e-09
4.030000000000000249e-01 6.786649464629590511e-09
4.040000000000000258e-01 6.813934305682778358e-09
4.050000000000000266e-01 7.354174158535897732e-09
4.060000000000000275e-01 7.515609468100592494e-09
4.070000000000000284e-01 7.408061719615943730e-09
4.080000000000000293e-01 7.762764653307385743e-09
4.090000000000000302e-01 7.561538950540125370e-09
4.100000000000000311e-01 7.443873073498252779e-09
4.110000000000000320e-01 7.552444003522396088e-09
4.120000000000000329e-01 7.117705536074936390e-09
4.130000000000000338e-01 6.883738024043850601e-09
4.140000000000000346e-01 6.909203875693492591e-09
4.150000000000000355e-01 6.354866854962892830e-09
4.160000000000000364e-01 6.313143785519059747e-09
4.170000000000000373e-01 6.025061338732484728e-09
4.180000000000000382e-01 5.463675734063144773e-09
4.190000000000000391e-01 5.568836058955639601e-09
4.200000000000000400e-01 5.109541234560310841e-09
4.210000000000000409e-01 4.559296939987689257e-09
4.220000000000000417e-01 4.569301381707191467e-09
4.230000000000000426e-01 4.080902726855129004e-09
4.240000000000000435e-01 3.802597348112612963e-09
4.250000000000000444e-01 3.888999344781041145e-09
4.260000000000000453e-01 3.341199317219434306e-09
4.270000000000000462e-01 3.255365754739614204e-09
4.280000000000000471e-01 3.115928848274052143e-09
4.290000000000000480e-01 2.579668034741189331e-09
4.300000000000000488e-01 2.590240910649299622e-09
4.310000000000000497e-01 2.332853910047560930e-09
4.320000000000000506e-01 2.041929292317945510e-09
4.330000000000000515e-01 2.110937202814966440e-09
4.340000000000000524e-01 1.869807420007418841e-09
4.350000000000000533e-01 1.461728516005678102e-09
4.360000000000000542e-01 1.638170488149626181e-09
4.370000000000000551e-01 1.292107754125026986e-09
4.380000000000000560e-01 1.139312644227175042e-09
4.390000000000000568e-01 1.125783910538302734e-09
4.400000000000000577e-01 9.632685760152526200e-10
4.410000000000000586e-01 7.353264663834124804e-10
4.420000000000000595e-01 8.853930921759456396e-10
4.430000000000000604e-01 5.535696345759788528e-10
4.440000000000000613e-01 5.602487362921237946e-10
4.450000000000000622e-01 5.576623607339570299e-10
4.460000000000000631e-01 2.993942871398758143e-10
4.470000000000000639e-01 1.694786533334990963e-10
4.480000000000000648e-01 -8.776623872108757496e-11
4.490000000000000657e-01 1.153921402874402702e-11
4.500000000000000666e-01 -1.401815552526386455e-09
4.510000000000000675e-01 -9.390532795805484056e-10
4.520000000000000684e-01 -1.735173782435595058e-09
4.530000000000000693e-01 -5.642732503474690020e-09
4.540000000000000702e-01 -3.089098754571750760e-09
4.550000000000000711e-01 -9.024290648085298017e-09
4.560000000000000719e-01 -1.531876137050858233e-08
4.569999999999999618e-01 -1.137686922447755933e-08
4.579999999999999627e-01 -3.024115358130075037e-08
4.589999999999999636e-01 -3.442347917825827608e-08
4.599999999999999645e-01 -3.861016750761336880e-08
4.609999999999999654e-01 -7.323085071675450308e-08
4.619999999999999662e-01 -7.335596308166714152e-08
4.629999999999999671e-01 -1.023960720658578794e-07
4.639999999999999680e-01 -1.419963666648982326e-07
4.649999999999999689e-01 -1.546137866625940660e-07
4.659999999999999698e-01 -2.087936081807129085e-07
4.669999999999999707e-01 -2.505034046862419927e-07
4.679999999999999716e-01 -2.995289776208664989e-07