-1.199999999999999956e-01 0.000000000000000000e+00
-1.189999999999999947e-01 0.000000000000000000e+00
-1.179999999999999938e-01 0.000000000000000000e+00
-1.169999999999999929e-01 0.000000000000000000e+00
-1.159999999999999920e-01 0.000000000000000000e+00
-1.149999999999999911e-01 0.000000000000000000e+00
-1.139999999999999902e-01 0.000000000000000000e+00
-1.129999999999999893e-01 0.000000000000000000e+00
-1.119999999999999885e-01 0.000000000000000000e+00
-1.109999999999999876e-01 0.000000000000000000e+00
-1.100000000000000006e-01 0.000000000000000000e+00
-1.089999999999999997e-01 0.000000000000000000e+00
-1.079999999999999988e-01 0.000000000000000000e+00
-1.069999999999999979e-01 0.000000000000000000e+00
-1.059999999999999970e-01 0.000000000000000000e+00
-1.049999999999999961e-01 0.000000000000000000e+00
-1.039999999999999952e-01 0.000000000000000000e+00
-1.029999999999999943e-01 0.000000000000000000e+00
-1.019999999999999934e-01 0.000000000000000000e+00
-1.009999999999999926e-01 0.000000000000000000e+00
-9.999999999999999167e-02 0.000000000000000000e+00
-9.899999999999999079e-02 0.000000000000000000e+00
-9.800000000000000377e-02 0.000000000000000000e+00
-9.700000000000000289e-02 0.000000000000000000e+00
-9.600000000000000200e-02 0.000000000000000000e+00
-9.500000000000000111e-02 0.000000000000000000e+00
-9.400000000000000022e-02 0.000000000000000000e+00
-9.299999999999999933e-02 0.000000000000000000e+00
-9.199999999999999845e-02 0.000000000000000000e+00
-9.099999999999999756e-02 0.000000000000000000e+00
-8.999999999999999667e-02 0.000000000000000000e+00
-8.899999999999999578e-02 0.000000000000000000e+00
-8.799999999999999489e-02 0.000000000000000000e+00
-8.699999999999999400e-02 0.000000000000000000e+00
-8.599999999999999312e-02 0.000000000000000000e+00
-8.499999999999999223e-02 0.000000000000000000e+00
-8.399999999999999134e-02 0.000000000000000000e+00
-8.299999999999999045e-02 0.000000000000000000e+00
-8.199999999999998956e-02 0.000000000000000000e+00
-8.099999999999998868e-02 0.000000000000000000e+00
-7.999999999999998779e-02 0.000000000000000000e+00
-7.899999999999998690e-02 0.000000000000000000e+00
-7.799999999999998601e-02 0.000000000000000000e+00
-7.699999999999998512e-02 0.000000000000000000e+00
-7.599999999999999811e-02 0.000000000000000000e+00
-7.499999999999999722e-02 0.000000000000000000e+00
-7.399999999999999634e-02 0.000000000000000000e+00
-7.299999999999999545e-02 0.000000000000000000e+00
-7.199999999999999456e-02 0.000000000000000000e+00
-7.099999999999999367e-02 0.000000000000000000e+00
-6.999999999999999278e-02 0.000000000000000000e+00
-6.899999999999999190e-02 0.000000000000000000e+00
-6.799999999999999101e-02 0.000000000000000000e+00
-6.700000000000000400e-02 0.000000000000000000e+00
-6.600000000000000311e-02 0.000000000000000000e+00
-6.500000000000000222e-02 0.000000000000000000e+00
-6.400000000000000133e-02 0.000000000000000000e+00
-6.300000000000000044e-02 0.000000000000000000e+00
-6.199999999999999262e-02 0.000000000000000000e+00
-6.099999999999999173e-02 0.000000000000000000e+00
-5.999999999999999778e-02 0.000000000000000000e+00
-5.899999999999999689e-02 0.000000000000000000e+00
-5.799999999999999600e-02 0.000000000000000000e+00
-5.699999999999999512e-02 0.000000000000000000e+00
-5.599999999999999423e-02 0.000000000000000000e+00
-5.499999999999999334e-02 0.000000000000000000e+00
-5.399999999999999245e-02 0.000000000000000000e+00
-5.299999999999999156e-02 0.000000000000000000e+00
-5.199999999999999067e-02 0.000000000000000000e+00
-5.099999999999998979e-02 0.000000000000000000e+00
-4.999999999999998890e-02 0.000000000000000000e+00
-4.899999999999998801e-02 0.000000000000000000e+00
-4.799999999999998712e-02 0.000000000000000000e+00
-4.700000000000000011e-02 0.000000000000000000e+00
-4.599999999999999922e-02 0.000000000000000000e+00
-4.499999999999999833e-02 0.000000000000000000e+00
-4.399999999999999745e-02 0.000000000000000000e+00
-4.299999999999999656e-02 0.000000000000000000e+00
-4.199999999999999567e-02 0.000000000000000000e+00
-4.099999999999999478e-02 0.000000000000000000e+00
-3.999999999999999389e-02 0.000000000000000000e+00
-3.899999999999999301e-02 0.000000000000000000e+00
-3.799999999999999212e-02 0.000000000000000000e+00
-3.699999999999999123e-02 0.000000000000000000e+00
-3.599999999999999034e-02 0.000000000000000000e+00
-3.499999999999998945e-02 0.000000000000000000e+00
-3.399999999999998856e-02 0.000000000000000000e+00
-3.299999999999998768e-02 0.000000000000000000e+00
-3.200000000000000067e-02 0.000000000000000000e+00
-3.099999999999999978e-02 0.000000000000000000e+00
-2.999999999999999889e-02 0.000000000000000000e+00
-2.899999999999999800e-02 0.000000000000000000e+00
-2.799999999999999711e-02 0.000000000000000000e+00
-2.699999999999999623e-02 0.000000000000000000e+00
-2.599999999999999534e-02 0.000000000000000000e+00
-2.499999999999999445e-02 0.000000000000000000e+00
-2.399999999999999356e-02 0.000000000000000000e+00
-2.299999999999999267e-02 0.000000000000000000e+00
-2.199999999999999178e-02 0.000000000000000000e+00
-2.099999999999999090e-02 0.000000000000000000e+00
-1.999999999999999001e-02 0.000000000000000000e+00
-1.899999999999998912e-02 0.000000000000000000e+00
-1.799999999999998823e-02 0.000000000000000000e+00
-1.699999999999998734e-02 0.000000000000000000e+00
-1.599999999999998646e-02 0.000000000000000000e+00
-1.499999999999999944e-02 0.000000000000000000e+00
-1.399999999999999856e-02 0.000000000000000000e+00
-1.299999999999999767e-02 0.000000000000000000e+00
-1.199999999999999678e-02 0.000000000000000000e+00
-1.099999999999999589e-02 0.000000000000000000e+00
-9.999999999999995004e-03 0.000000000000000000e+00
-8.999999999999994116e-03 0.000000000000000000e+00
-7.999999999999993228e-03 0.000000000000000000e+00
-6.999999999999992339e-03 0.000000000000000000e+00
-5.999999999999991451e-03 0.000000000000000000e+00
-4.999999999999990563e-03 0.000000000000000000e+00
-3.999999999999989675e-03 0.000000000000000000e+00
-2.999999999999988787e-03 0.000000000000000000e+00
-1.999999999999987899e-03 0.000000000000000000e+00
-9.999999999999870104e-04 0.000000000000000000e+00
0.000000000000000000e+00 0.000000000000000000e+00
1.000000000000000888e-03 0.000000000000000000e+00
2.000000000000001776e-03 0.000000000000000000e+00
3.000000000000002665e-03 0.000000000000000000e+00
4.000000000000003553e-03 0.000000000000000000e+00
5.000000000000004441e-03 0.000000000000000000e+00
6.000000000000005329e-03 0.000000000000000000e+00
7.000000000000006217e-03 0.000000000000000000e+00
8.000000000000007105e-03 0.000000000000000000e+00
9.000000000000007994e-03 0.000000000000000000e+00
1.000000000000000888e-02 0.000000000000000000e+00
1.100000000000000977e-02 0.000000000000000000e+00
1.200000000000001066e-02 0.000000000000000000e+00
1.300000000000001155e-02 0.000000000000000000e+00
1.400000000000001243e-02 0.000000000000000000e+00
1.500000000000001332e-02 0.000000000000000000e+00
1.600000000000001421e-02 0.000000000000000000e+00
1.700000000000001510e-02 0.000000000000000000e+00
1.800000000000001599e-02 0.000000000000000000e+00
1.900000000000001688e-02 0.000000000000000000e+00
2.000000000000001776e-02 0.000000000000000000e+00
2.100000000000001865e-02 0.000000000000000000e+00
2.200000000000001954e-02 0.000000000000000000e+00
2.300000000000002043e-02 0.000000000000000000e+00
2.400000000000002132e-02 0.000000000000000000e+00
2.499999999999999445e-02 0.000000000000000000e+00
2.599999999999999534e-02 0.000000000000000000e+00
2.699999999999999623e-02 0.000000000000000000e+00
2.799999999999999711e-02 0.000000000000000000e+00
2.899999999999999800e-02 0.000000000000000000e+00
2.999999999999999889e-02 0.000000000000000000e+00
3.099999999999999978e-02 0.000000000000000000e+00
3.200000000000000067e-02 0.000000000000000000e+00
3.300000000000000155e-02 0.000000000000000000e+00
3.400000000000000244e-02 0.000000000000000000e+00
3.500000000000000333e-02 0.000000000000000000e+00
3.600000000000000422e-02 0.000000000000000000e+00
3.700000000000000511e-02 0.000000000000000000e+00
3.800000000000000600e-02 0.000000000000000000e+00
3.900000000000000688e-02 0.000000000000000000e+00
4.000000000000000777e-02 0.000000000000000000e+00
4.100000000000000866e-02 0.000000000000000000e+00
4.200000000000000955e-02 0.000000000000000000e+00
4.300000000000001044e-02 0.000000000000000000e+00
4.400000000000001132e-02 0.000000000000000000e+00
4.500000000000001221e-02 0.000000000000000000e+00
4.600000000000001310e-02 0.000000000000000000e+00
4.700000000000001399e-02 0.000000000000000000e+00
4.800000000000001488e-02 0.000000000000000000e+00
4.900000000000001577e-02 0.000000000000000000e+00
5.000000000000001665e-02 0.000000000000000000e+00
5.100000000000001754e-02 0.000000000000000000e+00
5.200000000000001843e-02 0.000000000000000000e+00
5.300000000000001932e-02 0.000000000000000000e+00
5.400000000000002021e-02 0.000000000000000000e+00
5.500000000000002109e-02 0.000000000000000000e+00
5.599999999999999423e-02 0.000000000000000000e+00
5.699999999999999512e-02 0.000000000000000000e+00
5.799999999999999600e-02 0.000000000000000000e+00
5.899999999999999689e-02 0.000000000000000000e+00
5.999999999999999778e-02 0.000000000000000000e+00
6.099999999999999867e-02 0.000000000000000000e+00
6.199999999999999956e-02 0.000000000000000000e+00
6.300000000000000044e-02 0.000000000000000000e+00
6.400000000000000133e-02 0.000000000000000000e+00
6.500000000000000222e-02 0.000000000000000000e+00
6.600000000000000311e-02 0.000000000000000000e+00
6.700000000000000400e-02 0.000000000000000000e+00
6.800000000000000488e-02 0.000000000000000000e+00
6.900000000000000577e-02 0.000000000000000000e+00
7.000000000000000666e-02 0.000000000000000000e+00
7.100000000000000755e-02 0.000000000000000000e+00
7.200000000000000844e-02 0.000000000000000000e+00
7.300000000000000933e-02 0.000000000000000000e+00
7.400000000000001021e-02 0.000000000000000000e+00
7.500000000000001110e-02 0.000000000000000000e+00
7.600000000000001199e-02 0.000000000000000000e+00
7.700000000000001288e-02 0.000000000000000000e+00
7.800000000000001377e-02 0.000000000000000000e+00
7.900000000000001465e-02 0.000000000000000000e+00
8.000000000000001554e-02 0.000000000000000000e+00
8.100000000000001643e-02 0.000000000000000000e+00
8.200000000000001732e-02 0.000000000000000000e+00
8.300000000000001821e-02 0.000000000000000000e+00
8.400000000000001910e-02 0.000000000000000000e+00
8.500000000000001998e-02 0.000000000000000000e+00
8.600000000000002087e-02 0.000000000000000000e+00
8.700000000000002176e-02 0.000000000000000000e+00
8.800000000000002265e-02 0.000000000000000000e+00
8.899999999999999578e-02 0.000000000000000000e+00
8.999999999999999667e-02 0.000000000000000000e+00
9.099999999999999756e-02 0.000000000000000000e+00
9.199999999999999845e-02 0.000000000000000000e+00
9.299999999999999933e-02 0.000000000000000000e+00
9.400000000000000022e-02 0.000000000000000000e+00
9.500000000000000111e-02 0.000000000000000000e+00
9.600000000000000200e-02 0.000000000000000000e+00
9.700000000000000289e-02 0.000000000000000000e+00
9.800000000000000377e-02 0.000000000000000000e+00
9.900000000000000466e-02 0.000000000000000000e+00
1.000000000000000056e-01 0.000000000000000000e+00
1.010000000000000064e-01 0.000000000000000000e+00
1.020000000000000073e-01 0.000000000000000000e+00
1.030000000000000082e-01 0.000000000000000000e+00
1.040000000000000091e-01 0.000000000000000000e+00
1.050000000000000100e-01 0.000000000000000000e+00
1.060000000000000109e-01 0.000000000000000000e+00
1.070000000000000118e-01 0.000000000000000000e+00
1.080000000000000127e-01 0.000000000000000000e+00
1.090000000000000135e-01 0.000000000000000000e+00
1.100000000000000144e-01 0.000000000000000000e+00
1.110000000000000153e-01 0.000000000000000000e+00
1.120000000000000162e-01 0.000000000000000000e+00
1.130000000000000171e-01 0.000000000000000000e+00
1.140000000000000180e-01 0.000000000000000000e+00
1.150000000000000189e-01 0.000000000000000000e+00
1.160000000000000198e-01 0.000000000000000000e+00
1.170000000000000207e-01 0.000000000000000000e+00
1.180000000000000215e-01 0.000000000000000000e+00
1.190000000000000224e-01 0.000000000000000000e+00
1.199999999999999956e-01 0.000000000000000000e+00
1.209999999999999964e-01 0.000000000000000000e+00
1.219999999999999973e-01 0.000000000000000000e+00
1.229999999999999982e-01 0.000000000000000000e+00
1.239999999999999991e-01 0.000000000000000000e+00
1.250000000000000000e-01 0.000000000000000000e+00
1.260000000000000009e-01 0.000000000000000000e+00
1.270000000000000018e-01 0.000000000000000000e+00
1.280000000000000027e-01 0.000000000000000000e+00
1.290000000000000036e-01 0.000000000000000000e+00
1.300000000000000044e-01 0.000000000000000000e+00
1.310000000000000053e-01 0.000000000000000000e+00
1.320000000000000062e-01 0.000000000000000000e+00
1.330000000000000071e-01 0.000000000000000000e+00
1.340000000000000080e-01 0.000000000000000000e+00
1.350000000000000089e-01 0.000000000000000000e+00
1.360000000000000098e-01 0.000000000000000000e+00
1.370000000000000107e-01 -0.000000000000000000e+00
1.380000000000000115e-01 -2.802596928649634142e-45
1.390000000000000124e-01 -4.203895392974451213e-44
1.400000000000000133e-01 -1.598881547794616278e-42
1.410000000000000142e-01 -7.975910599243993804e-41
1.420000000000000151e-01 -4.342867766875400621e-39
1.430000000000000160e-01 -2.217892700879741015e-37
1.440000000000000169e-01 -9.764850369858862168e-36
1.450000000000000178e-01 -3.517154173178393382e-34
1.460000000000000187e-01 -9.685581212516242233e-33
1.470000000000000195e-01 -1.714044736662816885e-31
1.480000000000000204e-01 -2.647558168094322727e-31
1.490000000000000213e-01 9.643303963388777146e-29
1.500000000000000222e-01 3.255054258351710570e-27
1.510000000000000231e-01 4.788619887772779147e-26
1.520000000000000240e-01 -6.127650260924808499e-26
1.530000000000000249e-01 -1.552592172989665147e-23
1.540000000000000258e-01 -2.325312037456768786e-22
1.550000000000000266e-01 1.649423082057116651e-22
1.560000000000000275e-01 4.074022521245355998e-20
1.570000000000000284e-01 3.046633633545922377e-19
1.580000000000000293e-01 -2.680371655088760563e-18
1.590000000000000302e-01 -3.913213468720552518e-17
1.600000000000000311e-01 7.359304148898119418e-17
1.610000000000000320e-01 2.356052212457463921e-15
1.620000000000000329e-01 -1.021097688519467025e-15
1.630000000000000338e-01 -8.098354614943098495e-14
1.640000000000000346e-01 5.342261531694932064e-14
1.650000000000000355e-01 1.534828254073916654e-12
1.660000000000000364e-01 -2.289874453248463837e-12
1.670000000000000373e-01 -1.262014711483905316e-11
1.680000000000000382e-01 3.045970767279193581e-11
1.689999999999999836e-01 1.671028246330585887e-11
1.699999999999999845e-01 -8.591086175790962898e-11
1.709999999999999853e-01 6.074116903898030273e-11
1.719999999999999862e-01 -5.535271199730296132e-11
1.729999999999999871e-01 8.254669864315999916e-11
1.739999999999999880e-01 -6.310072603321614793e-11
1.749999999999999889e-01 9.308259718565636831e-11
1.759999999999999898e-01 -7.052502332127730256e-11
1.769999999999999907e-01 4.847309359456986044e-11
1.779999999999999916e-01 1.265946202033685353e-11
1.789999999999999925e-01 -7.688078645928797528e-11
1.799999999999999933e-01 1.004901717394091065e-10
1.809999999999999942e-01 -5.988466666995151400e-11
1.819999999999999951e-01 -4.304716652581142000e-11
1.829999999999999960e-01 1.084191347811014339e-10
1.839999999999999969e-01 -7.395675044596927705e-11
1.849999999999999978e-01 -4.832795622022878490e-11
1.859999999999999987e-01 1.194049303876454360e-10
1.869999999999999996e-01 -4.269960773850556279e-11
1.880000000000000004e-01 -8.843718118933807659e-11
1.890000000000000013e-01 1.105813426938162536e-10
1.900000000000000022e-01 3.503369122581645456e-11
1.910000000000000031e-01 -1.202592470050944939e-10
1.920000000000000040e-01 3.752678723323299437e-11
1.930000000000000049e-01 1.187464154783768322e-10
1.940000000000000058e-01 -7.468174689773121600e-11
1.950000000000000067e-01 -8.075442398114418552e-11
1.960000000000000075e-01 1.134878996333910095e-10
1.970000000000000084e-01 5.331478314385407202e-11
1.980000000000000093e-01 -1.357726570061501548e-10
1.990000000000000102e-01 -6.456547796407363649e-11
2.000000000000000111e-01 2.214879321615903507e-11
2.010000000000000120e-01 -1.999999194035595451e-10
2.020000000000000129e-01 -3.810640136769904984e-10
2.030000000000000138e-01 -1.892429962735420190e-10
2.040000000000000147e-01 2.523226766415476163e-11
2.050000000000000155e-01 -7.979975014116291732e-11
2.060000000000000164e-01 -2.390483921921315869e-10
2.070000000000000173e-01 -1.406331162634444354e-10
2.080000000000000182e-01 1.432447129662284269e-11
2.090000000000000191e-01 -9.584102261817051271e-11
2.100000000000000200e-01 -2.196693243972092091e-10
2.110000000000000209e-01 4.168482573008169823e-11
2.120000000000000218e-01 1.825479351014180907e-10
2.130000000000000226e-01 -6.917032918662968655e-11
2.140000000000000235e-01 1.794085886797081031e-11
2.150000000000000244e-01 1.760046969279116524e-10
2.160000000000000253e-01 1.680599132081184166e-10
2.170000000000000262e-01 7.710328903121066446e-12
2.180000000000000271e-01 -1.328746973561223399e-10
2.190000000000000280e-01 8.171596038719641797e-11
2.200000000000000289e-01 -1.276781892017853082e-11
2.210000000000000298e-01 -1.315866443585278489e-10
2.220000000000000306e-01 -1.936829030491082904e-10
2.230000000000000315e-01 4.421122495879004077e-11
2.240000000000000324e-01 1.513155850618730369e-10
2.250000000000000333e-01 -5.619548576474286961e-11
2.260000000000000342e-01 2.205678001354627327e-11
2.270000000000000351e-01 1.343121031061045301e-10
2.280000000000000360e-01 7.439199256609185795e-11
2.290000000000000369e-01 -5.942636660538624938e-11
2.300000000000000377e-01 -1.393969800700389783e-10
2.310000000000000386e-01 -7.586740957687965192e-11
2.319999999999999840e-01 1.064036359021969247e-11
2.329999999999999849e-01 1.342679439853000645e-11
2.339999999999999858e-01 4.756580546105837470e-11
2.349999999999999867e-01 1.221273637774800136e-10
2.359999999999999876e-01 5.674050118642526286e-11
2.369999999999999885e-01 -1.202666299882082512e-10
2.379999999999999893e-01 -1.129514259901043260e-10
2.389999999999999902e-01 6.254105566760870261e-11
2.399999999999999911e-01 7.612183106076031436e-11
2.409999999999999920e-01 -1.097929178128786987e-10
2.419999999999999929e-01 -1.069028893185830498e-10
2.429999999999999938e-01 1.551875572491923094e-10
2.439999999999999947e-01 2.258734727034195089e-10
2.449999999999999956e-01 -7.129288825957758036e-11
2.459999999999999964e-01 -2.881594407533327740e-10
2.469999999999999973e-01 -8.046237287562263418e-11
2.479999999999999982e-01 1.979964942000478345e-10
2.489999999999999991e-01 1.336897537118630908e-10
2.500000000000000000e-01 -9.042597226560644685e-11
2.510000000000000009e-01 -8.676719065459082003e-11
2.520000000000000018e-01 4.910286066639457658e-11
2.530000000000000027e-01 2.535960330618536318e-11
2.540000000000000036e-01 -8.262093786903790260e-11
2.550000000000000044e-01 -4.381395246610964023e-11
2.560000000000000053e-01 5.718842066571028226e-11
2.570000000000000062e-01 3.563954686924830639e-11
2.580000000000000071e-01 -3.077832433362459597e-11
2.590000000000000080e-01 -4.862055202892179295e-12
2.600000000000000089e-01 -2.089661776949469640e-12
2.610000000000000098e-01 -9.942480172497880631e-11
2.620000000000000107e-01 -1.012775419084732675e-10
2.630000000000000115e-01 9.748479801174880777e-11
2.640000000000000124e-01 1.888526002247203905e-10
2.650000000000000133e-01 -6.275879815831331143e-11
2.660000000000000142e-01 -2.887248218286231349e-10
2.670000000000000151e-01 -1.063380494770171936e-10
2.680000000000000160e-01 1.981652619775786661e-10
2.690000000000000169e-01 1.333007038084588203e-10
2.700000000000000178e-01 -1.582947106726351194e-10
2.710000000000000187e-01 -1.978177621708709921e-10
2.720000000000000195e-01 1.406563754358103324e-11
2.730000000000000204e-01 8.650147265143459663e-11
2.740000000000000213e-01 -6.748424041802536522e-11
2.750000000000000222e-01 -1.229287782678056828e-10
2.760000000000000231e-01 -2.721911585013003787e-11
2.770000000000000240e-01 3.597122599785507191e-12
2.780000000000000249e-01 -1.054365483810215665e-10
2.790000000000000258e-01 -9.112532950439344859e-11
2.800000000000000266e-01 2.763922424264819711e-11
2.810000000000000275e-01 -1.312727704316785093e-12
2.820000000000000284e-01 -8.675282714420973207e-11
2.830000000000000293e-01 -1.966427021216077264e-11
2.840000000000000302e-01 4.704592271309593343e-11
2.850000000000000311e-01 -7.451461669916170649e-11
2.860000000000000320e-01 -1.385327408343073330e-10
2.870000000000000329e-01 1.740829702612245455e-11
2.880000000000000338e-01 1.768984958516739425e-10
2.890000000000000346e-01 1.003677141397929518e-10
2.900000000000000355e-01 -1.565609863973804750e-10
2.910000000000000364e-01 -1.604050225978426170e-10
2.920000000000000373e-01 1.059259346902763355e-10
2.930000000000000382e-01 1.052651299460194423e-10
2.940000000000000391e-01 -1.654392178807029268e-10
2.950000000000000400e-01 -3.222950795134238433e-10
2.960000000000000409e-01 -4.244427032062958460e-11
2.969999999999999862e-01 2.390834197285585105e-10
2.979999999999999871e-01 1.742179733810189646e-10
2.989999999999999880e-01 2.870947923838684801e-11
2.999999999999999889e-01 8.927969474825658835e-12
3.009999999999999898e-01 3.148699079247307964e-10
3.019999999999999907e-01 3.830038508567668032e-10
3.029999999999999916e-01 7.273044388966809493e-10
3.039999999999999925e-01 7.955733849485113751e-10
3.049999999999999933e-01 8.401457307627424598e-10
3.059999999999999942e-01 5.266613811727438588e-10
3.069999999999999951e-01 5.690523607881914359e-10
3.079999999999999960e-01 9.246932108908367809e-10
3.089999999999999969e-01 3.898747991115669720e-10
3.099999999999999978e-01 3.277378368693462107e-12
3.109999999999999987e-01 2.471800542025448522e-10
3.119999999999999996e-01 1.213791733789548744e-09
3.130000000000000004e-01 1.028745977293965552e-09
3.140000000000000013e-01 5.837161864974405034e-10
3.150000000000000022e-01 8.523635131041373825e-10
3.160000000000000031e-01 1.173484198702112735e-09
3.170000000000000040e-01 1.228297463740091189e-09
3.180000000000000049e-01 1.147837380699456844e-09
3.190000000000000058e-01 9.441025738965436176e-10
3.200000000000000067e-01 1.108213965039794857e-09
3.210000000000000075e-01 1.527221016317525937e-09
3.220000000000000084e-01 1.284815809299288958e-09
3.230000000000000093e-01 8.812222063170338515e-10
3.240000000000000102e-01 6.882174830025178380e-10
3.250000000000000111e-01 3.695284078730765032e-10
3.260000000000000120e-01 4.677858100876619574e-11
3.270000000000000129e-01 -7.230127607726899441e-11
3.280000000000000138e-01 1.308109176534344442e-11
3.290000000000000147e-01 -6.819007580816105474e-10
3.300000000000000155e-01 -1.073935607109888224e-09
3.310000000000000164e-01 -9.452278959543036763e-10
3.320000000000000173e-01 -8.992984135147708002e-10
3.330000000000000182e-01 -6.155218557069019880e-10
3.340000000000000191e-01 -3.302886852907249704e-10
3.350000000000000200e-01 -6.003446628710662480e-10
3.360000000000000209e-01 -3.825277872238075361e-10
3.370000000000000218e-01 -3.939248927053995430e-10
3.380000000000000226e-01 -4.644320483748742845e-10
3.390000000000000235e-01 -5.191509444557595998e-10
3.400000000000000244e-01 -4.768239136865304317e-10
3.410000000000000253e-01 -3.337845555506646633e-10
3.420000000000000262e-01 -4.487574756240064744e-10
3.430000000000000271e-01 -2.903490781136497390e-10
3.440000000000000280e-01 -2.698712364690436516e-10
3.450000000000000289e-01 -4.450200208339083474e-10
3.460000000000000298e-01 -4.184315116617653985e-10
3.470000000000000306e-01 -2.397229081907426007e-10
3.480000000000000315e-01 -4.361915273420891026e-10
3.490000000000000324e-01 -3.001972004312847275e-10
3.500000000000000333e-01 -4.571703016154060606e-10
3.510000000000000342e-01 -3.990692221123026684e-10
3.520000000000000351e-01 -1.010121764011273626e-09
3.530000000000000360e-01 -1.417083339561031607e-09
3.540000000000000369e-01 -1.580654496180500246e-09
3.550000000000000377e-01 -1.278218864086966278e-09
3.560000000000000386e-01 -8.392593286998817348e-10
3.570000000000000395e-01 -7.456755213297583396e-10
3.580000000000000404e-01 -3.224549516289698659e-10
3.590000000000000413e-01 1.458673182241909672e-10
3.599999999999999867e-01 -2.848459246251877630e-10
3.609999999999999876e-01 -8.805116635812737513e-10
3.619999999999999885e-01 -9.171152726139553124e-10
3.629999999999999893e-01 -1.249766512501082616e-09
3.639999999999999902e-01 -1.680898975564559805e-09
3.649999999999999911e-01 -1.856729880955754197e-09
3.659999999999999920e-01 -2.731297854552394710e-09
3.669999999999999929e-01 -2.833047574313241057e-09
3.679999999999999938e-01 -2.454839886922854930e-09
3.689999999999999947e-01 -1.678323258147429442e-09
3.699999999999999956e-01 -1.751075728861906100e-09
3.709999999999999964e-01 -1.620890088815940544e-09
3.719999999999999973e-01 -1.928448511989699909e-09
3.729999999999999982e-01 -2.305256430190638639e-09
3.739999999999999991e-01 -1.647645575530987117e-09
3.750000000000000000e-01 -1.891205414494834258e-09
3.760000000000000009e-01 -1.731145005123835290e-09
3.770000000000000018e-01 -2.214694205804335070e-09
3.780000000000000027e-01 -2.035324797589055379e-09
3.790000000000000036e-01 -2.024094669650366995e-09
3.800000000000000044e-01 -2.497358764230739325e-09
3.810000000000000053e-01 -2.736175730433387798e-09
3.820000000000000062e-01 -2.849251501402250142e-09
3.830000000000000071e-01 -3.289123640115576563e-09
3.840000000000000080e-01 -3.532100834036100423e-09
3.850000000000000089e-01 -3.628617406548073632e-09
3.860000000000000098e-01 -3.847596019568300107e-09
3.870000000000000107e-01 -3.764584199927867303e-09
3.880000000000000115e-01 -3.818247051867729169e-09
3.890000000000000124e-01 -4.121729180184274810e-09
3.900000000000000133e-01 -3.827773653597432713e-09
3.910000000000000142e-01 -3.428842321184788489e-09
3.920000000000000151e-01 -3.337557119564849017e-09
3.930000000000000160e-01 -3.761422728842944707e-09
3.940000000000000169e-01 -3.739447862471934059e-09
3.950000000000000178e-01 -3.542335313966304966e-09
3.960000000000000187e-01 -3.372338852614120697e-09
3.970000000000000195e-01 -3.689864414013754867e-09
3.980000000000000204e-01 -3.881027943464232521e-09
3.990000000000000213e-01 -3.760572298006081837e-09
4.000000000000000222e-01 -3.721863706118710979e-09
4.010000000000000231e-01 -3.861958752793270833e-09
4.020000000000000240e-01 -3.921877045343080681e-09
4.030000000000000249e-01 -3.838867002059487277e-09
4.040000000000000258e-01 -3.587018682082998566e-09
4.050000000000000266e-01 -3.691240202385870361e-09
4.060000000000000275e-01 -3.509226687015143398e-09
4.070000000000000284e-01 -3.403441972693599382e-09
4.080000000000000293e-01 -3.677665283419173647e-09
4.090000000000000302e-01 -3.850050056541931554e-09
4.100000000000000311e-01 -3.629967437746017822e-09
4.110000000000000320e-01 -3.454755592713354417e-09
4.120000000000000329e-01 -3.610624688121788495e-09
4.130000000000000338e-01 -3.767080869465644355e-09
4.140000000000000346e-01 -3.643559232102688838e-09
4.150000000000000355e-01 -3.255627767373425741e-09
4.160000000000000364e-01 -3.366869449905607325e-09
4.170000000000000373e-01 -3.593089825670858772e-09
4.180000000000000382e-01 -3.602582676620613711e-09
4.190000000000000391e-01 -3.459385666815251170e-09
4.200000000000000400e-01 -3.425534522705220297e-09
4.210000000000000409e-01 -3.565946649075613095e-09
4.220000000000000417e-01 -3.399823089722531222e-09
4.230000000000000426e-01 -3.508453749745399364e-09
4.240000000000000435e-01 -3.753655164473457262e-09
4.250000000000000444e-01 -3.556607675037071203e-09
4.260000000000000453e-01 -3.151750194163582819e-09
4.270000000000000462e-01 -3.243201707192611138e-09
4.280000000000000471e-01 -3.324401642856855688e-09
4.290000000000000480e-01 -3.492851341491132189e-09
4.300000000000000488e-01 -3.389876379600309519e-09
4.310000000000000497e-01 -3.266390935507956783e-09
4.320000000000000506e-01 -3.356015465527661945e-09
4.330000000000000515e-01 -3.566026141044176256e-09
4.340000000000000524e-01 -3.437693463226310087e-09
4.350000000000000533e-01 -3.334494680373722986e-09
4.360000000000000542e-01 -3.350388855238861652e-09
4.370000000000000551e-01 -3.350805855006910861e-09
4.380000000000000560e-01 -3.432809592140984023e-09
4.390000000000000568e-01 -3.634414103004246499e-09
4.400000000000000577e-01 -3.530491898828813646e-09
4.410000000000000586e-01 -3.455373542848860779e-09
4.420000000000000595e-01 -3.447813812229583164e-09
4.430000000000000604e-01 -3.570664208751850310e-09
4.440000000000000613e-01 -3.650106217278903387e-09
4.450000000000000622e-01 -3.431785966512279629e-09
4.460000000000000631e-01 -3.300307360731835615e-09
4.470000000000000639e-01 -3.489429856173842381e-09
4.480000000000000648e-01 -3.670070913841527727e-09
4.490000000000000657e-01 -3.522395708444037155e-09
4.500000000000000666e-01 -3.284219785015807247e-09
4.510000000000000675e-01 -3.358338052095177773e-09
4.520000000000000684e-01 -3.357696565231549357e-09
4.530000000000000693e-01 -3.565214790057780192e-09
4.540000000000000702e-01 -3.260252512404804293e-09
4.550000000000000711e-01 -3.523341840505622713e-09
4.560000000000000719e-01 -3.070337539767820090e-09
4.569999999999999618e-01 -3.566253514719619488e-09
4.579999999999999627e-01 -3.044466012624980067e-09
4.589999999999999636e-01 -3.200008480419569423e-09
4.599999999999999645e-01 -4.134048658954725397e-09
4.609999999999999654e-01 -1.259381043894336472e-09
4.619999999999999662e-01 -6.735544566538465006e-09
4.629999999999999671e-01 1.581243913584273741e-09
4.639999999999999680e-01 -9.365954234397122491e-09
4.649999999999999689e-01 2.843521418327554784e-09
4.659999999999999698e-01 -7.277264568728014638e-09
4.669999999999999707e-01 -2.445962765662557103e-09
4.679999999999999716e-01 -5.855623208539384450e-10
4.689999999999999725e-01 -8.998594758224953694e-09
4.699999999999999734e-01 3.008425286665783460e-09
4.709999999999999742e-01 -6.832385768262838610e-09