-1.199999999999999956e-01 0.000000000000000000e+00
-1.189999999999999947e-01 0.000000000000000000e+00
-1.179999999999999938e-01 0.000000000000000000e+00
-1.169999999999999929e-01 0.000000000000000000e+00
-1.159999999999999920e-01 0.000000000000000000e+00
-1.149999999999999911e-01 0.000000000000000000e+00
-1.139999999999999902e-01 0.000000000000000000e+00
-1.129999999999999893e-01 0.000000000000000000e+00
-1.119999999999999885e-01 0.000000000000000000e+00
-1.109999999999999876e-01 0.000000000000000000e+00
-1.100000000000000006e-01 0.000000000000000000e+00
-1.089999999999999997e-01 0.000000000000000000e+00
-1.079999999999999988e-01 0.000000000000000000e+00
-1.069999999999999979e-01 0.000000000000000000e+00
-1.059999999999999970e-01 0.000000000000000000e+00
-1.049999999999999961e-01 0.000000000000000000e+00
-1.039999999999999952e-01 0.000000000000000000e+00
-1.029999999999999943e-01 0.000000000000000000e+00
-1.019999999999999934e-01 0.000000000000000000e+00
-1.009999999999999926e-01 0.000000000000000000e+00
-9.999999999999999167e-02 0.000000000000000000e+00
-9.899999999999999079e-02 0.000000000000000000e+00
-9.800000000000000377e-02 0.000000000000000000e+00
-9.700000000000000289e-02 0.000000000000000000e+00
-9.600000000000000200e-02 0.000000000000000000e+00
-9.500000000000000111e-02 0.000000000000000000e+00
-9.400000000000000022e-02 0.000000000000000000e+00
-9.299999999999999933e-02 0.000000000000000000e+00
-9.199999999999999845e-02 0.000000000000000000e+00
-9.099999999999999756e-02 0.000000000000000000e+00
-8.999999999999999667e-02 0.000000000000000000e+00
-8.899999999999999578e-02 0.000000000000000000e+00
-8.799999999999999489e-02 0.000000000000000000e+00
-8.699999999999999400e-02 0.000000000000000000e+00
-8.599999999999999312e-02 0.000000000000000000e+00
-8.499999999999999223e-02 0.000000000000000000e+00
-8.399999999999999134e-02 0.000000000000000000e+00
-8.299999999999999045e-02 0.000000000000000000e+00
-8.199999999999998956e-02 0.000000000000000000e+00
-8.099999999999998868e-02 0.000000000000000000e+00
-7.999999999999998779e-02 0.000000000000000000e+00
-7.899999999999998690e-02 0.000000000000000000e+00
-7.799999999999998601e-02 0.000000000000000000e+00
-7.699999999999998512e-02 0.000000000000000000e+00
-7.599999999999999811e-02 0.000000000000000000e+00
-7.499999999999999722e-02 0.000000000000000000e+00
-7.399999999999999634e-02 0.000000000000000000e+00
-7.299999999999999545e-02 0.000000000000000000e+00
-7.199999999999999456e-02 0.000000000000000000e+00
-7.099999999999999367e-02 0.000000000000000000e+00
-6.999999999999999278e-02 0.000000000000000000e+00
-6.899999999999999190e-02 0.000000000000000000e+00
-6.799999999999999101e-02 0.000000000000000000e+00
-6.700000000000000400e-02 0.000000000000000000e+00
-6.600000000000000311e-02 0.000000000000000000e+00
-6.500000000000000222e-02 0.000000000000000000e+00
-6.400000000000000133e-02 0.000000000000000000e+00
-6.300000000000000044e-02 0.000000000000000000e+00
-6.199999999999999262e-02 0.000000000000000000e+00
-6.099999999999999173e-02 0.000000000000000000e+00
-5.999999999999999778e-02 0.000000000000000000e+00
-5.899999999999999689e-02 0.000000000000000000e+00
-5.799999999999999600e-02 0.000000000000000000e+00
-5.699999999999999512e-02 0.000000000000000000e+00
-5.599999999999999423e-02 0.000000000000000000e+00
-5.499999999999999334e-02 0.000000000000000000e+00
-5.399999999999999245e-02 0.000000000000000000e+00
-5.299999999999999156e-02 0.000000000000000000e+00
-5.199999999999999067e-02 0.000000000000000000e+00
-5.099999999999998979e-02 0.000000000000000000e+00
-4.999999999999998890e-02 0.000000000000000000e+00
-4.899999999999998801e-02 0.000000000000000000e+00
-4.799999999999998712e-02 0.000000000000000000e+00
-4.700000000000000011e-02 0.000000000000000000e+00
-4.599999999999999922e-02 0.000000000000000000e+00
-4.499999999999999833e-02 0.000000000000000000e+00
-4.399999999999999745e-02 0.000000000000000000e+00
-4.299999999999999656e-02 0.000000000000000000e+00
-4.199999999999999567e-02 0.000000000000000000e+00
-4.099999999999999478e-02 0.000000000000000000e+00
-3.999999999999999389e-02 0.000000000000000000e+00
-3.899999999999999301e-02 0.000000000000000000e+00
-3.799999999999999212e-02 0.000000000000000000e+00
-3.699999999999999123e-02 0.000000000000000000e+00
-3.599999999999999034e-02 0.000000000000000000e+00
-3.499999999999998945e-02 0.000000000000000000e+00
-3.399999999999998856e-02 0.000000000000000000e+00
-3.299999999999998768e-02 0.000000000000000000e+00
-3.200000000000000067e-02 0.000000000000000000e+00
-3.099999999999999978e-02 0.000000000000000000e+00
-2.999999999999999889e-02 0.000000000000000000e+00
-2.899999999999999800e-02 0.000000000000000000e+00
-2.799999999999999711e-02 0.000000000000000000e+00
-2.699999999999999623e-02 0.000000000000000000e+00
-2.599999999999999534e-02 0.000000000000000000e+00
-2.499999999999999445e-02 0.000000000000000000e+00
-2.399999999999999356e-02 0.000000000000000000e+00
-2.299999999999999267e-02 0.000000000000000000e+00
-2.199999999999999178e-02 0.000000000000000000e+00
-2.099999999999999090e-02 0.000000000000000000e+00
-1.999999999999999001e-02 0.000000000000000000e+00
-1.899999999999998912e-02 0.000000000000000000e+00
-1.799999999999998823e-02 0.000000000000000000e+00
-1.699999999999998734e-02 0.000000000000000000e+00
-1.599999999999998646e-02 0.000000000000000000e+00
-1.499999999999999944e-02 0.000000000000000000e+00
-1.399999999999999856e-02 0.000000000000000000e+00
-1.299999999999999767e-02 0.000000000000000000e+00
-1.199999999999999678e-02 0.000000000000000000e+00
-1.099999999999999589e-02 0.000000000000000000e+00
-9.999999999999995004e-03 0.000000000000000000e+00
-8.999999999999994116e-03 0.000000000000000000e+00
-7.999999999999993228e-03 0.000000000000000000e+00
-6.999999999999992339e-03 0.000000000000000000e+00
-5.999999999999991451e-03 0.000000000000000000e+00
-4.999999999999990563e-03 0.000000000000000000e+00
-3.999999999999989675e-03 0.000000000000000000e+00
-2.999999999999988787e-03 0.000000000000000000e+00
-1.999999999999987899e-03 0.000000000000000000e+00
-9.999999999999870104e-04 0.000000000000000000e+00
0.000000000000000000e+00 0.000000000000000000e+00
1.000000000000000888e-03 0.000000000000000000e+00
2.000000000000001776e-03 0.000000000000000000e+00
3.000000000000002665e-03 0.000000000000000000e+00
4.000000000000003553e-03 0.000000000000000000e+00
5.000000000000004441e-03 0.000000000000000000e+00
6.000000000000005329e-03 0.000000000000000000e+00
7.000000000000006217e-03 0.000000000000000000e+00
8.000000000000007105e-03 0.000000000000000000e+00
9.000000000000007994e-03 0.000000000000000000e+00
1.000000000000000888e-02 0.000000000000000000e+00
1.100000000000000977e-02 0.000000000000000000e+00
1.200000000000001066e-02 0.000000000000000000e+00
1.300000000000001155e-02 0.000000000000000000e+00
1.400000000000001243e-02 0.000000000000000000e+00
1.500000000000001332e-02 0.000000000000000000e+00
1.600000000000001421e-02 0.000000000000000000e+00
1.700000000000001510e-02 0.000000000000000000e+00
1.800000000000001599e-02 0.000000000000000000e+00
1.900000000000001688e-02 0.000000000000000000e+00
2.000000000000001776e-02 0.000000000000000000e+00
2.100000000000001865e-02 0.000000000000000000e+00
2.200000000000001954e-02 0.000000000000000000e+00
2.300000000000002043e-02 0.000000000000000000e+00
2.400000000000002132e-02 0.000000000000000000e+00
2.499999999999999445e-02 0.000000000000000000e+00
2.599999999999999534e-02 0.000000000000000000e+00
2.699999999999999623e-02 0.000000000000000000e+00
2.799999999999999711e-02 0.000000000000000000e+00
2.899999999999999800e-02 0.000000000000000000e+00
2.999999999999999889e-02 0.000000000000000000e+00
3.099999999999999978e-02 0.000000000000000000e+00
3.200000000000000067e-02 0.000000000000000000e+00
3.300000000000000155e-02 0.000000000000000000e+00
3.400000000000000244e-02 0.000000000000000000e+00
3.500000000000000333e-02 0.000000000000000000e+00
3.600000000000000422e-02 0.000000000000000000e+00
3.700000000000000511e-02 0.000000000000000000e+00
3.800000000000000600e-02 0.000000000000000000e+00
3.900000000000000688e-02 0.000000000000000000e+00
4.000000000000000777e-02 0.000000000000000000e+00
4.100000000000000866e-02 0.000000000000000000e+00
4.200000000000000955e-02 0.000000000000000000e+00
4.300000000000001044e-02 0.000000000000000000e+00
4.400000000000001132e-02 0.000000000000000000e+00
4.500000000000001221e-02 0.000000000000000000e+00
4.600000000000001310e-02 0.000000000000000000e+00
4.700000000000001399e-02 0.000000000000000000e+00
4.800000000000001488e-02 0.000000000000000000e+00
4.900000000000001577e-02 0.000000000000000000e+00
5.000000000000001665e-02 0.000000000000000000e+00
5.100000000000001754e-02 0.000000000000000000e+00
5.200000000000001843e-02 0.000000000000000000e+00
5.300000000000001932e-02 0.000000000000000000e+00
5.400000000000002021e-02 0.000000000000000000e+00
5.500000000000002109e-02 0.000000000000000000e+00
5.599999999999999423e-02 0.000000000000000000e+00
5.699999999999999512e-02 0.000000000000000000e+00
5.799999999999999600e-02 0.000000000000000000e+00
5.899999999999999689e-02 0.000000000000000000e+00
5.999999999999999778e-02 0.000000000000000000e+00
6.099999999999999867e-02 0.000000000000000000e+00
6.199999999999999956e-02 0.000000000000000000e+00
6.300000000000000044e-02 0.000000000000000000e+00
6.400000000000000133e-02 0.000000000000000000e+00
6.500000000000000222e-02 0.000000000000000000e+00
6.600000000000000311e-02 0.000000000000000000e+00
6.700000000000000400e-02 0.000000000000000000e+00
6.800000000000000488e-02 0.000000000000000000e+00
6.900000000000000577e-02 0.000000000000000000e+00
7.000000000000000666e-02 0.000000000000000000e+00
7.100000000000000755e-02 0.000000000000000000e+00
7.200000000000000844e-02 0.000000000000000000e+00
7.300000000000000933e-02 0.000000000000000000e+00
7.400000000000001021e-02 0.000000000000000000e+00
7.500000000000001110e-02 0.000000000000000000e+00
7.600000000000001199e-02 0.000000000000000000e+00
7.700000000000001288e-02 0.000000000000000000e+00
7.800000000000001377e-02 0.000000000000000000e+00
7.900000000000001465e-02 0.000000000000000000e+00
8.000000000000001554e-02 0.000000000000000000e+00
8.100000000000001643e-02 0.000000000000000000e+00
8.200000000000001732e-02 0.000000000000000000e+00
8.300000000000001821e-02 0.000000000000000000e+00
8.400000000000001910e-02 0.000000000000000000e+00
8.500000000000001998e-02 0.000000000000000000e+00
8.600000000000002087e-02 0.000000000000000000e+00
8.700000000000002176e-02 0.000000000000000000e+00
8.800000000000002265e-02 0.000000000000000000e+00
8.899999999999999578e-02 0.000000000000000000e+00
8.999999999999999667e-02 0.000000000000000000e+00
9.099999999999999756e-02 0.000000000000000000e+00
9.199999999999999845e-02 0.000000000000000000e+00
9.299999999999999933e-02 0.000000000000000000e+00
9.400000000000000022e-02 0.000000000000000000e+00
9.500000000000000111e-02 0.000000000000000000e+00
9.600000000000000200e-02 0.000000000000000000e+00
9.700000000000000289e-02 0.000000000000000000e+00
9.800000000000000377e-02 0.000000000000000000e+00
9.900000000000000466e-02 0.000000000000000000e+00
1.000000000000000056e-01 0.000000000000000000e+00
1.010000000000000064e-01 0.000000000000000000e+00
1.020000000000000073e-01 0.000000000000000000e+00
1.030000000000000082e-01 -0.000000000000000000e+00
1.040000000000000091e-01 0.000000000000000000e+00
1.050000000000000100e-01 0.000000000000000000e+00
1.060000000000000109e-01 1.821688003622262192e-44
1.070000000000000118e-01 2.942726775082115849e-43
1.080000000000000127e-01 2.843234584115053837e-42
1.090000000000000135e-01 1.147943701974890145e-41
1.100000000000000144e-01 -2.076864453975811381e-40
1.110000000000000153e-01 -6.122233754278124688e-39
1.120000000000000162e-01 -9.891623487744908302e-38
1.130000000000000171e-01 -1.234820529755858415e-36
1.140000000000000180e-01 -1.290475261871347442e-35
1.150000000000000189e-01 -1.158204252371882108e-34
1.160000000000000198e-01 -8.906959468470483225e-34
1.170000000000000207e-01 -5.648532474345288825e-33
1.180000000000000215e-01 -2.536040899822773627e-32
1.190000000000000224e-01 -6.891742646614632733e-33
1.199999999999999956e-01 1.543501853335913901e-30
1.209999999999999964e-01 2.336805581773655171e-29
1.219999999999999973e-01 2.494451223201980215e-28
1.229999999999999982e-01 2.248935936859180043e-27
1.239999999999999991e-01 1.811003079406640798e-26
1.250000000000000000e-01 1.334533003175654499e-25
1.260000000000000009e-01 9.105356987108190399e-25
1.270000000000000018e-01 5.781606933866845730e-24
1.280000000000000027e-01 3.418647377455399899e-23
1.290000000000000036e-01 1.875862891219294130e-22
1.300000000000000044e-01 9.470470804682741535e-22
1.310000000000000053e-01 4.325297938574588171e-21
1.320000000000000062e-01 1.725459499018262139e-20
1.330000000000000071e-01 5.496030974107253324e-20
1.340000000000000080e-01 9.295272820033016549e-20
1.350000000000000089e-01 -4.268506060318041436e-19
1.360000000000000098e-01 -5.790374716482969553e-18
1.370000000000000107e-01 -4.063169733247840693e-17
1.380000000000000115e-01 -2.237842782497936325e-16
1.390000000000000124e-01 -1.053281022987749387e-15
1.400000000000000133e-01 -4.358787077340898694e-15
1.410000000000000142e-01 -1.599873289675080718e-14
1.420000000000000151e-01 -5.196448536770072180e-14
1.430000000000000160e-01 -1.474433097316263375e-13
1.440000000000000169e-01 -3.544583517759575253e-13
1.450000000000000178e-01 -6.682587968230568887e-13
1.460000000000000187e-01 -7.264727556501038297e-13
1.470000000000000195e-01 9.782092670607145379e-13
1.480000000000000204e-01 8.497516058858511911e-12
1.490000000000000213e-01 2.966777171153900383e-11
1.500000000000000222e-01 7.440212335119156251e-11
1.510000000000000231e-01 1.454797671218699406e-10
1.520000000000000240e-01 2.205760990525718057e-10
1.530000000000000249e-01 2.381602415280070772e-10
1.540000000000000258e-01 1.181708342290477276e-10
1.550000000000000266e-01 -1.597647986129047126e-10
1.560000000000000275e-01 -4.660611896412092392e-10
1.570000000000000284e-01 -5.515701229086289459e-10
1.580000000000000293e-01 -2.810018329135743897e-10
1.590000000000000302e-01 1.257808718291286709e-10
1.600000000000000311e-01 2.440450619367595664e-10
1.610000000000000320e-01 -4.791551704019791913e-12
1.620000000000000329e-01 -1.448635378320517475e-10
1.630000000000000338e-01 1.681518257967695718e-10
1.640000000000000346e-01 4.921740792696027711e-10
1.650000000000000355e-01 2.795682296774515407e-10
1.660000000000000364e-01 -7.796915890700972795e-11
1.670000000000000373e-01 4.555828631014335883e-11
1.680000000000000382e-01 2.016850159103356077e-10
1.689999999999999836e-01 -1.822344636304151777e-10
1.699999999999999845e-01 -4.192274860592704044e-10
1.709999999999999853e-01 -5.566692592995359234e-11
1.719999999999999862e-01 3.852935678838598221e-11
1.729999999999999871e-01 -1.887605211026155416e-10
1.739999999999999880e-01 1.339646032993968561e-10
1.749999999999999889e-01 3.879725152255986131e-10
1.759999999999999898e-01 -4.922739299528799961e-12
1.769999999999999907e-01 -2.140890416335583524e-11
1.779999999999999916e-01 1.135433691512588439e-10
1.789999999999999925e-01 -3.066940867935130655e-10
1.799999999999999933e-01 -2.119139308476292172e-10
1.809999999999999942e-01 1.475961852737128766e-10
1.819999999999999951e-01 -6.729780621661518580e-11
1.829999999999999960e-01 1.596131560255287241e-10
1.839999999999999969e-01 2.885813532582659491e-10
1.849999999999999978e-01 -1.757179401984387823e-10
1.859999999999999987e-01 -2.668914568515479147e-11
1.869999999999999996e-01 -9.730727335011124524e-11
1.880000000000000004e-01 -2.547652366846619998e-10
1.890000000000000013e-01 2.259837594831282104e-10
1.900000000000000022e-01 6.176818084790980379e-11
1.910000000000000031e-01 8.194878803324812111e-11
1.920000000000000040e-01 1.487164419389230829e-10
1.930000000000000049e-01 -2.987390890218932782e-10
1.940000000000000058e-01 -8.614319327304720275e-12
1.950000000000000067e-01 -7.893129899683160033e-11
1.960000000000000075e-01 2.672786124369164185e-11
1.970000000000000084e-01 2.884128214031278503e-10
1.980000000000000093e-01 -1.078444833435554528e-10
1.990000000000000102e-01 6.825535969756657551e-11
2.000000000000000111e-01 -2.190449627237356367e-10
2.010000000000000120e-01 -7.805968371688010166e-11
2.020000000000000129e-01 1.428888396493022128e-10
2.030000000000000138e-01 1.863027093707003701e-11
2.040000000000000147e-01 1.788039577510502909e-10
2.050000000000000155e-01 -7.890191972004245713e-11
2.060000000000000164e-01 -3.020824979049763215e-10
2.070000000000000173e-01 4.188535907001522673e-10
2.080000000000000182e-01 -8.353324698617825561e-10
2.090000000000000191e-01 1.339452326831747087e-09
2.100000000000000200e-01 -6.332757651605902538e-10
2.110000000000000209e-01 -1.133324878388464185e-09
2.120000000000000218e-01 1.258930626413246046e-09
2.130000000000000226e-01 2.416064681654006563e-09
2.140000000000000235e-01 -9.722244120879963702e-10
2.150000000000000244e-01 -5.949452042131042617e-09
2.160000000000000253e-01 -1.222216283736088371e-08
2.170000000000000262e-01 -1.916280822911176074e-08
2.180000000000000271e-01 -2.734392445802313887e-08
2.190000000000000280e-01 -3.651858548892050749e-08
2.200000000000000289e-01 -4.715361612284141302e-08
2.210000000000000298e-01 -6.052415812973777065e-08
2.220000000000000306e-01 -7.680201719040269381e-08
2.230000000000000315e-01 -9.692647751080585294e-08
2.240000000000000324e-01 -1.204254544973082375e-07
2.250000000000000333e-01 -1.492597334618039895e-07
2.260000000000000342e-01 -1.838464527281757910e-07
2.270000000000000351e-01 -2.265845751026063226e-07
2.280000000000000360e-01 -2.774976053387945285e-07
2.290000000000000369e-01 -3.390787810531037394e-07
2.300000000000000377e-01 -4.123149608403764432e-07
2.310000000000000386e-01 -5.008833454667183105e-07
2.319999999999999840e-01 -6.064780677661474328e-07
2.329999999999999849e-01 -7.329712730097526219e-07
2.339999999999999858e-01 -8.827861393001512624e-07
2.349999999999999867e-01 -1.061267994373338297e-06
2.359999999999999876e-01 -1.272632630389125552e-06
2.369999999999999885e-01 -1.523387254565022886e-06
2.379999999999999893e-01 -1.818669034037156962e-06
2.389999999999999902e-01 -2.166472995668300427e-06
2.399999999999999911e-01 -2.574397967691766098e-06
2.409999999999999920e-01 -3.053222371818264946e-06
2.419999999999999929e-01 -3.612866748881060630e-06
2.429999999999999938e-01 -4.266132691554958001e-06
2.439999999999999947e-01 -5.025552127335686237e-06
2.449999999999999956e-01 -5.907701051910407841e-06
2.459999999999999964e-01 -6.929225037310970947e-06
2.469999999999999973e-01 -8.110358976409770548e-06
2.479999999999999982e-01 -9.471204975852742791e-06
2.489999999999999991e-01 -1.103632894228212535e-05
2.500000000000000000e-01 -1.283123583561973646e-05
2.510000000000000009e-01 -1.488604175392538309e-05
2.520000000000000018e-01 -1.723147579468786716e-05
2.530000000000000027e-01 -1.990257260331418365e-05
2.540000000000000036e-01 -2.293607394676655531e-05
2.550000000000000044e-01 -2.637356556078884751e-05
2.560000000000000053e-01 -3.025876503670588136e-05
2.570000000000000062e-01 -3.463910616119392216e-05
2.580000000000000071e-01 -3.956436557928100228e-05
2.590000000000000080e-01 -4.508804704528301954e-05
2.600000000000000089e-01 -5.126724863657727838e-05
2.610000000000000098e-01 -5.816147677251137793e-05
2.620000000000000107e-01 -6.583333743037655950e-05
2.630000000000000115e-01 -7.434655708493664861e-05
2.640000000000000124e-01 -8.376866753678768873e-05
2.650000000000000133e-01 -9.416753164259716868e-05
2.660000000000000142e-01 -1.056136388797312975e-04
2.670000000000000151e-01 -1.181757397716864944e-04
2.680000000000000160e-01 -1.319238508585840464e-04
2.690000000000000169e-01 -1.469258422730490565e-04
2.700000000000000178e-01 -1.632487837923690677e-04
2.710000000000000187e-01 -1.809556124499067664e-04
2.720000000000000195e-01 -2.001049579121172428e-04
2.730000000000000204e-01 -2.207501383963972330e-04
2.740000000000000213e-01 -2.429372980259358883e-04
2.750000000000000222e-01 -2.667054941412061453e-04
2.760000000000000231e-01 -2.920823171734809875e-04
2.770000000000000240e-01 -3.190854622516781092e-04
2.780000000000000249e-01 -3.477180725894868374e-04
2.790000000000000258e-01 -3.779707476496696472e-04
2.800000000000000266e-01 -4.098166828043758869e-04
2.810000000000000275e-01 -4.432119894772768021e-04
2.820000000000000284e-01 -4.780929884873330593e-04
2.830000000000000293e-01 -5.143755697645246983e-04
2.840000000000000302e-01 -5.519546102732419968e-04
2.850000000000000311e-01 -5.907003069296479225e-04
2.860000000000000320e-01 -6.304604467004537582e-04
2.870000000000000329e-01 -6.710565066896378994e-04
2.880000000000000338e-01 -7.122856914065778255e-04
2.890000000000000346e-01 -7.539191865362226963e-04
2.900000000000000355e-01 -7.957028574310243130e-04
2.910000000000000364e-01 -8.373581222258508205e-04
2.920000000000000373e-01 -8.785810787230730057e-04
2.930000000000000382e-01 -9.190461714752018452e-04
2.940000000000000391e-01 -9.584054350852966309e-04
2.950000000000000400e-01 -9.962929179891943932e-04
2.960000000000000409e-01 -1.032325089909136295e-03
2.969999999999999862e-01 -1.066104741767048836e-03
2.979999999999999871e-01 -1.097224769182503223e-03
2.989999999999999880e-01 -1.125269918702542782e-03
2.999999999999999889e-01 -1.149824587628245354e-03
3.009999999999999898e-01 -1.170473056845366955e-03
3.019999999999999907e-01 -1.186807639896869659e-03
3.029999999999999916e-01 -1.198431127704679966e-03
3.039999999999999925e-01 -1.204963191412389278e-03
3.049999999999999933e-01 -1.206046785227954388e-03
3.059999999999999942e-01 -1.201351056806743145e-03
3.069999999999999951e-01 -1.190578681416809559e-03
3.079999999999999960e-01 -1.173469237983226776e-03
3.089999999999999969e-01 -1.149806426838040352e-03
3.099999999999999978e-01 -1.119421212933957577e-03
3.109999999999999987e-01 -1.082196366041898727e-03
3.119999999999999996e-01 -1.038071117363870144e-03
3.130000000000000004e-01 -9.870427893474698067e-04
3.140000000000000013e-01 -9.291720343753695488e-04
3.150000000000000022e-01 -8.645830093882977962e-04
3.160000000000000031e-01 -7.934647728689014912e-04
3.170000000000000040e-01 -7.160726818256080151e-04
3.180000000000000049e-01 -6.327269948087632656e-04
3.190000000000000058e-01 -5.438135704025626183e-04
3.200000000000000067e-01 -4.497788613662123680e-04
3.210000000000000075e-01 -3.511296235956251621e-04
3.220000000000000084e-01 -2.484272699803113937e-04
3.230000000000000093e-01 -1.422845089109614491e-04
3.240000000000000102e-01 -3.336001464049331844e-05
3.250000000000000111e-01 7.764951442368328571e-05
3.260000000000000120e-01 1.900142087833955884e-04
3.270000000000000129e-01 3.029795188922435045e-04
3.280000000000000138e-01 4.157729563303291798e-04
3.290000000000000147e-01 5.276132724247872829e-04
3.300000000000000155e-01 6.377185345627367496e-04
3.310000000000000164e-01 7.453139405697584152e-04
3.320000000000000173e-01 8.496416849084198475e-04
3.330000000000000182e-01 9.499683510512113571e-04
3.340000000000000191e-01 1.045592478476464748e-03
3.350000000000000200e-01 1.135854283347725868e-03
3.360000000000000209e-01 1.220139791257679462e-03
3.370000000000000218e-01 1.297890907153487206e-03
3.380000000000000226e-01 1.368609257042407990e-03
3.390000000000000235e-01 1.431860262528061867e-03
3.400000000000000244e-01 1.487280591391026974e-03
3.410000000000000253e-01 1.534578506834805012e-03
3.420000000000000262e-01 1.573538640514016151e-03
3.430000000000000271e-01 1.604021410457789898e-03
3.440000000000000280e-01 1.625963370315730572e-03
3.450000000000000289e-01 1.639379188418388367e-03
3.460000000000000298e-01 1.644357107579708099e-03
3.470000000000000306e-01 1.641058828681707382e-03
3.480000000000000315e-01 1.629713922739028931e-03
3.490000000000000324e-01 1.610617036931216717e-03
3.500000000000000333e-01 1.584123587235808372e-03
3.510000000000000342e-01 1.550643122754991055e-03
3.520000000000000351e-01 1.510633621364831924e-03
3.530000000000000360e-01 1.464596018195152283e-03
3.540000000000000369e-01 1.413064775988459587e-03
3.550000000000000377e-01 1.356604974716901779e-03
3.560000000000000386e-01 1.295801484957337379e-03
3.570000000000000395e-01 1.231253263540565968e-03
3.580000000000000404e-01 1.163567532785236835e-03
3.590000000000000413e-01 1.093351165764033794e-03
3.599999999999999867e-01 1.021205447614192963e-03
3.609999999999999876e-01 9.477195562794804573e-04
3.619999999999999885e-01 8.734641596674919128e-04
3.629999999999999893e-01 7.989879231899976730e-04
3.639999999999999902e-01 7.248112815432250500e-04
3.649999999999999911e-01 6.514230626635253429e-04
3.659999999999999920e-01 5.792776355519890785e-04
3.669999999999999929e-01 5.087908357381820679e-04
3.679999999999999938e-01 4.403397033456712961e-04
3.689999999999999947e-01 3.742585831787437201e-04
3.699999999999999956e-01 3.108396194875240326e-04
3.709999999999999964e-01 2.503336581867188215e-04
3.719999999999999973e-01 1.929481368279084563e-04
3.729999999999999982e-01 1.388485834468156099e-04
3.739999999999999991e-01 8.816085755825042725e-05
3.750000000000000000e-01 4.097076816833578050e-05
3.760000000000000009e-01 -2.670620915523613803e-06
3.770000000000000018e-01 -4.274881939636543393e-05
3.780000000000000027e-01 -7.928029663162305951e-05
3.790000000000000036e-01 -1.123113324865698814e-04
3.800000000000000044e-01 -1.419137843186035752e-04
3.810000000000000053e-01 -1.681835856288671494e-04
3.820000000000000062e-01 -1.912364969030022621e-04
3.830000000000000071e-01 -2.112066285917535424e-04
3.840000000000000080e-01 -2.282415662193670869e-04
3.850000000000000089e-01 -2.425009442958980799e-04
3.860000000000000098e-01 -2.541533031035214663e-04
3.870000000000000107e-01 -2.633729600347578526e-04
3.880000000000000115e-01 -2.703386126086115837e-04
3.890000000000000124e-01 -2.752301807049661875e-04
3.900000000000000133e-01 -2.782278752420097589e-04
3.910000000000000142e-01 -2.795087639242410660e-04
3.920000000000000151e-01 -2.792460436467081308e-04
3.930000000000000160e-01 -2.776082546915858984e-04
3.940000000000000169e-01 -2.747576218098402023e-04
3.950000000000000178e-01 -2.708481624722480774e-04
3.960000000000000187e-01 -2.660258905962109566e-04
3.970000000000000195e-01 -2.604284090921282768e-04
3.980000000000000204e-01 -2.541836875025182962e-04
3.990000000000000213e-01 -2.474109060131013393e-04
4.000000000000000222e-01 -2.402188547421246767e-04
4.010000000000000231e-01 -2.327068068552762270e-04
4.020000000000000240e-01 -2.249655371997505426e-04
4.030000000000000249e-01 -2.170757652493193746e-04
4.040000000000000258e-01 -2.091090573230758309e-04
4.050000000000000266e-01 -2.011293981922790408e-04
4.060000000000000275e-01 -1.931919250637292862e-04
4.070000000000000284e-01 -1.853443682193756104e-04
4.080000000000000293e-01 -1.776277640601620078e-04
4.090000000000000302e-01 -1.700758148217573762e-04
4.100000000000000311e-01 -1.627172314329072833e-04
4.110000000000000320e-01 -1.555740309413522482e-04
4.120000000000000329e-01 -1.486640539951622486e-04
4.130000000000000338e-01 -1.420005282852798700e-04
4.140000000000000346e-01 -1.355925342068076134e-04
4.150000000000000355e-01 -1.294460380449891090e-04
4.160000000000000364e-01 -1.235635718330740929e-04
4.170000000000000373e-01 -1.179448081529699266e-04
4.180000000000000382e-01 -1.125880589825101197e-04
4.190000000000000391e-01 -1.074896063073538244e-04
4.200000000000000400e-01 -1.026430763886310160e-04
4.210000000000000409e-01 -9.804182627703994513e-05
4.220000000000000417e-01 -9.367809252580627799e-05
4.230000000000000426e-01 -8.954336954047903419e-05
4.240000000000000435e-01 -8.562875882489606738e-05
4.250000000000000444e-01 -8.192393579520285130e-05
4.260000000000000453e-01 -7.841974002076312900e-05
4.270000000000000462e-01 -7.510621799156069756e-05
4.280000000000000471e-01 -7.197338709374889731e-05
4.290000000000000480e-01 -6.901197048136964440e-05
4.300000000000000488e-01 -6.621261854888871312e-05
4.310000000000000497e-01 -6.356533413054421544e-05
4.320000000000000506e-01 -6.106170621933415532e-05
4.330000000000000515e-01 -5.869351298315450549e-05
4.340000000000000524e-01 -5.645208511850796640e-05
4.350000000000000533e-01 -5.433020487544126809e-05
4.360000000000000542e-01 -5.232006515143439174e-05
4.370000000000000551e-01 -5.041427721153013408e-05
4.380000000000000560e-01 -4.860731496592052281e-05
4.390000000000000568e-01 -4.689223351306281984e-05
4.400000000000000577e-01 -4.526352495304308832e-05
4.410000000000000586e-01 -4.371543764136731625e-05
4.420000000000000595e-01 -4.224308577249757946e-05
4.430000000000000604e-01 -4.084197280462831259e-05
4.440000000000000613e-01 -3.950765676563605666e-05
4.450000000000000622e-01 -3.823561928584240377e-05
4.460000000000000631e-01 -3.702226968016475439e-05
4.470000000000000639e-01 -3.586405728128738701e-05
4.480000000000000648e-01 -3.475729681667871773e-05
4.490000000000000657e-01 -3.369947080500423908e-05
4.500000000000000666e-01 -3.268728687544353306e-05
4.510000000000000675e-01 -3.171826028847135603e-05
4.520000000000000684e-01 -3.078978261328302324e-05
4.530000000000000693e-01 -2.989917993545532227e-05
4.540000000000000702e-01 -2.904487519117537886e-05
4.550000000000000711e-01 -2.822446185746230185e-05
4.560000000000000719e-01 -2.743530239968094975e-05
4.569999999999999618e-01 -2.667650369403418154e-05
4.579999999999999627e-01 -2.594517354737035930e-05
4.589999999999999636e-01 -2.524005140003282577e-05
4.599999999999999645e-01 -2.455989488225895911e-05
4.609999999999999654e-01 -2.390033296251203865e-05
4.619999999999999662e-01 -2.326208596059586853e-05
4.629999999999999671e-01 -2.264305112475994974e-05
4.639999999999999680e-01 -2.203925032517872751e-05
4.649999999999999689e-01 -2.145165490219369531e-05
4.659999999999999698e-01 -2.087652501359116286e-05
4.669999999999999707e-01 -2.031153599091339856e-05
4.679999999999999716e-01 -1.975601844605989754e-05
4.689999999999999725e-01 -1.920730937854386866e-05
4.699999999999999734e-01 -1.866213460743892938e-05
4.709999999999999742e-01 -1.811800939321983606e-05