-1.199999999999999956e-01 0.000000000000000000e+00
-1.189999999999999947e-01 0.000000000000000000e+00
-1.179999999999999938e-01 0.000000000000000000e+00
-1.169999999999999929e-01 0.000000000000000000e+00
-1.159999999999999920e-01 0.000000000000000000e+00
-1.149999999999999911e-01 0.000000000000000000e+00
-1.139999999999999902e-01 0.000000000000000000e+00
-1.129999999999999893e-01 0.000000000000000000e+00
-1.119999999999999885e-01 0.000000000000000000e+00
-1.109999999999999876e-01 0.000000000000000000e+00
-1.100000000000000006e-01 0.000000000000000000e+00
-1.089999999999999997e-01 0.000000000000000000e+00
-1.079999999999999988e-01 0.000000000000000000e+00
-1.069999999999999979e-01 0.000000000000000000e+00
-1.059999999999999970e-01 0.000000000000000000e+00
-1.049999999999999961e-01 0.000000000000000000e+00
-1.039999999999999952e-01 0.000000000000000000e+00
-1.029999999999999943e-01 0.000000000000000000e+00
-1.019999999999999934e-01 0.000000000000000000e+00
-1.009999999999999926e-01 0.000000000000000000e+00
-9.999999999999999167e-02 0.000000000000000000e+00
-9.899999999999999079e-02 0.000000000000000000e+00
-9.800000000000000377e-02 0.000000000000000000e+00
-9.700000000000000289e-02 0.000000000000000000e+00
-9.600000000000000200e-02 0.000000000000000000e+00
-9.500000000000000111e-02 0.000000000000000000e+00
-9.400000000000000022e-02 0.000000000000000000e+00
-9.299999999999999933e-02 0.000000000000000000e+00
-9.199999999999999845e-02 0.000000000000000000e+00
-9.099999999999999756e-02 0.000000000000000000e+00
-8.999999999999999667e-02 0.000000000000000000e+00
-8.899999999999999578e-02 0.000000000000000000e+00
-8.799999999999999489e-02 0.000000000000000000e+00
-8.699999999999999400e-02 0.000000000000000000e+00
-8.599999999999999312e-02 0.000000000000000000e+00
-8.499999999999999223e-02 0.000000000000000000e+00
-8.399999999999999134e-02 0.000000000000000000e+00
-8.299999999999999045e-02 0.000000000000000000e+00
-8.199999999999998956e-02 0.000000000000000000e+00
-8.099999999999998868e-02 0.000000000000000000e+00
-7.999999999999998779e-02 0.000000000000000000e+00
-7.899999999999998690e-02 0.000000000000000000e+00
-7.799999999999998601e-02 0.000000000000000000e+00
-7.699999999999998512e-02 0.000000000000000000e+00
-7.599999999999999811e-02 0.000000000000000000e+00
-7.499999999999999722e-02 0.000000000000000000e+00
-7.399999999999999634e-02 0.000000000000000000e+00
-7.299999999999999545e-02 0.000000000000000000e+00
-7.199999999999999456e-02 0.000000000000000000e+00
-7.099999999999999367e-02 0.000000000000000000e+00
-6.999999999999999278e-02 0.000000000000000000e+00
-6.899999999999999190e-02 0.000000000000000000e+00
-6.799999999999999101e-02 0.000000000000000000e+00
-6.700000000000000400e-02 0.000000000000000000e+00
-6.600000000000000311e-02 0.000000000000000000e+00
-6.500000000000000222e-02 0.000000000000000000e+00
-6.400000000000000133e-02 0.000000000000000000e+00
-6.300000000000000044e-02 0.000000000000000000e+00
-6.199999999999999262e-02 0.000000000000000000e+00
-6.099999999999999173e-02 0.000000000000000000e+00
-5.999999999999999778e-02 0.000000000000000000e+00
-5.899999999999999689e-02 0.000000000000000000e+00
-5.799999999999999600e-02 0.000000000000000000e+00
-5.699999999999999512e-02 0.000000000000000000e+00
-5.599999999999999423e-02 0.000000000000000000e+00
-5.499999999999999334e-02 0.000000000000000000e+00
-5.399999999999999245e-02 0.000000000000000000e+00
-5.299999999999999156e-02 0.000000000000000000e+00
-5.199999999999999067e-02 0.000000000000000000e+00
-5.099999999999998979e-02 0.000000000000000000e+00
-4.999999999999998890e-02 0.000000000000000000e+00
-4.899999999999998801e-02 0.000000000000000000e+00
-4.799999999999998712e-02 0.000000000000000000e+00
-4.700000000000000011e-02 0.000000000000000000e+00
-4.599999999999999922e-02 0.000000000000000000e+00
-4.499999999999999833e-02 0.000000000000000000e+00
-4.399999999999999745e-02 0.000000000000000000e+00
-4.299999999999999656e-02 0.000000000000000000e+00
-4.199999999999999567e-02 0.000000000000000000e+00
-4.099999999999999478e-02 0.000000000000000000e+00
-3.999999999999999389e-02 0.000000000000000000e+00
-3.899999999999999301e-02 0.000000000000000000e+00
-3.799999999999999212e-02 0.000000000000000000e+00
-3.699999999999999123e-02 0.000000000000000000e+00
-3.599999999999999034e-02 0.000000000000000000e+00
-3.499999999999998945e-02 0.000000000000000000e+00
-3.399999999999998856e-02 0.000000000000000000e+00
-3.299999999999998768e-02 0.000000000000000000e+00
-3.200000000000000067e-02 0.000000000000000000e+00
-3.099999999999999978e-02 0.000000000000000000e+00
-2.999999999999999889e-02 0.000000000000000000e+00
-2.899999999999999800e-02 0.000000000000000000e+00
-2.799999999999999711e-02 0.000000000000000000e+00
-2.699999999999999623e-02 0.000000000000000000e+00
-2.599999999999999534e-02 0.000000000000000000e+00
-2.499999999999999445e-02 0.000000000000000000e+00
-2.399999999999999356e-02 0.000000000000000000e+00
-2.299999999999999267e-02 0.000000000000000000e+00
-2.199999999999999178e-02 0.000000000000000000e+00
-2.099999999999999090e-02 0.000000000000000000e+00
-1.999999999999999001e-02 0.000000000000000000e+00
-1.899999999999998912e-02 0.000000000000000000e+00
-1.799999999999998823e-02 0.000000000000000000e+00
-1.699999999999998734e-02 0.000000000000000000e+00
-1.599999999999998646e-02 0.000000000000000000e+00
-1.499999999999999944e-02 0.000000000000000000e+00
-1.399999999999999856e-02 0.000000000000000000e+00
-1.299999999999999767e-02 0.000000000000000000e+00
-1.199999999999999678e-02 0.000000000000000000e+00
-1.099999999999999589e-02 0.000000000000000000e+00
-9.999999999999995004e-03 0.000000000000000000e+00
-8.999999999999994116e-03 0.000000000000000000e+00
-7.999999999999993228e-03 0.000000000000000000e+00
-6.999999999999992339e-03 0.000000000000000000e+00
-5.999999999999991451e-03 0.000000000000000000e+00
-4.999999999999990563e-03 0.000000000000000000e+00
-3.999999999999989675e-03 0.000000000000000000e+00
-2.999999999999988787e-03 0.000000000000000000e+00
-1.999999999999987899e-03 0.000000000000000000e+00
-9.999999999999870104e-04 0.000000000000000000e+00
0.000000000000000000e+00 0.000000000000000000e+00
1.000000000000000888e-03 0.000000000000000000e+00
2.000000000000001776e-03 0.000000000000000000e+00
3.000000000000002665e-03 0.000000000000000000e+00
4.000000000000003553e-03 0.000000000000000000e+00
5.000000000000004441e-03 0.000000000000000000e+00
6.000000000000005329e-03 0.000000000000000000e+00
7.000000000000006217e-03 0.000000000000000000e+00
8.000000000000007105e-03 0.000000000000000000e+00
9.000000000000007994e-03 0.000000000000000000e+00
1.000000000000000888e-02 0.000000000000000000e+00
1.100000000000000977e-02 0.000000000000000000e+00
1.200000000000001066e-02 0.000000000000000000e+00
1.300000000000001155e-02 0.000000000000000000e+00
1.400000000000001243e-02 0.000000000000000000e+00
1.500000000000001332e-02 0.000000000000000000e+00
1.600000000000001421e-02 0.000000000000000000e+00
1.700000000000001510e-02 0.000000000000000000e+00
1.800000000000001599e-02 0.000000000000000000e+00
1.900000000000001688e-02 0.000000000000000000e+00
2.000000000000001776e-02 0.000000000000000000e+00
2.100000000000001865e-02 0.000000000000000000e+00
2.200000000000001954e-02 0.000000000000000000e+00
2.300000000000002043e-02 0.000000000000000000e+00
2.400000000000002132e-02 0.000000000000000000e+00
2.499999999999999445e-02 0.000000000000000000e+00
2.599999999999999534e-02 0.000000000000000000e+00
2.699999999999999623e-02 0.000000000000000000e+00
2.799999999999999711e-02 0.000000000000000000e+00
2.899999999999999800e-02 0.000000000000000000e+00
2.999999999999999889e-02 0.000000000000000000e+00
3.099999999999999978e-02 0.000000000000000000e+00
3.200000000000000067e-02 0.000000000000000000e+00
3.300000000000000155e-02 0.000000000000000000e+00
3.400000000000000244e-02 0.000000000000000000e+00
3.500000000000000333e-02 0.000000000000000000e+00
3.600000000000000422e-02 0.000000000000000000e+00
3.700000000000000511e-02 0.000000000000000000e+00
3.800000000000000600e-02 0.000000000000000000e+00
3.900000000000000688e-02 0.000000000000000000e+00
4.000000000000000777e-02 0.000000000000000000e+00
4.100000000000000866e-02 0.000000000000000000e+00
4.200000000000000955e-02 0.000000000000000000e+00
4.300000000000001044e-02 0.000000000000000000e+00
4.400000000000001132e-02 0.000000000000000000e+00
4.500000000000001221e-02 0.000000000000000000e+00
4.600000000000001310e-02 0.000000000000000000e+00
4.700000000000001399e-02 0.000000000000000000e+00
4.800000000000001488e-02 0.000000000000000000e+00
4.900000000000001577e-02 0.000000000000000000e+00
5.000000000000001665e-02 0.000000000000000000e+00
5.100000000000001754e-02 0.000000000000000000e+00
5.200000000000001843e-02 0.000000000000000000e+00
5.300000000000001932e-02 0.000000000000000000e+00
5.400000000000002021e-02 0.000000000000000000e+00
5.500000000000002109e-02 0.000000000000000000e+00
5.599999999999999423e-02 0.000000000000000000e+00
5.699999999999999512e-02 0.000000000000000000e+00
5.799999999999999600e-02 0.000000000000000000e+00
5.899999999999999689e-02 0.000000000000000000e+00
5.999999999999999778e-02 0.000000000000000000e+00
6.099999999999999867e-02 0.000000000000000000e+00
6.199999999999999956e-02 0.000000000000000000e+00
6.300000000000000044e-02 0.000000000000000000e+00
6.400000000000000133e-02 0.000000000000000000e+00
6.500000000000000222e-02 0.000000000000000000e+00
6.600000000000000311e-02 0.000000000000000000e+00
6.700000000000000400e-02 0.000000000000000000e+00
6.800000000000000488e-02 0.000000000000000000e+00
6.900000000000000577e-02 0.000000000000000000e+00
7.000000000000000666e-02 0.000000000000000000e+00
7.100000000000000755e-02 0.000000000000000000e+00
7.200000000000000844e-02 0.000000000000000000e+00
7.300000000000000933e-02 0.000000000000000000e+00
7.400000000000001021e-02 0.000000000000000000e+00
7.500000000000001110e-02 0.000000000000000000e+00
7.600000000000001199e-02 0.000000000000000000e+00
7.700000000000001288e-02 0.000000000000000000e+00
7.800000000000001377e-02 0.000000000000000000e+00
7.900000000000001465e-02 0.000000000000000000e+00
8.000000000000001554e-02 0.000000000000000000e+00
8.100000000000001643e-02 0.000000000000000000e+00
8.200000000000001732e-02 0.000000000000000000e+00
8.300000000000001821e-02 0.000000000000000000e+00
8.400000000000001910e-02 0.000000000000000000e+00
8.500000000000001998e-02 0.000000000000000000e+00
8.600000000000002087e-02 0.000000000000000000e+00
8.700000000000002176e-02 0.000000000000000000e+00
8.800000000000002265e-02 0.000000000000000000e+00
8.899999999999999578e-02 0.000000000000000000e+00
8.999999999999999667e-02 0.000000000000000000e+00
9.099999999999999756e-02 0.000000000000000000e+00
9.199999999999999845e-02 0.000000000000000000e+00
9.299999999999999933e-02 0.000000000000000000e+00
9.400000000000000022e-02 0.000000000000000000e+00
9.500000000000000111e-02 0.000000000000000000e+00
9.600000000000000200e-02 0.000000000000000000e+00
9.700000000000000289e-02 0.000000000000000000e+00
9.800000000000000377e-02 0.000000000000000000e+00
9.900000000000000466e-02 0.000000000000000000e+00
1.000000000000000056e-01 0.000000000000000000e+00
1.010000000000000064e-01 0.000000000000000000e+00
1.020000000000000073e-01 0.000000000000000000e+00
1.030000000000000082e-01 0.000000000000000000e+00
1.040000000000000091e-01 0.000000000000000000e+00
1.050000000000000100e-01 0.000000000000000000e+00
1.060000000000000109e-01 0.000000000000000000e+00
1.070000000000000118e-01 0.000000000000000000e+00
1.080000000000000127e-01 0.000000000000000000e+00
1.090000000000000135e-01 0.000000000000000000e+00
1.100000000000000144e-01 0.000000000000000000e+00
1.110000000000000153e-01 0.000000000000000000e+00
1.120000000000000162e-01 0.000000000000000000e+00
1.130000000000000171e-01 0.000000000000000000e+00
1.140000000000000180e-01 0.000000000000000000e+00
1.150000000000000189e-01 0.000000000000000000e+00
1.160000000000000198e-01 0.000000000000000000e+00
1.170000000000000207e-01 0.000000000000000000e+00
1.180000000000000215e-01 0.000000000000000000e+00
1.190000000000000224e-01 0.000000000000000000e+00
1.199999999999999956e-01 0.000000000000000000e+00
1.209999999999999964e-01 0.000000000000000000e+00
1.219999999999999973e-01 0.000000000000000000e+00
1.229999999999999982e-01 0.000000000000000000e+00
1.239999999999999991e-01 0.000000000000000000e+00
1.250000000000000000e-01 1.401298464324817071e-45
1.260000000000000009e-01 2.802596928649634142e-45
1.270000000000000018e-01 -1.835700988265510363e-43
1.280000000000000027e-01 -4.299183688548538774e-42
1.290000000000000036e-01 -6.092705593037872143e-41
1.300000000000000044e-01 -6.646638875985472331e-40
1.310000000000000053e-01 -5.856114564216663003e-39
1.320000000000000062e-01 -4.049252018087264510e-38
1.330000000000000071e-01 -1.793121917855676493e-37
1.340000000000000080e-01 3.417714938289233099e-37
1.350000000000000089e-01 1.956149017068466398e-35
1.360000000000000098e-01 2.887438176023047644e-34
1.370000000000000107e-01 3.178570152744066930e-33
1.380000000000000115e-01 2.995236013027992019e-32
1.390000000000000124e-01 2.538767811617811169e-31
1.400000000000000133e-01 1.984205876165409315e-30
1.410000000000000142e-01 1.451682936350246686e-29
1.420000000000000151e-01 1.004657323073780522e-28
1.430000000000000160e-01 6.629392721145994541e-28
1.440000000000000169e-01 4.197703365933965300e-27
1.450000000000000178e-01 2.563874362868481653e-26
1.460000000000000187e-01 1.516783661368381297e-25
1.470000000000000195e-01 8.717458302792914474e-25
1.480000000000000204e-01 4.875714963482223329e-24
1.490000000000000213e-01 2.654710059218302829e-23
1.500000000000000222e-01 1.405705704457660990e-22
1.510000000000000231e-01 7.222923034431977233e-22
1.520000000000000240e-01 3.589969513035108733e-21
1.530000000000000249e-01 1.719184881707649934e-20
1.540000000000000258e-01 7.896960183663922459e-20
1.550000000000000266e-01 3.462101381318990165e-19
1.560000000000000275e-01 1.440639158120702808e-18
1.570000000000000284e-01 5.653590889620282067e-18
1.580000000000000293e-01 2.076045493676400563e-17
1.590000000000000302e-01 7.058782814912704039e-17
1.600000000000000311e-01 2.187762488887117851e-16
1.610000000000000320e-01 6.015988509798216120e-16
1.620000000000000329e-01 1.385686715280845960e-15
1.630000000000000338e-01 2.234292920355552756e-15
1.640000000000000346e-01 -1.709998716595352076e-16
1.650000000000000355e-01 -2.053354909064067368e-14
1.660000000000000364e-01 -1.077601549659412683e-13
1.670000000000000373e-01 -3.946422453150050247e-13
1.680000000000000382e-01 -1.178386706789102956e-12
1.689999999999999836e-01 -2.987358624362279613e-12
1.699999999999999845e-01 -6.467082511868449402e-12
1.709999999999999853e-01 -1.174636429790432146e-11
1.719999999999999862e-01 -1.693299493676914125e-11
1.729999999999999871e-01 -1.601056613675932994e-11
1.739999999999999880e-01 1.953525882725237750e-12
1.749999999999999889e-01 4.854018575972673943e-11
1.759999999999999898e-01 1.240276631397918550e-10
1.769999999999999907e-01 2.030286772036760112e-10
1.779999999999999916e-01 2.351511207976386686e-10
1.789999999999999925e-01 1.785562253608929950e-10
1.799999999999999933e-01 5.389471507966092645e-11
1.809999999999999942e-01 -4.128857672425212400e-11
1.819999999999999951e-01 -1.354053934948806770e-11
1.829999999999999960e-01 1.028564178273683183e-10
1.839999999999999969e-01 1.470891047850031441e-10
1.849999999999999978e-01 2.792586301092470080e-11
1.859999999999999987e-01 -1.174132180370435208e-10
1.869999999999999996e-01 -9.405775464044197065e-11
1.880000000000000004e-01 3.326245182067033568e-11
1.890000000000000013e-01 2.151353227508590038e-11
1.900000000000000022e-01 -1.127873142103830162e-10
1.910000000000000031e-01 -9.063827466349039241e-11
1.920000000000000040e-01 8.534260798054305042e-11
1.930000000000000049e-01 9.558436681045279215e-11
1.940000000000000058e-01 -4.215626112080705923e-11
1.950000000000000067e-01 -1.925709754418275521e-14
1.960000000000000075e-01 1.118936332478170925e-10
1.970000000000000084e-01 -1.594821150141534361e-11
1.980000000000000093e-01 -1.257325354941940532e-10
1.990000000000000102e-01 1.532565047090983512e-11
2.000000000000000111e-01 3.454256325419180484e-11
2.010000000000000120e-01 -8.706702026017865137e-11
2.020000000000000129e-01 3.435812398477899876e-11
2.030000000000000138e-01 1.166817059639058130e-10
2.040000000000000147e-01 -5.164758204445618617e-11
2.050000000000000155e-01 -1.882575172140743547e-11
2.060000000000000164e-01 5.975779593381247423e-11
2.070000000000000173e-01 -9.899961406212298698e-11
2.080000000000000182e-01 -3.163391076865806895e-11
2.090000000000000191e-01 9.246581278432586259e-11
2.100000000000000200e-01 -4.524308705455837298e-11
2.110000000000000209e-01 2.904191297170566344e-11
2.120000000000000218e-01 7.167397231278016534e-11
2.130000000000000226e-01 -1.044199449129479262e-10
2.140000000000000235e-01 1.073612379554056417e-11
2.150000000000000244e-01 1.914523400925460805e-11
2.160000000000000253e-01 -6.875271185702303001e-11
2.170000000000000262e-01 1.011196057443264351e-10
2.180000000000000271e-01 -5.767874025619512679e-12
2.190000000000000280e-01 -4.265791886393088816e-11
2.200000000000000289e-01 5.510953152154662860e-11
2.210000000000000298e-01 -9.665784145296285601e-11
2.220000000000000306e-01 3.603717671496475816e-11
2.230000000000000315e-01 3.964269537637399310e-11
2.240000000000000324e-01 -4.331572600602129341e-11
2.250000000000000333e-01 8.174410454087066569e-11
2.260000000000000342e-01 -8.339509638410902426e-11
2.270000000000000351e-01 8.314653761505585994e-13
2.280000000000000360e-01 2.101844566448907159e-11
2.290000000000000369e-01 -4.354850507981566921e-11
2.300000000000000377e-01 9.796403965811606440e-11
2.310000000000000386e-01 -6.777365474386343180e-11
2.319999999999999840e-01 2.350654913774175014e-11
2.329999999999999849e-01 -2.198946059961404131e-11
2.339999999999999858e-01 -3.390009106762903457e-11
2.349999999999999867e-01 8.048307853503189335e-11
2.359999999999999876e-01 -5.967922683813853268e-11
2.369999999999999885e-01 6.819999426310729973e-11
2.379999999999999893e-01 -7.419396347296824956e-11
2.389999999999999902e-01 1.414558747914185233e-11
2.399999999999999911e-01 7.837514491570996000e-12
2.409999999999999920e-01 -1.497017614038309574e-11
2.419999999999999929e-01 6.217259346241732487e-11
2.429999999999999938e-01 -8.364039322250604869e-11
2.439999999999999947e-01 5.291795474038352154e-11
2.449999999999999956e-01 -6.432476079565319083e-11
2.459999999999999964e-01 7.442967769888397811e-11
2.469999999999999973e-01 -2.904661233760208461e-11
2.479999999999999982e-01 2.657054264110225716e-12
2.489999999999999991e-01 -1.416202745352368453e-11
2.500000000000000000e-01 -2.408199507863972855e-11
2.510000000000000009e-01 5.323939900048202389e-11
2.520000000000000018e-01 -4.371079539988720342e-11
2.530000000000000027e-01 5.792904003709686833e-11
2.540000000000000036e-01 -7.616025171630624868e-11
2.550000000000000044e-01 6.559407877970713230e-11
2.560000000000000053e-01 -5.949574166663751384e-11
2.570000000000000062e-01 6.674212571500248714e-11
2.580000000000000071e-01 -6.068868324549114845e-11
2.590000000000000080e-01 3.593551844982556531e-11
2.600000000000000089e-01 -4.310223705727977972e-11
2.610000000000000098e-01 3.350399818691229825e-11
2.620000000000000107e-01 -1.365614565873585207e-11
2.630000000000000115e-01 1.055357190526962086e-11
2.640000000000000124e-01 -1.071666366758705635e-11
2.650000000000000133e-01 -4.690331456558283207e-12
2.660000000000000142e-01 2.011253663614098741e-11
2.670000000000000151e-01 -6.882702741073387642e-12
2.680000000000000160e-01 3.160521844236541256e-11
2.690000000000000169e-01 -1.839015051352532737e-11
2.700000000000000178e-01 2.832314938139290916e-11
2.710000000000000187e-01 -2.868927317933867016e-11
2.720000000000000195e-01 4.403830078381076873e-11
2.730000000000000204e-01 -2.969038903621878944e-11
2.740000000000000213e-01 3.845915252931320083e-11
2.750000000000000222e-01 -3.078332033723540917e-11
2.760000000000000231e-01 5.834116523217858230e-11
2.770000000000000240e-01 -1.603539523387098598e-11
2.780000000000000249e-01 4.128031250161257049e-11
2.790000000000000258e-01 -3.238920243120446685e-11
2.800000000000000266e-01 4.626388161454997316e-11
2.810000000000000275e-01 -1.503164259730738195e-11
2.820000000000000284e-01 3.741995602268843868e-11
2.830000000000000293e-01 -3.437683471219088460e-11
2.840000000000000302e-01 2.450240010887227982e-11
2.850000000000000311e-01 -1.358890777680699102e-11
2.860000000000000320e-01 3.253419755822051229e-11
2.870000000000000329e-01 -1.260591631080387742e-11
2.880000000000000338e-01 2.095879025887370517e-12
2.890000000000000346e-01 8.715028698702553811e-12
2.900000000000000355e-01 2.523048436842145748e-11
2.910000000000000364e-01 4.854694424238914507e-11
2.920000000000000373e-01 1.602762367269860988e-11
2.930000000000000382e-01 5.346345588463918830e-11
2.940000000000000391e-01 -3.353850530629642890e-11
2.950000000000000400e-01 2.127853448996575025e-11
2.960000000000000409e-01 -5.007638748111276072e-11
2.969999999999999862e-01 -1.070521449264560943e-11
2.979999999999999871e-01 -7.750866615197082865e-11
2.989999999999999880e-01 8.089617864470710629e-11
2.999999999999999889e-01 -1.507221014662718517e-10
3.009999999999999898e-01 -1.405719984859388205e-11
3.019999999999999907e-01 -7.734435314432630548e-11
3.029999999999999916e-01 -9.511591514410611126e-11
3.039999999999999925e-01 -2.698801182532406528e-10
3.049999999999999933e-01 -2.294626710863667540e-10
3.059999999999999942e-01 -1.358912982141191605e-10
3.069999999999999951e-01 -1.469437904688675189e-10
3.079999999999999960e-01 1.234639057656750083e-10
3.089999999999999969e-01 1.977191743662842782e-10
3.099999999999999978e-01 3.850786356451862957e-10
3.109999999999999987e-01 4.590638980062067276e-11
3.119999999999999996e-01 7.174527638653671602e-11
3.130000000000000004e-01 1.011617456470048637e-10
3.140000000000000013e-01 2.645403895940035000e-10
3.150000000000000022e-01 4.101075035123358248e-10
3.160000000000000031e-01 1.152322681718942476e-11
3.170000000000000040e-01 -3.991047492490906734e-10
3.180000000000000049e-01 -3.007194493420684012e-10
3.190000000000000058e-01 -5.479066089719708543e-10
3.200000000000000067e-01 -4.139835141359071713e-10
3.210000000000000075e-01 -1.972750851564342156e-10
3.220000000000000084e-01 -3.190017139331757789e-10
3.230000000000000093e-01 -3.399236447876319289e-11
3.240000000000000102e-01 2.987334823956189211e-10
3.250000000000000111e-01 4.025011435260239523e-10
3.260000000000000120e-01 6.257643292428838322e-10
3.270000000000000129e-01 2.557563050231692614e-10
3.280000000000000138e-01 4.913971451969700865e-10
3.290000000000000147e-01 1.823963202696177177e-10
3.300000000000000155e-01 -2.138484944680385524e-10
3.310000000000000164e-01 -4.009343967936729314e-10
3.320000000000000173e-01 -4.285176657958800206e-10
3.330000000000000182e-01 -8.420180108714703238e-10
3.340000000000000191e-01 -8.556799713232976501e-10
3.350000000000000200e-01 -1.126739590517900069e-09
3.360000000000000209e-01 -1.046366104873186487e-09
3.370000000000000218e-01 -9.633942532616401877e-10
3.380000000000000226e-01 -9.757890051531603604e-10
3.390000000000000235e-01 -1.621898171322300186e-09
3.400000000000000244e-01 -1.654319348176613858e-09
3.410000000000000253e-01 -1.185100018119555898e-09
3.420000000000000262e-01 -1.774635549622871622e-09
3.430000000000000271e-01 -1.418509754103070009e-09
3.440000000000000280e-01 -1.894100876143056666e-09
3.450000000000000289e-01 -1.840085417370573850e-09
3.460000000000000298e-01 -1.958255779754836112e-09
3.470000000000000306e-01 -2.257174003261752659e-09
3.480000000000000315e-01 -1.958913031785414205e-09
3.490000000000000324e-01 -2.128519582811350119e-09
3.500000000000000333e-01 -2.253393915907508926e-09
3.510000000000000342e-01 -2.300701851254416397e-09
3.520000000000000351e-01 -2.288622624746494694e-09
3.530000000000000360e-01 -2.198461857005895581e-09
3.540000000000000369e-01 -2.246309804831980728e-09
3.550000000000000377e-01 -2.261892007027199725e-09
3.560000000000000386e-01 -2.193459636146144476e-09
3.570000000000000395e-01 -1.999225673898763489e-09
3.580000000000000404e-01 -2.158074607905291487e-09
3.590000000000000413e-01 -2.274354926612431882e-09
3.599999999999999867e-01 -1.846203190325468313e-09
3.609999999999999876e-01 -2.097984008742059814e-09
3.619999999999999885e-01 -1.764831836226221640e-09
3.629999999999999893e-01 -2.069697302431450225e-09
3.639999999999999902e-01 -1.806348848276684294e-09
3.649999999999999911e-01 -2.503433904621488182e-09
3.659999999999999920e-01 -1.655024561841855757e-09
3.669999999999999929e-01 -1.650242609230190283e-09
3.679999999999999938e-01 -1.920341219374677166e-09
3.689999999999999947e-01 -2.111253394332379685e-09
3.699999999999999956e-01 -2.199865178909021779e-09
3.709999999999999964e-01 -2.535628595978778321e-09
3.719999999999999973e-01 -2.396504328316950705e-09
3.729999999999999982e-01 -2.332651405367869302e-09
3.739999999999999991e-01 -2.981879632102391042e-09
3.750000000000000000e-01 -3.532976577957924746e-09
3.760000000000000009e-01 -3.104414503241059720e-09
3.770000000000000018e-01 -3.571576812078092189e-09
3.780000000000000027e-01 -4.244582907375615832e-09
3.790000000000000036e-01 -3.777403723148609060e-09
3.800000000000000044e-01 -4.041313950153835322e-09
3.810000000000000053e-01 -5.162547722648014314e-09
3.820000000000000062e-01 -4.145958243384484376e-09
3.830000000000000071e-01 -4.647565887694327103e-09
3.840000000000000080e-01 -4.329384850620954239e-09
3.850000000000000089e-01 -3.896138522918590752e-09
3.860000000000000098e-01 -4.119787178069600486e-09
3.870000000000000107e-01 -4.845304601985844783e-09
3.880000000000000115e-01 -5.281304282789278659e-09
3.890000000000000124e-01 -5.098559796579138492e-09
3.900000000000000133e-01 -4.933561115194606828e-09
3.910000000000000142e-01 -4.895138516758379410e-09
3.920000000000000151e-01 -5.243993683734515798e-09
3.930000000000000160e-01 -5.315065720878919819e-09
3.940000000000000169e-01 -5.466056052227941109e-09
3.950000000000000178e-01 -5.308777417667442933e-09
3.960000000000000187e-01 -5.569415151285284082e-09
3.970000000000000195e-01 -5.310557327220521984e-09
3.980000000000000204e-01 -5.347619236317768809e-09
3.990000000000000213e-01 -5.579874340355672757e-09
4.000000000000000222e-01 -5.834767335954893497e-09
4.010000000000000231e-01 -5.962288440741758677e-09
4.020000000000000240e-01 -5.852292872532416368e-09
4.030000000000000249e-01 -5.813564740719812107e-09
4.040000000000000258e-01 -5.643912004416051786e-09
4.050000000000000266e-01 -5.554838367061165627e-09
4.060000000000000275e-01 -5.424084292826591991e-09
4.070000000000000284e-01 -5.537724945270383614e-09
4.080000000000000293e-01 -5.432857719256389828e-09
4.090000000000000302e-01 -5.381201262366630544e-09
4.100000000000000311e-01 -5.710367290134854557e-09
4.110000000000000320e-01 -5.693857829669468629e-09
4.120000000000000329e-01 -5.617602383267694677e-09
4.130000000000000338e-01 -5.752428755556593387e-09
4.140000000000000346e-01 -5.559714466585319315e-09
4.150000000000000355e-01 -5.619622100994092762e-09
4.160000000000000364e-01 -5.691728421908237578e-09
4.170000000000000373e-01 -5.421865179044971228e-09
4.180000000000000382e-01 -5.388026025343606307e-09
4.190000000000000391e-01 -5.260033297815880360e-09
4.200000000000000400e-01 -5.523338675317290836e-09
4.210000000000000409e-01 -5.385090595666497393e-09
4.220000000000000417e-01 -5.162021921023551840e-09
4.230000000000000426e-01 -4.928062402598243352e-09
4.240000000000000435e-01 -4.762387373347110042e-09
4.250000000000000444e-01 -4.805202014068754579e-09
4.260000000000000453e-01 -4.896690164457595529e-09
4.270000000000000462e-01 -4.706283363020702382e-09
4.280000000000000471e-01 -4.492189287219616745e-09
4.290000000000000480e-01 -4.575553713692670499e-09
4.300000000000000488e-01 -4.863887959061230504e-09
4.310000000000000497e-01 -4.833800471004678911e-09
4.320000000000000506e-01 -4.811349985089918846e-09
4.330000000000000515e-01 -4.689863608575706166e-09
4.340000000000000524e-01 -4.833343503207743197e-09
4.350000000000000533e-01 -4.793786700929558720e-09
4.360000000000000542e-01 -4.794593166934646433e-09
4.370000000000000551e-01 -4.738426540029649914e-09
4.380000000000000560e-01 -4.520757546089271273e-09
4.390000000000000568e-01 -4.754678872842532655e-09
4.400000000000000577e-01 -4.756429916596971452e-09
4.410000000000000586e-01 -4.714906687297570897e-09
4.420000000000000595e-01 -5.035200700831410359e-09
4.430000000000000604e-01 -4.920461371682449681e-09
4.440000000000000613e-01 -4.917063201048677001e-09
4.450000000000000622e-01 -4.906019146488915794e-09
4.460000000000000631e-01 -4.915136742056347430e-09
4.470000000000000639e-01 -4.839217915275639825e-09
4.480000000000000648e-01 -5.044153095212777771e-09
4.490000000000000657e-01 -5.093299559888464501e-09
4.500000000000000666e-01 -5.062692487456388335e-09
4.510000000000000675e-01 -4.944065601364400209e-09
4.520000000000000684e-01 -4.870438274906518927e-09
4.530000000000000693e-01 -4.969264555398922312e-09
4.540000000000000702e-01 -4.879997739237751375e-09
4.550000000000000711e-01 -4.751682602943674283e-09
4.560000000000000719e-01 -4.886646642887626513e-09
4.569999999999999618e-01 -4.766031569403139656e-09
4.579999999999999627e-01 -4.855223778577055782e-09
4.589999999999999636e-01 -5.043956363692814193e-09
4.599999999999999645e-01 -4.812132914366884506e-09
4.609999999999999654e-01 -4.952603660512977513e-09
4.619999999999999662e-01 -4.819103338604691089e-09
4.629999999999999671e-01 -4.792759966676385375e-09
4.639999999999999680e-01 -4.983353729670625398e-09
4.649999999999999689e-01 -4.749195703368513932e-09
4.659999999999999698e-01 -4.768288874856807524e-09
4.669999999999999707e-01 -4.843889733763262484e-09
4.679999999999999716e-01 -4.751598670083012621e-09
4.689999999999999725e-01 -4.673388342979478693e-09
4.699999999999999734e-01 -4.594570945926079730e-09
4.709999999999999742e-01 -4.584422619302586099e-09