-1.199999999999999956e-01 -0.000000000000000000e+00
-1.189999999999999947e-01 -0.000000000000000000e+00
-1.179999999999999938e-01 -0.000000000000000000e+00
-1.169999999999999929e-01 -0.000000000000000000e+00
-1.159999999999999920e-01 -0.000000000000000000e+00
-1.149999999999999911e-01 -0.000000000000000000e+00
-1.139999999999999902e-01 -0.000000000000000000e+00
-1.129999999999999893e-01 -0.000000000000000000e+00
-1.119999999999999885e-01 -0.000000000000000000e+00
-1.109999999999999876e-01 -0.000000000000000000e+00
-1.100000000000000006e-01 -0.000000000000000000e+00
-1.089999999999999997e-01 -0.000000000000000000e+00
-1.079999999999999988e-01 -0.000000000000000000e+00
-1.069999999999999979e-01 -0.000000000000000000e+00
-1.059999999999999970e-01 -0.000000000000000000e+00
-1.049999999999999961e-01 -0.000000000000000000e+00
-1.039999999999999952e-01 -0.000000000000000000e+00
-1.029999999999999943e-01 -0.000000000000000000e+00
-1.019999999999999934e-01 -0.000000000000000000e+00
-1.009999999999999926e-01 -0.000000000000000000e+00
-9.999999999999999167e-02 -0.000000000000000000e+00
-9.899999999999999079e-02 -0.000000000000000000e+00
-9.800000000000000377e-02 -0.000000000000000000e+00
-9.700000000000000289e-02 -0.000000000000000000e+00
-9.600000000000000200e-02 -0.000000000000000000e+00
-9.500000000000000111e-02 -0.000000000000000000e+00
-9.400000000000000022e-02 -0.000000000000000000e+00
-9.299999999999999933e-02 -0.000000000000000000e+00
-9.199999999999999845e-02 -0.000000000000000000e+00
-9.099999999999999756e-02 -0.000000000000000000e+00
-8.999999999999999667e-02 -0.000000000000000000e+00
-8.899999999999999578e-02 -0.000000000000000000e+00
-8.799999999999999489e-02 -0.000000000000000000e+00
-8.699999999999999400e-02 -0.000000000000000000e+00
-8.599999999999999312e-02 -0.000000000000000000e+00
-8.499999999999999223e-02 -0.000000000000000000e+00
-8.399999999999999134e-02 -0.000000000000000000e+00
-8.299999999999999045e-02 -0.000000000000000000e+00
-8.199999999999998956e-02 -0.000000000000000000e+00
-8.099999999999998868e-02 -0.000000000000000000e+00
-7.999999999999998779e-02 -0.000000000000000000e+00
-7.899999999999998690e-02 -0.000000000000000000e+00
-7.799999999999998601e-02 -0.000000000000000000e+00
-7.699999999999998512e-02 -0.000000000000000000e+00
-7.599999999999999811e-02 -0.000000000000000000e+00
-7.499999999999999722e-02 -0.000000000000000000e+00
-7.399999999999999634e-02 -0.000000000000000000e+00
-7.299999999999999545e-02 -0.000000000000000000e+00
-7.199999999999999456e-02 -0.000000000000000000e+00
-7.099999999999999367e-02 -0.000000000000000000e+00
-6.999999999999999278e-02 -0.000000000000000000e+00
-6.899999999999999190e-02 -0.000000000000000000e+00
-6.799999999999999101e-02 -0.000000000000000000e+00
-6.700000000000000400e-02 -0.000000000000000000e+00
-6.600000000000000311e-02 -0.000000000000000000e+00
-6.500000000000000222e-02 -0.000000000000000000e+00
-6.400000000000000133e-02 -0.000000000000000000e+00
-6.300000000000000044e-02 -0.000000000000000000e+00
-6.199999999999999262e-02 -0.000000000000000000e+00
-6.099999999999999173e-02 -0.000000000000000000e+00
-5.999999999999999778e-02 -0.000000000000000000e+00
-5.899999999999999689e-02 -0.000000000000000000e+00
-5.799999999999999600e-02 -0.000000000000000000e+00
-5.699999999999999512e-02 -0.000000000000000000e+00
-5.599999999999999423e-02 -0.000000000000000000e+00
-5.499999999999999334e-02 -0.000000000000000000e+00
-5.399999999999999245e-02 -0.000000000000000000e+00
-5.299999999999999156e-02 -0.000000000000000000e+00
-5.199999999999999067e-02 -0.000000000000000000e+00
-5.099999999999998979e-02 -0.000000000000000000e+00
-4.999999999999998890e-02 -0.000000000000000000e+00
-4.899999999999998801e-02 -0.000000000000000000e+00
-4.799999999999998712e-02 -0.000000000000000000e+00
-4.700000000000000011e-02 -0.000000000000000000e+00
-4.599999999999999922e-02 -0.000000000000000000e+00
-4.499999999999999833e-02 -0.000000000000000000e+00
-4.399999999999999745e-02 -0.000000000000000000e+00
-4.299999999999999656e-02 -0.000000000000000000e+00
-4.199999999999999567e-02 -0.000000000000000000e+00
-4.099999999999999478e-02 -0.000000000000000000e+00
-3.999999999999999389e-02 -0.000000000000000000e+00
-3.899999999999999301e-02 -0.000000000000000000e+00
-3.799999999999999212e-02 -0.000000000000000000e+00
-3.699999999999999123e-02 -0.000000000000000000e+00
-3.599999999999999034e-02 -0.000000000000000000e+00
-3.499999999999998945e-02 -0.000000000000000000e+00
-3.399999999999998856e-02 -0.000000000000000000e+00
-3.299999999999998768e-02 -0.000000000000000000e+00
-3.200000000000000067e-02 -0.000000000000000000e+00
-3.099999999999999978e-02 -0.000000000000000000e+00
-2.999999999999999889e-02 -0.000000000000000000e+00
-2.899999999999999800e-02 -0.000000000000000000e+00
-2.799999999999999711e-02 -0.000000000000000000e+00
-2.699999999999999623e-02 -0.000000000000000000e+00
-2.599999999999999534e-02 -0.000000000000000000e+00
-2.499999999999999445e-02 -0.000000000000000000e+00
-2.399999999999999356e-02 -0.000000000000000000e+00
-2.299999999999999267e-02 -0.000000000000000000e+00
-2.199999999999999178e-02 -0.000000000000000000e+00
-2.099999999999999090e-02 -0.000000000000000000e+00
-1.999999999999999001e-02 -0.000000000000000000e+00
-1.899999999999998912e-02 -0.000000000000000000e+00
-1.799999999999998823e-02 -0.000000000000000000e+00
-1.699999999999998734e-02 -0.000000000000000000e+00
-1.599999999999998646e-02 -0.000000000000000000e+00
-1.499999999999999944e-02 -0.000000000000000000e+00
-1.399999999999999856e-02 -0.000000000000000000e+00
-1.299999999999999767e-02 -0.000000000000000000e+00
-1.199999999999999678e-02 -0.000000000000000000e+00
-1.099999999999999589e-02 -0.000000000000000000e+00
-9.999999999999995004e-03 -0.000000000000000000e+00
-8.999999999999994116e-03 -0.000000000000000000e+00
-7.999999999999993228e-03 -0.000000000000000000e+00
-6.999999999999992339e-03 -0.000000000000000000e+00
-5.999999999999991451e-03 -0.000000000000000000e+00
-4.999999999999990563e-03 -0.000000000000000000e+00
-3.999999999999989675e-03 -0.000000000000000000e+00
-2.999999999999988787e-03 -0.000000000000000000e+00
-1.999999999999987899e-03 -0.000000000000000000e+00
-9.999999999999870104e-04 -0.000000000000000000e+00
0.000000000000000000e+00 -0.000000000000000000e+00
1.000000000000000888e-03 -0.000000000000000000e+00
2.000000000000001776e-03 -0.000000000000000000e+00
3.000000000000002665e-03 -0.000000000000000000e+00
4.000000000000003553e-03 -0.000000000000000000e+00
5.000000000000004441e-03 -0.000000000000000000e+00
6.000000000000005329e-03 -0.000000000000000000e+00
7.000000000000006217e-03 -0.000000000000000000e+00
8.000000000000007105e-03 -0.000000000000000000e+00
9.000000000000007994e-03 -0.000000000000000000e+00
1.000000000000000888e-02 -0.000000000000000000e+00
1.100000000000000977e-02 -0.000000000000000000e+00
1.200000000000001066e-02 -0.000000000000000000e+00
1.300000000000001155e-02 -0.000000000000000000e+00
1.400000000000001243e-02 -0.000000000000000000e+00
1.500000000000001332e-02 -0.000000000000000000e+00
1.600000000000001421e-02 -0.000000000000000000e+00
1.700000000000001510e-02 -0.000000000000000000e+00
1.800000000000001599e-02 -0.000000000000000000e+00
1.900000000000001688e-02 -0.000000000000000000e+00
2.000000000000001776e-02 -0.000000000000000000e+00
2.100000000000001865e-02 -0.000000000000000000e+00
2.200000000000001954e-02 -0.000000000000000000e+00
2.300000000000002043e-02 -0.000000000000000000e+00
2.400000000000002132e-02 -0.000000000000000000e+00
2.499999999999999445e-02 -0.000000000000000000e+00
2.599999999999999534e-02 -0.000000000000000000e+00
2.699999999999999623e-02 -0.000000000000000000e+00
2.799999999999999711e-02 -0.000000000000000000e+00
2.899999999999999800e-02 -0.000000000000000000e+00
2.999999999999999889e-02 -0.000000000000000000e+00
3.099999999999999978e-02 -0.000000000000000000e+00
3.200000000000000067e-02 -0.000000000000000000e+00
3.300000000000000155e-02 -0.000000000000000000e+00
3.400000000000000244e-02 -0.000000000000000000e+00
3.500000000000000333e-02 -0.000000000000000000e+00
3.600000000000000422e-02 -0.000000000000000000e+00
3.700000000000000511e-02 -0.000000000000000000e+00
3.800000000000000600e-02 -0.000000000000000000e+00
3.900000000000000688e-02 -0.000000000000000000e+00
4.000000000000000777e-02 -0.000000000000000000e+00
4.100000000000000866e-02 -0.000000000000000000e+00
4.200000000000000955e-02 -0.000000000000000000e+00
4.300000000000001044e-02 -0.000000000000000000e+00
4.400000000000001132e-02 -0.000000000000000000e+00
4.500000000000001221e-02 -0.000000000000000000e+00
4.600000000000001310e-02 -0.000000000000000000e+00
4.700000000000001399e-02 -0.000000000000000000e+00
4.800000000000001488e-02 -0.000000000000000000e+00
4.900000000000001577e-02 -0.000000000000000000e+00
5.000000000000001665e-02 -0.000000000000000000e+00
5.100000000000001754e-02 -0.000000000000000000e+00
5.200000000000001843e-02 -0.000000000000000000e+00
5.300000000000001932e-02 -0.000000000000000000e+00
5.400000000000002021e-02 -0.000000000000000000e+00
5.500000000000002109e-02 -0.000000000000000000e+00
5.599999999999999423e-02 -0.000000000000000000e+00
5.699999999999999512e-02 -0.000000000000000000e+00
5.799999999999999600e-02 -0.000000000000000000e+00
5.899999999999999689e-02 -0.000000000000000000e+00
5.999999999999999778e-02 -0.000000000000000000e+00
6.099999999999999867e-02 -0.000000000000000000e+00
6.199999999999999956e-02 -0.000000000000000000e+00
6.300000000000000044e-02 -0.000000000000000000e+00
6.400000000000000133e-02 -0.000000000000000000e+00
6.500000000000000222e-02 -0.000000000000000000e+00
6.600000000000000311e-02 -0.000000000000000000e+00
6.700000000000000400e-02 -0.000000000000000000e+00
6.800000000000000488e-02 -0.000000000000000000e+00
6.900000000000000577e-02 -0.000000000000000000e+00
7.000000000000000666e-02 -0.000000000000000000e+00
7.100000000000000755e-02 -0.000000000000000000e+00
7.200000000000000844e-02 -0.000000000000000000e+00
7.300000000000000933e-02 -0.000000000000000000e+00
7.400000000000001021e-02 -0.000000000000000000e+00
7.500000000000001110e-02 -0.000000000000000000e+00
7.600000000000001199e-02 -0.000000000000000000e+00
7.700000000000001288e-02 -0.000000000000000000e+00
7.800000000000001377e-02 -0.000000000000000000e+00
7.900000000000001465e-02 -0.000000000000000000e+00
8.000000000000001554e-02 -0.000000000000000000e+00
8.100000000000001643e-02 -0.000000000000000000e+00
8.200000000000001732e-02 -0.000000000000000000e+00
8.300000000000001821e-02 -0.000000000000000000e+00
8.400000000000001910e-02 -0.000000000000000000e+00
8.500000000000001998e-02 -0.000000000000000000e+00
8.600000000000002087e-02 -0.000000000000000000e+00
8.700000000000002176e-02 -0.000000000000000000e+00
8.800000000000002265e-02 -0.000000000000000000e+00
8.899999999999999578e-02 -0.000000000000000000e+00
8.999999999999999667e-02 -0.000000000000000000e+00
9.099999999999999756e-02 -0.000000000000000000e+00
9.199999999999999845e-02 -0.000000000000000000e+00
9.299999999999999933e-02 -0.000000000000000000e+00
9.400000000000000022e-02 -0.000000000000000000e+00
9.500000000000000111e-02 -0.000000000000000000e+00
9.600000000000000200e-02 -0.000000000000000000e+00
9.700000000000000289e-02 -0.000000000000000000e+00
9.800000000000000377e-02 -0.000000000000000000e+00
9.900000000000000466e-02 -0.000000000000000000e+00
1.000000000000000056e-01 -0.000000000000000000e+00
1.010000000000000064e-01 -0.000000000000000000e+00
1.020000000000000073e-01 -0.000000000000000000e+00
1.030000000000000082e-01 -0.000000000000000000e+00
1.040000000000000091e-01 -0.000000000000000000e+00
1.050000000000000100e-01 -0.000000000000000000e+00
1.060000000000000109e-01 -0.000000000000000000e+00
1.070000000000000118e-01 -0.000000000000000000e+00
1.080000000000000127e-01 -0.000000000000000000e+00
1.090000000000000135e-01 -0.000000000000000000e+00
1.100000000000000144e-01 -0.000000000000000000e+00
1.110000000000000153e-01 -0.000000000000000000e+00
1.120000000000000162e-01 -0.000000000000000000e+00
1.130000000000000171e-01 -0.000000000000000000e+00
1.140000000000000180e-01 -0.000000000000000000e+00
1.150000000000000189e-01 -0.000000000000000000e+00
1.160000000000000198e-01 -0.000000000000000000e+00
1.170000000000000207e-01 -0.000000000000000000e+00
1.180000000000000215e-01 -0.000000000000000000e+00
1.190000000000000224e-01 -0.000000000000000000e+00
1.199999999999999956e-01 -0.000000000000000000e+00
1.209999999999999964e-01 -0.000000000000000000e+00
1.219999999999999973e-01 -0.000000000000000000e+00
1.229999999999999982e-01 -0.000000000000000000e+00
1.239999999999999991e-01 -0.000000000000000000e+00
1.250000000000000000e-01 -0.000000000000000000e+00
1.260000000000000009e-01 -0.000000000000000000e+00
1.270000000000000018e-01 -0.000000000000000000e+00
1.280000000000000027e-01 -0.000000000000000000e+00
1.290000000000000036e-01 -0.000000000000000000e+00
1.300000000000000044e-01 -0.000000000000000000e+00
1.310000000000000053e-01 -0.000000000000000000e+00
1.320000000000000062e-01 -0.000000000000000000e+00
1.330000000000000071e-01 -0.000000000000000000e+00
1.340000000000000080e-01 -0.000000000000000000e+00
1.350000000000000089e-01 -0.000000000000000000e+00
1.360000000000000098e-01 -0.000000000000000000e+00
1.370000000000000107e-01 1.401298464324817071e-45
1.380000000000000115e-01 5.605193857299268284e-45
1.390000000000000124e-01 7.987401246651457304e-44
1.400000000000000133e-01 3.186552707874634019e-42
1.410000000000000142e-01 1.587615108141444749e-40
1.420000000000000151e-01 8.618100462071699621e-39
1.430000000000000160e-01 4.389589636065164380e-37
1.440000000000000169e-01 1.928618887714741836e-35
1.450000000000000178e-01 6.933961995592353716e-34
1.460000000000000187e-01 1.905607998050220147e-32
1.470000000000000195e-01 3.359980390243509774e-31
1.480000000000000204e-01 4.690963491419685527e-31
1.490000000000000213e-01 -1.908415537472978330e-28
1.500000000000000222e-01 -6.411947719297892503e-27
1.510000000000000231e-01 -9.394031760688635933e-26
1.520000000000000240e-01 1.292785251476194147e-25
1.530000000000000249e-01 3.062211621483958809e-23
1.540000000000000258e-01 4.564599108743548323e-22
1.550000000000000266e-01 -3.518296413220662946e-22
1.560000000000000275e-01 -8.023031556304953675e-20
1.570000000000000284e-01 -5.962301311669972420e-19
1.580000000000000293e-01 5.297555810365207896e-18
1.590000000000000302e-01 7.678957177835151263e-17
1.600000000000000311e-01 -1.468966888775770363e-16
1.610000000000000320e-01 -4.626134815933352629e-15
1.620000000000000329e-01 2.101834331580398896e-15
1.630000000000000338e-01 1.589613857211347181e-13
1.640000000000000346e-01 -1.070914190659522092e-13
1.650000000000000355e-01 -3.009731353031952494e-12
1.660000000000000364e-01 4.516415019750752435e-12
1.670000000000000373e-01 2.471117754865304050e-11
1.680000000000000382e-01 -5.979225448093927753e-11
1.689999999999999836e-01 -3.260969272389502294e-11
1.699999999999999845e-01 1.682815553571970213e-10
1.709999999999999853e-01 -1.187359099930063167e-10
1.719999999999999862e-01 1.080975586820187573e-10
1.729999999999999871e-01 -1.614003930505703011e-10
1.739999999999999880e-01 1.230022195208846369e-10
1.749999999999999889e-01 -1.817430650419282756e-10
1.759999999999999898e-01 1.374022978728461908e-10
1.769999999999999907e-01 -9.448608562223625995e-11
1.779999999999999916e-01 -2.472039239975742930e-11
1.789999999999999925e-01 1.497816315421118816e-10
1.799999999999999933e-01 -1.956007578129970170e-10
1.809999999999999942e-01 1.165651186685323637e-10
1.819999999999999951e-01 8.384226646285242168e-11
1.829999999999999960e-01 -2.108555829938296711e-10
1.839999999999999969e-01 1.438234947803707087e-10
1.849999999999999978e-01 9.399758749140119107e-11
1.859999999999999987e-01 -2.321129954907519277e-10
1.869999999999999996e-01 8.291792252812513198e-11
1.880000000000000004e-01 1.717861408678800217e-10
1.890000000000000013e-01 -2.149178057742062720e-10
1.900000000000000022e-01 -6.818756670412540188e-11
1.910000000000000031e-01 2.334429594075260184e-10
1.920000000000000040e-01 -7.296957482694210739e-11
1.930000000000000049e-01 -2.306421720277285203e-10
1.940000000000000058e-01 1.450132236513468342e-10
1.950000000000000067e-01 1.569736840512092613e-10
1.960000000000000075e-01 -2.198397713870647863e-10
1.970000000000000084e-01 -1.027631313377241895e-10
1.980000000000000093e-01 2.642606689029491918e-10
1.990000000000000102e-01 1.252075942925756635e-10
2.000000000000000111e-01 -4.564915112581502399e-11
2.010000000000000120e-01 3.810918247637573586e-10
2.020000000000000129e-01 7.287528358546069285e-10
2.030000000000000138e-01 3.581153151799298939e-10
2.040000000000000147e-01 -5.028111260685363959e-11
2.050000000000000155e-01 1.586659692520697718e-10
2.060000000000000164e-01 4.611522275155266470e-10
2.070000000000000173e-01 2.630327067265625374e-10
2.080000000000000182e-01 -2.889399830507954903e-11
2.090000000000000191e-01 1.909161717605911690e-10
2.100000000000000200e-01 4.190314206731216018e-10
2.110000000000000209e-01 -8.269029905250135926e-11
2.120000000000000218e-01 -3.463505038325820351e-10
2.130000000000000226e-01 1.267338456401034819e-10
2.140000000000000235e-01 -2.826988643178651728e-11
2.150000000000000244e-01 -3.399025505501640509e-10
2.160000000000000253e-01 -3.285535177255383132e-10
2.170000000000000262e-01 -6.552425269035211386e-12
2.180000000000000271e-01 2.484562555693514696e-10
2.190000000000000280e-01 -1.482675648922793243e-10
2.200000000000000289e-01 1.223632306590616281e-11
2.210000000000000298e-01 2.645363927911148494e-10
2.220000000000000306e-01 3.666336123586688700e-10
2.230000000000000315e-01 -8.502487602868313843e-11
2.240000000000000324e-01 -2.829027012651863515e-10
2.250000000000000333e-01 8.723777256136600045e-11
2.260000000000000342e-01 -1.580274799906078442e-11
2.270000000000000351e-01 -2.652715824780216280e-10
2.280000000000000360e-01 -1.778998615087346025e-10
2.290000000000000369e-01 1.583539965821501028e-10
2.300000000000000377e-01 2.966836776252534946e-10
2.310000000000000386e-01 6.053868517597038590e-11
2.319999999999999840e-01 -7.266331980559925796e-11
2.329999999999999849e-01 1.082409717412247119e-10
2.339999999999999858e-01 1.030882046393344353e-10
2.349999999999999867e-01 -2.193907278069673339e-10
2.359999999999999876e-01 -2.677884580748468579e-10
2.369999999999999885e-01 1.556266226998559432e-10
2.379999999999999893e-01 3.737703480055643013e-10
2.389999999999999902e-01 1.014397454923710029e-10
2.399999999999999911e-01 -1.035136421023707953e-10
2.409999999999999920e-01 1.012718797710476792e-10
2.419999999999999929e-01 2.026254719567077700e-10
2.429999999999999938e-01 -6.479261571712413570e-11
2.439999999999999947e-01 -1.416360362327395706e-10
2.449999999999999956e-01 2.602007498353486881e-10
2.459999999999999964e-01 5.558575821851263754e-10
2.469999999999999973e-01 2.985842684211093001e-10
2.479999999999999982e-01 2.079048044834053144e-11
2.489999999999999991e-01 2.150812861145823263e-10
2.500000000000000000e-01 5.011244752495258581e-10
2.510000000000000009e-01 4.228368766234780196e-10
2.520000000000000018e-01 3.655458158391411416e-10
2.530000000000000027e-01 7.189129291873541661e-10
2.540000000000000036e-01 1.036511321217403747e-09
2.550000000000000044e-01 8.740528301132144406e-10
2.560000000000000053e-01 7.010783065197756514e-10
2.570000000000000062e-01 1.053052756105898879e-09
2.580000000000000071e-01 1.581241804160526954e-09
2.590000000000000080e-01 1.730569465507869609e-09
2.600000000000000089e-01 1.759133283485425636e-09
2.610000000000000098e-01 2.130093434971058741e-09
2.620000000000000107e-01 2.618207872728817165e-09
2.630000000000000115e-01 2.801129994622897357e-09
2.640000000000000124e-01 3.000877768499776721e-09
2.650000000000000133e-01 3.738136911124456674e-09
2.660000000000000142e-01 4.616254045686218888e-09
2.670000000000000151e-01 5.023935045755933970e-09
2.680000000000000160e-01 5.280980985844507813e-09
2.690000000000000169e-01 6.079744707676582038e-09
2.700000000000000178e-01 7.233893484226427972e-09
2.710000000000000187e-01 8.137021723086945713e-09
2.720000000000000195e-01 8.896449799067340791e-09
2.730000000000000204e-01 1.001581040327437222e-08
2.740000000000000213e-01 1.141984284913633019e-08
2.750000000000000222e-01 1.259377313544973731e-08
2.760000000000000231e-01 1.375565261696465313e-08
2.770000000000000240e-01 1.539956429041922092e-08
2.780000000000000249e-01 1.740136212902143598e-08
2.790000000000000258e-01 1.901662471937015653e-08
2.800000000000000266e-01 2.042497726506553590e-08
2.810000000000000275e-01 2.242995833512395620e-08
2.820000000000000284e-01 2.489196049282327294e-08
2.830000000000000293e-01 2.710748958634212613e-08
2.840000000000000302e-01 2.916112862294539809e-08
2.850000000000000311e-01 3.157765604555606842e-08
2.860000000000000320e-01 3.417335392441600561e-08
2.870000000000000329e-01 3.663171810330823064e-08
2.880000000000000338e-01 3.905552148353308439e-08
2.890000000000000346e-01 4.170215106569230556e-08
2.900000000000000355e-01 4.464709491003304720e-08
2.910000000000000364e-01 4.731555236503481865e-08
2.920000000000000373e-01 4.962384991813451052e-08
2.930000000000000382e-01 5.227775545790791512e-08
2.940000000000000391e-01 5.508809408638626337e-08
2.950000000000000400e-01 5.748552212025970221e-08
2.960000000000000409e-01 5.908987077418714762e-08
2.969999999999999862e-01 6.067057256586849689e-08
2.979999999999999871e-01 6.255504558794200420e-08
2.989999999999999880e-01 6.400659913197159767e-08
2.999999999999999889e-01 6.483969627879559994e-08
3.009999999999999898e-01 6.490154191851615906e-08
3.019999999999999907e-01 6.517439032904803753e-08
3.029999999999999916e-01 6.423215381801128387e-08
3.039999999999999925e-01 6.303889676928520203e-08
3.049999999999999933e-01 6.136906449683010578e-08
3.059999999999999942e-01 6.008121999911963940e-08
3.069999999999999951e-01 5.759648047387599945e-08
3.079999999999999960e-01 5.360925570130348206e-08
3.089999999999999969e-01 5.043693818151950836e-08
3.099999999999999978e-01 4.632238415069878101e-08
3.109999999999999987e-01 4.052344593219459057e-08
3.119999999999999996e-01 3.270542947575449944e-08
3.130000000000000004e-01 2.625165507197380066e-08
3.140000000000000013e-01 1.936496119014918804e-08
3.150000000000000022e-01 1.044827513396739960e-08
3.160000000000000031e-01 1.105945557355880737e-09
3.170000000000000040e-01 -8.207280188798904419e-09
3.180000000000000049e-01 -1.798616722226142883e-08
3.190000000000000058e-01 -2.823071554303169250e-08
3.200000000000000067e-01 -3.944660420529544353e-08
3.210000000000000075e-01 -5.124275048729032278e-08
3.220000000000000084e-01 -6.185564416227862239e-08
3.230000000000000093e-01 -7.242988431244157255e-08
3.240000000000000102e-01 -8.360561309928016271e-08
3.250000000000000111e-01 -9.431596481590531766e-08
3.260000000000000120e-01 -1.045409590005874634e-07
3.270000000000000129e-01 -1.147072907770052552e-07
3.280000000000000138e-01 -1.249718479812145233e-07
3.290000000000000147e-01 -1.333064574282616377e-07
3.300000000000000155e-01 -1.414337020833045244e-07
3.310000000000000164e-01 -1.493899617344141006e-07
3.320000000000000173e-01 -1.561711542308330536e-07
3.330000000000000182e-01 -1.626249286346137524e-07
3.340000000000000191e-01 -1.681037247180938721e-07
3.350000000000000200e-01 -1.711159711703658104e-07
3.360000000000000209e-01 -1.735097612254321575e-07
3.370000000000000218e-01 -1.740336301736533642e-07
3.380000000000000226e-01 -1.732842065393924713e-07
3.390000000000000235e-01 -1.712833181954920292e-07
3.400000000000000244e-01 -1.679145498201251030e-07
3.410000000000000253e-01 -1.630760380066931248e-07
3.420000000000000262e-01 -1.563312252983450890e-07
3.430000000000000271e-01 -1.490188878960907459e-07
3.440000000000000280e-01 -1.403022906742990017e-07
3.450000000000000289e-01 -1.298685674555599689e-07
3.460000000000000298e-01 -1.184816937893629074e-07
3.470000000000000306e-01 -1.063963281922042370e-07
3.480000000000000315e-01 -9.297946235164999962e-08
3.490000000000000324e-01 -7.962080417200922966e-08
3.500000000000000333e-01 -6.494519766420125961e-08
3.510000000000000342e-01 -4.997127689421176910e-08
3.520000000000000351e-01 -3.350578481331467628e-08
3.530000000000000360e-01 -1.763692125678062439e-08
3.540000000000000369e-01 -2.248270902782678604e-09
3.550000000000000377e-01 1.214357325807213783e-08
3.560000000000000386e-01 2.605520421639084816e-08
3.570000000000000395e-01 4.002504283562302589e-08
3.580000000000000404e-01 5.250331014394760132e-08
3.590000000000000413e-01 6.406480679288506508e-08
3.599999999999999867e-01 7.679409463889896870e-08
3.609999999999999876e-01 8.905772119760513306e-08
3.619999999999999885e-01 9.891482477542012930e-08
3.629999999999999893e-01 1.078788045560941100e-07
3.639999999999999902e-01 1.158914528787136078e-07
3.649999999999999911e-01 1.224882453243480995e-07
3.659999999999999920e-01 1.293183231609873474e-07
3.669999999999999929e-01 1.331982275587506592e-07
3.679999999999999938e-01 1.344396878266707063e-07
3.689999999999999947e-01 1.337812136625871062e-07
3.699999999999999956e-01 1.338594302069395781e-07
3.709999999999999964e-01 1.325388438999652863e-07
3.719999999999999973e-01 1.307744241785258055e-07
3.729999999999999982e-01 1.280350261367857456e-07
3.739999999999999991e-01 1.223306753672659397e-07
3.750000000000000000e-01 1.177904778160154819e-07
3.760000000000000009e-01 1.117368810810148716e-07
3.770000000000000018e-01 1.062508090399205685e-07
3.780000000000000027e-01 9.880022844299674034e-08
3.790000000000000036e-01 9.134964784607291222e-08
3.800000000000000044e-01 8.467759471386671066e-08
3.810000000000000053e-01 7.750350050628185272e-08
3.820000000000000062e-01 6.989284884184598923e-08
3.830000000000000071e-01 6.250047590583562851e-08
3.840000000000000080e-01 5.481706466525793076e-08
3.850000000000000089e-01 4.741013981401920319e-08
3.860000000000000098e-01 4.062167135998606682e-08
3.870000000000000107e-01 3.328023012727499008e-08
3.880000000000000115e-01 2.622255124151706696e-08
3.890000000000000124e-01 2.024171408265829086e-08
3.900000000000000133e-01 1.386069925501942635e-08
3.910000000000000142e-01 7.752532837912440300e-09
3.920000000000000151e-01 2.484739525243639946e-09
3.930000000000000160e-01 -1.491571310907602310e-09
3.940000000000000169e-01 -5.653419066220521927e-09
3.950000000000000178e-01 -9.400537237524986267e-09
3.960000000000000187e-01 -1.249645720236003399e-08
3.970000000000000195e-01 -1.445005182176828384e-08
3.980000000000000204e-01 -1.642183633521199226e-08
3.990000000000000213e-01 -1.836633600760251284e-08
4.000000000000000222e-01 -1.944681571330875158e-08
4.010000000000000231e-01 -1.969237928278744221e-08
4.020000000000000240e-01 -2.015440259128808975e-08
4.030000000000000249e-01 -2.067827153950929642e-08
4.040000000000000258e-01 -2.098386175930500031e-08
4.050000000000000266e-01 -2.027536538662388921e-08
4.060000000000000275e-01 -1.981516106752678752e-08
4.070000000000000284e-01 -1.913576852530241013e-08
4.080000000000000293e-01 -1.773423718987032771e-08
4.090000000000000302e-01 -1.630769475013948977e-08
4.100000000000000311e-01 -1.539109462100896053e-08
4.110000000000000320e-01 -1.424632500857114792e-08
4.120000000000000329e-01 -1.262628757103811949e-08
4.130000000000000338e-01 -1.108855940401554108e-08
4.140000000000000346e-01 -1.006037564366124570e-08
4.150000000000000355e-01 -9.187260729959234595e-09
4.160000000000000364e-01 -7.426478987326845527e-09
4.170000000000000373e-01 -5.733454599976539612e-09
4.180000000000000382e-01 -4.676167009165510535e-09
4.190000000000000391e-01 -3.788045432884246111e-09
4.200000000000000400e-01 -2.517481334507465363e-09
4.210000000000000409e-01 -1.062289811670780182e-09
4.220000000000000417e-01 -3.637978807091712952e-10
4.230000000000000426e-01 6.839400157332420349e-10
4.240000000000000435e-01 1.983607944566756487e-09
4.250000000000000444e-01 2.488377504050731659e-09
4.260000000000000453e-01 2.556589606683701277e-09
4.270000000000000462e-01 3.380591806489974260e-09
4.280000000000000471e-01 3.948116500396281481e-09
4.290000000000000480e-01 4.615685611497610807e-09
4.300000000000000488e-01 4.979483492206782103e-09
4.310000000000000497e-01 5.379206413635984063e-09
4.320000000000000506e-01 5.910351319471374154e-09
4.330000000000000515e-01 6.405116437235847116e-09
4.340000000000000524e-01 6.332811608444899321e-09
4.350000000000000533e-01 6.490154191851615906e-09
4.360000000000000542e-01 6.853952072560787201e-09
4.370000000000000551e-01 6.900336302351206541e-09
4.380000000000000560e-01 7.033577276160940528e-09
4.390000000000000568e-01 7.518337952205911279e-09
4.400000000000000577e-01 7.548806024715304375e-09
4.410000000000000586e-01 7.530616130679845810e-09
4.420000000000000595e-01 7.430116966133937240e-09
4.430000000000000604e-01 7.513790478697046638e-09
4.440000000000000613e-01 7.678409019717946649e-09
4.450000000000000622e-01 7.434891813318245113e-09
4.460000000000000631e-01 7.245716915349476039e-09
4.470000000000000639e-01 7.481958164134994149e-09
4.480000000000000648e-01 7.647031452506780624e-09
4.490000000000000657e-01 7.387370715150609612e-09
4.500000000000000666e-01 7.092694431776180863e-09
4.510000000000000675e-01 7.280732461367733777e-09
4.520000000000000684e-01 7.168182492023333907e-09
4.530000000000000693e-01 7.322114470298402011e-09
4.540000000000000702e-01 6.789605322410352528e-09
4.550000000000000711e-01 7.302560334210284054e-09
4.560000000000000719e-01 6.692744136671535671e-09
4.569999999999999618e-01 7.180688044172711670e-09
4.579999999999999627e-01 6.418645170924719423e-09
4.589999999999999636e-01 6.306436262093484402e-09
4.599999999999999645e-01 8.653501026856247336e-09
4.609999999999999654e-01 3.125592229480389506e-09
4.619999999999999662e-01 1.248372427653521299e-08
4.629999999999999671e-01 -1.608555066923145205e-09
4.639999999999999680e-01 1.643400082684820518e-08
4.649999999999999689e-01 -2.813976607285439968e-09
4.659999999999999698e-01 1.274565875064581633e-08
4.669999999999999707e-01 5.700712790712714195e-09
4.679999999999999716e-01 1.939042704179883003e-09
4.689999999999999725e-01 1.558328222017735243e-08