-1.199999999999999956e-01 0.000000000000000000e+00
-1.189999999999999947e-01 0.000000000000000000e+00
-1.179999999999999938e-01 0.000000000000000000e+00
-1.169999999999999929e-01 0.000000000000000000e+00
-1.159999999999999920e-01 0.000000000000000000e+00
-1.149999999999999911e-01 0.000000000000000000e+00
-1.139999999999999902e-01 0.000000000000000000e+00
-1.129999999999999893e-01 0.000000000000000000e+00
-1.119999999999999885e-01 0.000000000000000000e+00
-1.109999999999999876e-01 0.000000000000000000e+00
-1.100000000000000006e-01 0.000000000000000000e+00
-1.089999999999999997e-01 0.000000000000000000e+00
-1.079999999999999988e-01 0.000000000000000000e+00
-1.069999999999999979e-01 0.000000000000000000e+00
-1.059999999999999970e-01 0.000000000000000000e+00
-1.049999999999999961e-01 0.000000000000000000e+00
-1.039999999999999952e-01 0.000000000000000000e+00
-1.029999999999999943e-01 0.000000000000000000e+00
-1.019999999999999934e-01 0.000000000000000000e+00
-1.009999999999999926e-01 0.000000000000000000e+00
-9.999999999999999167e-02 0.000000000000000000e+00
-9.899999999999999079e-02 0.000000000000000000e+00
-9.800000000000000377e-02 0.000000000000000000e+00
-9.700000000000000289e-02 0.000000000000000000e+00
-9.600000000000000200e-02 0.000000000000000000e+00
-9.500000000000000111e-02 0.000000000000000000e+00
-9.400000000000000022e-02 0.000000000000000000e+00
-9.299999999999999933e-02 0.000000000000000000e+00
-9.199999999999999845e-02 0.000000000000000000e+00
-9.099999999999999756e-02 0.000000000000000000e+00
-8.999999999999999667e-02 0.000000000000000000e+00
-8.899999999999999578e-02 0.000000000000000000e+00
-8.799999999999999489e-02 0.000000000000000000e+00
-8.699999999999999400e-02 0.000000000000000000e+00
-8.599999999999999312e-02 0.000000000000000000e+00
-8.499999999999999223e-02 0.000000000000000000e+00
-8.399999999999999134e-02 0.000000000000000000e+00
-8.299999999999999045e-02 0.000000000000000000e+00
-8.199999999999998956e-02 0.000000000000000000e+00
-8.099999999999998868e-02 0.000000000000000000e+00
-7.999999999999998779e-02 0.000000000000000000e+00
-7.899999999999998690e-02 0.000000000000000000e+00
-7.799999999999998601e-02 0.000000000000000000e+00
-7.699999999999998512e-02 0.000000000000000000e+00
-7.599999999999999811e-02 0.000000000000000000e+00
-7.499999999999999722e-02 0.000000000000000000e+00
-7.399999999999999634e-02 0.000000000000000000e+00
-7.299999999999999545e-02 0.000000000000000000e+00
-7.199999999999999456e-02 0.000000000000000000e+00
-7.099999999999999367e-02 0.000000000000000000e+00
-6.999999999999999278e-02 0.000000000000000000e+00
-6.899999999999999190e-02 0.000000000000000000e+00
-6.799999999999999101e-02 0.000000000000000000e+00
-6.700000000000000400e-02 0.000000000000000000e+00
-6.600000000000000311e-02 0.000000000000000000e+00
-6.500000000000000222e-02 0.000000000000000000e+00
-6.400000000000000133e-02 0.000000000000000000e+00
-6.300000000000000044e-02 0.000000000000000000e+00
-6.199999999999999262e-02 0.000000000000000000e+00
-6.099999999999999173e-02 0.000000000000000000e+00
-5.999999999999999778e-02 0.000000000000000000e+00
-5.899999999999999689e-02 0.000000000000000000e+00
-5.799999999999999600e-02 0.000000000000000000e+00
-5.699999999999999512e-02 0.000000000000000000e+00
-5.599999999999999423e-02 0.000000000000000000e+00
-5.499999999999999334e-02 0.000000000000000000e+00
-5.399999999999999245e-02 0.000000000000000000e+00
-5.299999999999999156e-02 0.000000000000000000e+00
-5.199999999999999067e-02 0.000000000000000000e+00
-5.099999999999998979e-02 0.000000000000000000e+00
-4.999999999999998890e-02 0.000000000000000000e+00
-4.899999999999998801e-02 0.000000000000000000e+00
-4.799999999999998712e-02 0.000000000000000000e+00
-4.700000000000000011e-02 0.000000000000000000e+00
-4.599999999999999922e-02 0.000000000000000000e+00
-4.499999999999999833e-02 0.000000000000000000e+00
-4.399999999999999745e-02 0.000000000000000000e+00
-4.299999999999999656e-02 0.000000000000000000e+00
-4.199999999999999567e-02 0.000000000000000000e+00
-4.099999999999999478e-02 0.000000000000000000e+00
-3.999999999999999389e-02 0.000000000000000000e+00
-3.899999999999999301e-02 0.000000000000000000e+00
-3.799999999999999212e-02 0.000000000000000000e+00
-3.699999999999999123e-02 0.000000000000000000e+00
-3.599999999999999034e-02 0.000000000000000000e+00
-3.499999999999998945e-02 0.000000000000000000e+00
-3.399999999999998856e-02 0.000000000000000000e+00
-3.299999999999998768e-02 0.000000000000000000e+00
-3.200000000000000067e-02 0.000000000000000000e+00
-3.099999999999999978e-02 0.000000000000000000e+00
-2.999999999999999889e-02 0.000000000000000000e+00
-2.899999999999999800e-02 0.000000000000000000e+00
-2.799999999999999711e-02 0.000000000000000000e+00
-2.699999999999999623e-02 0.000000000000000000e+00
-2.599999999999999534e-02 0.000000000000000000e+00
-2.499999999999999445e-02 0.000000000000000000e+00
-2.399999999999999356e-02 0.000000000000000000e+00
-2.299999999999999267e-02 0.000000000000000000e+00
-2.199999999999999178e-02 0.000000000000000000e+00
-2.099999999999999090e-02 0.000000000000000000e+00
-1.999999999999999001e-02 0.000000000000000000e+00
-1.899999999999998912e-02 0.000000000000000000e+00
-1.799999999999998823e-02 0.000000000000000000e+00
-1.699999999999998734e-02 0.000000000000000000e+00
-1.599999999999998646e-02 0.000000000000000000e+00
-1.499999999999999944e-02 0.000000000000000000e+00
-1.399999999999999856e-02 0.000000000000000000e+00
-1.299999999999999767e-02 0.000000000000000000e+00
-1.199999999999999678e-02 0.000000000000000000e+00
-1.099999999999999589e-02 0.000000000000000000e+00
-9.999999999999995004e-03 0.000000000000000000e+00
-8.999999999999994116e-03 0.000000000000000000e+00
-7.999999999999993228e-03 0.000000000000000000e+00
-6.999999999999992339e-03 0.000000000000000000e+00
-5.999999999999991451e-03 0.000000000000000000e+00
-4.999999999999990563e-03 0.000000000000000000e+00
-3.999999999999989675e-03 0.000000000000000000e+00
-2.999999999999988787e-03 0.000000000000000000e+00
-1.999999999999987899e-03 0.000000000000000000e+00
-9.999999999999870104e-04 0.000000000000000000e+00
0.000000000000000000e+00 0.000000000000000000e+00
1.000000000000000888e-03 0.000000000000000000e+00
2.000000000000001776e-03 0.000000000000000000e+00
3.000000000000002665e-03 0.000000000000000000e+00
4.000000000000003553e-03 0.000000000000000000e+00
5.000000000000004441e-03 0.000000000000000000e+00
6.000000000000005329e-03 0.000000000000000000e+00
7.000000000000006217e-03 0.000000000000000000e+00
8.000000000000007105e-03 0.000000000000000000e+00
9.000000000000007994e-03 0.000000000000000000e+00
1.000000000000000888e-02 0.000000000000000000e+00
1.100000000000000977e-02 0.000000000000000000e+00
1.200000000000001066e-02 0.000000000000000000e+00
1.300000000000001155e-02 0.000000000000000000e+00
1.400000000000001243e-02 0.000000000000000000e+00
1.500000000000001332e-02 0.000000000000000000e+00
1.600000000000001421e-02 0.000000000000000000e+00
1.700000000000001510e-02 0.000000000000000000e+00
1.800000000000001599e-02 0.000000000000000000e+00
1.900000000000001688e-02 0.000000000000000000e+00
2.000000000000001776e-02 0.000000000000000000e+00
2.100000000000001865e-02 0.000000000000000000e+00
2.200000000000001954e-02 0.000000000000000000e+00
2.300000000000002043e-02 0.000000000000000000e+00
2.400000000000002132e-02 0.000000000000000000e+00
2.499999999999999445e-02 0.000000000000000000e+00
2.599999999999999534e-02 0.000000000000000000e+00
2.699999999999999623e-02 0.000000000000000000e+00
2.799999999999999711e-02 0.000000000000000000e+00
2.899999999999999800e-02 0.000000000000000000e+00
2.999999999999999889e-02 0.000000000000000000e+00
3.099999999999999978e-02 0.000000000000000000e+00
3.200000000000000067e-02 0.000000000000000000e+00
3.300000000000000155e-02 0.000000000000000000e+00
3.400000000000000244e-02 0.000000000000000000e+00
3.500000000000000333e-02 0.000000000000000000e+00
3.600000000000000422e-02 0.000000000000000000e+00
3.700000000000000511e-02 0.000000000000000000e+00
3.800000000000000600e-02 0.000000000000000000e+00
3.900000000000000688e-02 0.000000000000000000e+00
4.000000000000000777e-02 0.000000000000000000e+00
4.100000000000000866e-02 0.000000000000000000e+00
4.200000000000000955e-02 0.000000000000000000e+00
4.300000000000001044e-02 0.000000000000000000e+00
4.400000000000001132e-02 0.000000000000000000e+00
4.500000000000001221e-02 0.000000000000000000e+00
4.600000000000001310e-02 0.000000000000000000e+00
4.700000000000001399e-02 0.000000000000000000e+00
4.800000000000001488e-02 0.000000000000000000e+00
4.900000000000001577e-02 0.000000000000000000e+00
5.000000000000001665e-02 0.000000000000000000e+00
5.100000000000001754e-02 0.000000000000000000e+00
5.200000000000001843e-02 0.000000000000000000e+00
5.300000000000001932e-02 0.000000000000000000e+00
5.400000000000002021e-02 0.000000000000000000e+00
5.500000000000002109e-02 0.000000000000000000e+00
5.599999999999999423e-02 0.000000000000000000e+00
5.699999999999999512e-02 0.000000000000000000e+00
5.799999999999999600e-02 0.000000000000000000e+00
5.899999999999999689e-02 0.000000000000000000e+00
5.999999999999999778e-02 0.000000000000000000e+00
6.099999999999999867e-02 0.000000000000000000e+00
6.199999999999999956e-02 0.000000000000000000e+00
6.300000000000000044e-02 0.000000000000000000e+00
6.400000000000000133e-02 0.000000000000000000e+00
6.500000000000000222e-02 0.000000000000000000e+00
6.600000000000000311e-02 0.000000000000000000e+00
6.700000000000000400e-02 0.000000000000000000e+00
6.800000000000000488e-02 0.000000000000000000e+00
6.900000000000000577e-02 0.000000000000000000e+00
7.000000000000000666e-02 0.000000000000000000e+00
7.100000000000000755e-02 0.000000000000000000e+00
7.200000000000000844e-02 0.000000000000000000e+00
7.300000000000000933e-02 0.000000000000000000e+00
7.400000000000001021e-02 0.000000000000000000e+00
7.500000000000001110e-02 0.000000000000000000e+00
7.600000000000001199e-02 0.000000000000000000e+00
7.700000000000001288e-02 0.000000000000000000e+00
7.800000000000001377e-02 0.000000000000000000e+00
7.900000000000001465e-02 0.000000000000000000e+00
8.000000000000001554e-02 -0.000000000000000000e+00
8.100000000000001643e-02 -1.401298464324817071e-45
8.200000000000001732e-02 3.643376007244524384e-44
8.300000000000001821e-02 1.280786796392882803e-42
8.400000000000001910e-02 2.198357030832773021e-41
8.500000000000001998e-02 2.468317179984949030e-40
8.600000000000002087e-02 1.497140272792312934e-39
8.700000000000002176e-02 -8.948292623115949242e-39
8.800000000000002265e-02 -4.301494822079780408e-37
8.899999999999999578e-02 -7.866266998627405092e-36
8.999999999999999667e-02 -1.064088595638658172e-34
9.099999999999999756e-02 -1.196290774433753092e-33
9.199999999999999845e-02 -1.166470007222627880e-32
9.299999999999999933e-02 -1.004901203356943362e-31
9.400000000000000022e-02 -7.693395175566801097e-31
9.500000000000000111e-02 -5.207688614707819591e-30
9.600000000000000200e-02 -3.051611621830716558e-29
9.700000000000000289e-02 -1.459678073402505724e-28
9.800000000000000377e-02 -4.611018139428171367e-28
9.900000000000000466e-02 4.811385631569900126e-28
1.000000000000000056e-01 2.250106324486384166e-26
1.010000000000000064e-01 2.194492216151005928e-25
1.020000000000000073e-01 1.427384347606689828e-24
1.030000000000000082e-01 6.087554803043236844e-24
1.040000000000000091e-01 2.549383481077637429e-24
1.050000000000000100e-01 -2.743971248365870757e-22
1.060000000000000109e-01 -3.573321695413912105e-21
1.070000000000000118e-01 -3.175888552946031703e-20
1.080000000000000127e-01 -2.323091255421487808e-19
1.090000000000000135e-01 -1.478816748714898678e-18
1.100000000000000144e-01 -8.379553017760209028e-18
1.110000000000000153e-01 -4.266581055936265686e-17
1.120000000000000162e-01 -1.956642799434983571e-16
1.130000000000000171e-01 -8.059047860443349556e-16
1.140000000000000180e-01 -2.956561302611083672e-15
1.150000000000000189e-01 -9.502361191741220958e-15
1.160000000000000198e-01 -2.587598748281499245e-14
1.170000000000000207e-01 -5.502615371818717072e-14
1.180000000000000215e-01 -6.573212162292244032e-14
1.190000000000000224e-01 1.164997596005482028e-13
1.199999999999999956e-01 1.069164830454216730e-12
1.209999999999999964e-01 4.166121440885017790e-12
1.219999999999999973e-01 1.167770047327820748e-11
1.229999999999999982e-01 2.536114721007898254e-11
1.239999999999999991e-01 4.199749922828566184e-11
1.250000000000000000e-01 4.681261975281181265e-11
1.260000000000000009e-01 1.272365632992711326e-11
1.270000000000000018e-01 -8.092135989068438562e-11
1.280000000000000027e-01 -2.093061973740262260e-10
1.290000000000000036e-01 -2.822633238253047239e-10
1.300000000000000044e-01 -2.071517957169533020e-10
1.310000000000000053e-01 -2.013506028575307027e-11
1.320000000000000062e-01 8.491123776321884975e-11
1.330000000000000071e-01 -2.347616372133654039e-11
1.340000000000000080e-01 -1.736243093741762777e-10
1.350000000000000089e-01 -8.705200449377059613e-11
1.360000000000000098e-01 1.389968140586006484e-10
1.370000000000000107e-01 1.290517137597646524e-10
1.380000000000000115e-01 -6.687096709701023656e-11
1.390000000000000124e-01 -1.705129960838380754e-11
1.400000000000000133e-01 1.756459699908674565e-10
1.410000000000000142e-01 4.140698200982839694e-11
1.420000000000000151e-01 -1.571942992439900877e-10
1.430000000000000160e-01 9.293217237416051546e-12
1.440000000000000169e-01 6.711958072669332864e-11
1.450000000000000178e-01 -1.552959288941835325e-10
1.460000000000000187e-01 -3.043913732181380283e-11
1.470000000000000195e-01 1.542264788101377349e-10
1.480000000000000204e-01 -5.944061909346487482e-11
1.490000000000000213e-01 -4.052772874241217238e-12
1.500000000000000222e-01 1.492448248319178106e-10
1.510000000000000231e-01 -1.173583591418392302e-10
1.520000000000000240e-01 -4.983458784524330554e-11
1.530000000000000249e-01 8.765276698907698005e-11
1.540000000000000258e-01 -1.381940117894941977e-10
1.550000000000000266e-01 6.350281411826586009e-11
1.560000000000000275e-01 9.762646940858488165e-11
1.570000000000000284e-01 -1.082562720022828273e-10
1.580000000000000293e-01 1.168684454766477643e-10
1.590000000000000302e-01 -6.601862112542988825e-11
1.600000000000000311e-01 -8.382251837080190171e-11
1.610000000000000320e-01 1.127312895810028692e-10
1.620000000000000329e-01 -1.149808095957105536e-10
1.630000000000000338e-01 1.140835967361475412e-10
1.640000000000000346e-01 6.471522970286081033e-12
1.650000000000000355e-01 -7.891113457114684593e-11
1.660000000000000364e-01 9.459156374846955373e-11
1.670000000000000373e-01 -1.507670099876179393e-10
1.680000000000000382e-01 1.129155449697272218e-10
1.689999999999999836e-01 -2.922933076132672170e-11
1.699999999999999845e-01 6.817549129400912733e-12
1.709999999999999853e-01 6.672239150073977498e-11
1.719999999999999862e-01 -1.397736509867186783e-10
1.729999999999999871e-01 1.256681564365536019e-10
1.739999999999999880e-01 -1.471525262752848562e-10
1.749999999999999889e-01 1.629096857413969701e-10
1.759999999999999898e-01 -9.167286374456296016e-11
1.769999999999999907e-01 3.589976926843263527e-11
1.779999999999999916e-01 2.981674629420894007e-11
1.789999999999999925e-01 -1.181587605536549290e-10
1.799999999999999933e-01 8.800624118343591817e-11
1.809999999999999942e-01 -5.037612688107984127e-11
1.819999999999999951e-01 1.634390539573260526e-10
1.829999999999999960e-01 -1.780144920360271499e-10
1.839999999999999969e-01 5.857950235998998778e-11
1.849999999999999978e-01 -1.031638732773565437e-10
1.859999999999999987e-01 1.591850401494454559e-10
1.869999999999999996e-01 -4.093966832208195683e-11
1.880000000000000004e-01 1.488471325361562236e-11
1.890000000000000013e-01 -9.498878072999872302e-11
1.900000000000000022e-01 1.987533401748287076e-11
1.910000000000000031e-01 6.345553249520463623e-11
1.920000000000000040e-01 2.435921256371820220e-11
1.930000000000000049e-01 -4.924395960448357812e-12
1.940000000000000058e-01 -1.022879836387602381e-10
1.950000000000000067e-01 4.382266424740599575e-11
1.960000000000000075e-01 -2.051702557848145148e-12
1.970000000000000084e-01 1.101893992716540538e-10
1.980000000000000093e-01 -8.798821393707356719e-11
1.990000000000000102e-01 2.158839079724472754e-11
2.000000000000000111e-01 -8.197189454994813218e-11
2.010000000000000120e-01 1.160706114555765112e-10
2.020000000000000129e-01 -4.444752205179369753e-11
2.030000000000000138e-01 4.502366535152901861e-11
2.040000000000000147e-01 -1.091031362476790889e-10
2.050000000000000155e-01 7.235561455543049192e-11
2.060000000000000164e-01 -2.656688237456794610e-12
2.070000000000000173e-01 8.892332703513972092e-11
2.080000000000000182e-01 -6.715753647634770118e-11
2.090000000000000191e-01 -7.119013711864852212e-12
2.100000000000000200e-01 -9.598294381518712726e-12
2.110000000000000209e-01 5.735464186917837992e-11
2.120000000000000218e-01 1.860438192391455914e-11
2.130000000000000226e-01 -6.043593403504132766e-11
2.140000000000000235e-01 -6.646128092313574598e-12
2.150000000000000244e-01 -4.264437414303046125e-11
2.160000000000000253e-01 1.192109744252434211e-10
2.170000000000000262e-01 -6.083206161022758351e-11
2.180000000000000271e-01 5.968320282434547153e-11
2.190000000000000280e-01 -1.447531539078283913e-10
2.200000000000000289e-01 1.497045820642028957e-10
2.210000000000000298e-01 -4.298011946346491641e-11
2.220000000000000306e-01 1.530280346884183018e-10
2.230000000000000315e-01 -1.420477069302705786e-10
2.240000000000000324e-01 8.336142887088726638e-11
2.250000000000000333e-01 -1.229127910562510806e-11
2.260000000000000342e-01 1.433584362331430384e-10
2.270000000000000351e-01 1.428968054995038983e-11
2.280000000000000360e-01 -1.549382844245883462e-11
2.290000000000000369e-01 4.355316107762519096e-11
2.300000000000000377e-01 1.999778120875816967e-11
2.310000000000000386e-01 1.904028046340044966e-10
2.319999999999999840e-01 -6.538991570437246992e-11
2.329999999999999849e-01 9.461853522907404113e-11
2.339999999999999858e-01 -9.534595335480844369e-11
2.349999999999999867e-01 1.896576229398760916e-10
2.359999999999999876e-01 1.416999850789579796e-11
2.369999999999999885e-01 6.206191116575610067e-11
2.379999999999999893e-01 -2.686872946355833847e-11
2.389999999999999902e-01 -3.581135388230904937e-11
2.399999999999999911e-01 1.561666351790336194e-10
2.409999999999999920e-01 -1.493472012725760578e-11
2.419999999999999929e-01 1.244009339984586404e-10
2.429999999999999938e-01 -1.522861836633637722e-10
2.439999999999999947e-01 8.300826692675400409e-11
2.449999999999999956e-01 6.715517031352646882e-12
2.459999999999999964e-01 6.807354679949639831e-11
2.469999999999999973e-01 -3.975486606577760540e-12
2.479999999999999982e-01 -9.714540283312089741e-11
2.489999999999999991e-01 1.004689664796387660e-10
2.500000000000000000e-01 -3.926281522126373602e-11
2.510000000000000009e-01 1.838227348116561188e-10
2.520000000000000018e-01 -1.174296215822323575e-10
2.530000000000000027e-01 -5.039524353378510568e-11
2.540000000000000036e-01 9.325873406851314940e-13
2.550000000000000044e-01 2.927613707015552791e-11
2.560000000000000053e-01 1.422559847696902580e-10
2.570000000000000062e-01 -9.003819911868049530e-11
2.580000000000000071e-01 2.267874776862299768e-11
2.590000000000000080e-01 -1.623057244160008850e-10
2.600000000000000089e-01 5.863043384124466684e-11
2.610000000000000098e-01 4.234834705130197108e-12
2.620000000000000107e-01 -2.215934102878236445e-10
2.630000000000000115e-01 -2.496136630725231953e-11
2.640000000000000124e-01 -1.855120501659257570e-10
2.650000000000000133e-01 7.291589554370148107e-11
2.660000000000000142e-01 -1.056950083011543029e-10
2.670000000000000151e-01 -1.400515259319945471e-10
2.680000000000000160e-01 -1.624744783157439088e-10
2.690000000000000169e-01 -2.036468771393629140e-10
2.700000000000000178e-01 1.600390930889261654e-10
2.710000000000000187e-01 -2.500044615771912504e-11
2.720000000000000195e-01 -1.236930557979576406e-10
2.730000000000000204e-01 -1.485904732589915511e-10
2.740000000000000213e-01 -1.343991584690229502e-10
2.750000000000000222e-01 1.281907913153190748e-11
2.760000000000000231e-01 -1.644870906147843925e-10
2.770000000000000240e-01 -9.246048371380766184e-11
2.780000000000000249e-01 -8.663342265791129648e-11
2.790000000000000258e-01 -2.886135774815556942e-12
2.800000000000000266e-01 1.251532211199446465e-10
2.810000000000000275e-01 -5.741362940625549527e-11
2.820000000000000284e-01 -2.579270130809163675e-12
2.830000000000000293e-01 -3.284128524683183059e-11
2.840000000000000302e-01 1.084625722569398931e-10
2.850000000000000311e-01 3.676774440464214422e-10
2.860000000000000320e-01 2.147402256014174782e-10
2.870000000000000329e-01 3.799698333750711754e-10
2.880000000000000338e-01 4.621938387572299689e-10
2.890000000000000346e-01 4.786997465089370962e-10
2.900000000000000355e-01 7.050857675494626164e-10
2.910000000000000364e-01 5.102442912630067440e-10
2.920000000000000373e-01 6.279492481553461403e-10
2.930000000000000382e-01 5.246931777946883813e-10
2.940000000000000391e-01 5.278124604046752211e-10
2.950000000000000400e-01 7.775540211696352344e-10
2.960000000000000409e-01 5.787725854133896064e-10
2.969999999999999862e-01 6.224993853720661718e-10
2.979999999999999871e-01 5.222275945016008336e-10
2.989999999999999880e-01 5.517151180356449913e-10
2.999999999999999889e-01 7.982308147802541498e-10
3.009999999999999898e-01 4.890452487416041549e-10
3.019999999999999907e-01 6.127436336100799963e-10
3.029999999999999916e-01 5.609805953099566977e-10
3.039999999999999925e-01 5.450075946100696456e-10
3.049999999999999933e-01 7.120704026419844013e-10
3.059999999999999942e-01 4.222258098707243335e-10
3.069999999999999951e-01 4.873967895946407225e-10
3.079999999999999960e-01 4.937739106480876217e-10
3.089999999999999969e-01 3.670237447295221500e-10
3.099999999999999978e-01 5.146709725067921681e-10
3.109999999999999987e-01 2.263540466174163157e-10
3.119999999999999996e-01 4.244427032062958460e-11
3.130000000000000004e-01 2.570210710928222397e-10
3.140000000000000013e-01 1.126547743979244842e-10
3.150000000000000022e-01 1.815880779076906038e-10
3.160000000000000031e-01 2.399414000819888315e-11
3.170000000000000040e-01 -2.152966693813596066e-10
3.180000000000000049e-01 -1.176651276413309688e-10
3.190000000000000058e-01 -3.131943593359665101e-10
3.200000000000000067e-01 -3.779767610012640944e-10
3.210000000000000075e-01 -3.655440394823017414e-10
3.220000000000000084e-01 -6.508749095246457728e-10
3.230000000000000093e-01 -4.670877018497776589e-10
3.240000000000000102e-01 -4.772910955352926976e-10
3.250000000000000111e-01 -6.362235183132725069e-10
3.260000000000000120e-01 -6.325073798052471830e-10
3.270000000000000129e-01 -8.128537842821970116e-10
3.280000000000000138e-01 -6.441212008212460205e-10
3.290000000000000147e-01 -5.073381714737479342e-10
3.300000000000000155e-01 -6.473790392647060798e-10
3.310000000000000164e-01 -4.341593751178152161e-10
3.320000000000000173e-01 -5.459170893118425738e-10
3.330000000000000182e-01 -5.705942385247908533e-10
3.340000000000000191e-01 -3.697167016980529297e-10
3.350000000000000200e-01 -5.625118149055197136e-10
3.360000000000000209e-01 -5.058460317286517238e-10
3.370000000000000218e-01 -5.225686550147656817e-10
3.380000000000000226e-01 -5.256559632016433170e-10
3.390000000000000235e-01 -3.283915361862455029e-10
3.400000000000000244e-01 -4.900471139990258962e-10
3.410000000000000253e-01 -5.759659416071372107e-10
3.420000000000000262e-01 -3.939177872780419420e-10
3.430000000000000271e-01 -4.212097337585873902e-10
3.440000000000000280e-01 -3.277520477240614127e-10
3.450000000000000289e-01 -2.639417573391256155e-10
3.460000000000000298e-01 -4.633449179891613312e-10
3.470000000000000306e-01 -2.419966449451749213e-10
3.480000000000000315e-01 -1.243503078285357333e-10
3.490000000000000324e-01 -1.797797466451811488e-10
3.500000000000000333e-01 3.061018105654511601e-11
3.510000000000000342e-01 -1.884714606603665743e-10
3.520000000000000351e-01 -2.570708090843254467e-10
3.530000000000000360e-01 7.918199429468586459e-11
3.540000000000000369e-01 -8.680434149255233933e-11
3.550000000000000377e-01 -6.149480924477757071e-11
3.560000000000000386e-01 -1.966693474741987302e-11
3.570000000000000395e-01 -1.749977940335156745e-10
3.580000000000000404e-01 3.408384685599230579e-11
3.590000000000000413e-01 3.563105366310992395e-11
3.599999999999999867e-01 -9.716027982165087451e-11
3.609999999999999876e-01 -8.512202054333783963e-11
3.619999999999999885e-01 -1.287374373770688862e-10
3.629999999999999893e-01 -1.294087614844841028e-10
3.639999999999999902e-01 1.007445238343507299e-10
3.649999999999999911e-01 -1.348396949651942123e-10
3.659999999999999920e-01 -1.893460943591662726e-10
3.669999999999999929e-01 -3.652789182240212540e-11
3.679999999999999938e-01 -1.297382201670416180e-10
3.689999999999999947e-01 1.609068434049731877e-11
3.699999999999999956e-01 -1.967714879924642446e-11
3.709999999999999964e-01 -2.882427629913308920e-10
3.719999999999999973e-01 -4.931033359412140271e-11
3.729999999999999982e-01 -6.942135755139133835e-11
3.739999999999999991e-01 -1.609281596870459907e-10
3.750000000000000000e-01 -9.070832973634423979e-11
3.760000000000000009e-01 -2.853171032768386794e-10
3.770000000000000018e-01 -2.510098795482917922e-10
3.780000000000000027e-01 -1.031490448610838939e-10
3.790000000000000036e-01 -1.532836080286870128e-10
3.800000000000000044e-01 -2.776676666371713509e-10
3.810000000000000053e-01 -1.637796565034932428e-10
3.820000000000000062e-01 -2.448872216120889789e-10
3.830000000000000071e-01 -1.064175414455803548e-10
3.840000000000000080e-01 2.691180611691379454e-11
3.850000000000000089e-01 -3.220104183299099532e-10
3.860000000000000098e-01 -2.175715163588165524e-10
3.870000000000000107e-01 -5.317346563060709741e-11
3.880000000000000115e-01 -3.178648455559596187e-10
3.890000000000000124e-01 -6.026201759823379689e-11
3.900000000000000133e-01 2.619171546314191801e-11
3.910000000000000142e-01 -8.022695840992355443e-10
3.920000000000000151e-01 2.408311328139234320e-10
3.930000000000000160e-01 3.133004966571206751e-11
3.940000000000000169e-01 -1.506402114159755001e-09
3.950000000000000178e-01 1.390618731278436826e-09
3.960000000000000187e-01 -1.415075612243299474e-09
3.970000000000000195e-01 -2.135348786680424382e-09
3.980000000000000204e-01 3.633661371793550643e-09
3.990000000000000213e-01 -5.068108599459719699e-09
4.000000000000000222e-01 -2.463922399442708411e-10
4.010000000000000231e-01 3.910443524546280969e-09
4.020000000000000240e-01 -9.895432029338735447e-09
4.030000000000000249e-01 5.094651811532457941e-09
4.040000000000000258e-01 -8.362768255665287143e-10
4.050000000000000266e-01 -9.361066588553512702e-09
4.060000000000000275e-01 6.907264094024867518e-09
4.070000000000000284e-01 -6.054456491710880073e-09
4.080000000000000293e-01 -3.673768844691949198e-09
4.090000000000000302e-01 4.060467517774668522e-10
4.100000000000000311e-01 -2.388091502325551119e-09
4.110000000000000320e-01 -5.995744345455022994e-09
4.120000000000000329e-01 -4.097344685760617722e-09
4.130000000000000338e-01 5.799734026368241757e-10
4.140000000000000346e-01 -1.360814394502085634e-08
4.150000000000000355e-01 -4.225739758112467825e-09
4.160000000000000364e-01 -8.168598242264124565e-09
4.170000000000000373e-01 -1.263487092728610151e-08
4.180000000000000382e-01 -1.493225454396451823e-08
4.190000000000000391e-01 -1.088676526705967262e-08
4.200000000000000400e-01 -1.688721340542542748e-08
4.210000000000000409e-01 -2.321735337318386883e-08
4.220000000000000417e-01 -1.619207523617660627e-08
4.230000000000000426e-01 -2.415299604763276875e-08
4.240000000000000435e-01 -2.787692210404202342e-08
4.250000000000000444e-01 -3.271406967542134225e-08
4.260000000000000453e-01 -2.937031240435317159e-08
4.270000000000000462e-01 -4.505295692069921643e-08
4.280000000000000471e-01 -4.622074811777565628e-08
4.290000000000000480e-01 -5.185529516893438995e-08
4.300000000000000488e-01 -5.705078365281224251e-08
4.310000000000000497e-01 -7.190237738541327417e-08
4.320000000000000506e-01 -7.112930688890628517e-08
4.330000000000000515e-01 -7.982862371136434376e-08
4.340000000000000524e-01 -9.083578333957120776e-08
4.350000000000000533e-01 -1.018906914396211505e-07
4.360000000000000542e-01 -1.048529156832955778e-07
4.370000000000000551e-01 -1.202161001856438816e-07
4.380000000000000560e-01 -1.344506017630919814e-07
4.390000000000000568e-01 -1.443459041183814406e-07
4.400000000000000577e-01 -1.539883669465780258e-07
4.410000000000000586e-01 -1.725638867355883121e-07
4.420000000000000595e-01 -1.844473445089533925e-07
4.430000000000000604e-01 -1.928783603943884373e-07
4.440000000000000613e-01 -2.053930074907839298e-07
4.450000000000000622e-01 -2.226370270363986492e-07
4.460000000000000631e-01 -2.308297553099691868e-07
4.470000000000000639e-01 -2.403503458481281996e-07
4.480000000000000648e-01 -2.538472472224384546e-07
4.490000000000000657e-01 -2.675915311556309462e-07
4.500000000000000666e-01 -2.698980097193270922e-07
4.510000000000000675e-01 -2.765154931694269180e-07
4.520000000000000684e-01 -2.819870132952928543e-07
4.530000000000000693e-01 -2.834785846062004566e-07
4.540000000000000702e-01 -2.732922439463436604e-07
4.550000000000000711e-01 -2.714295987971127033e-07
4.560000000000000719e-01 -2.620436134748160839e-07
4.569999999999999618e-01 -2.482847776263952255e-07
4.579999999999999627e-01 -2.238448360003530979e-07
4.589999999999999636e-01 -2.071610651910305023e-07
4.599999999999999645e-01 -1.758598955348134041e-07
4.609999999999999654e-01 -1.393927959725260735e-07
4.619999999999999662e-01 -9.158975444734096527e-08
4.629999999999999671e-01 -4.933099262416362762e-08
4.639999999999999680e-01 8.585629984736442566e-09
4.649999999999999689e-01 7.187190931290388107e-08
4.659999999999999698e-01 1.417211024090647697e-07
4.669999999999999707e-01 2.091692294925451279e-07
4.679999999999999716e-01 2.921879058703780174e-07
4.689999999999999725e-01 3.808527253568172455e-07
4.699999999999999734e-01 4.717730917036533356e-07
4.709999999999999742e-01 5.675974534824490547e-07