-1.199999999999999956e-01 -0.000000000000000000e+00
-1.189999999999999947e-01 -0.000000000000000000e+00
-1.179999999999999938e-01 -0.000000000000000000e+00
-1.169999999999999929e-01 -0.000000000000000000e+00
-1.159999999999999920e-01 -0.000000000000000000e+00
-1.149999999999999911e-01 -0.000000000000000000e+00
-1.139999999999999902e-01 -0.000000000000000000e+00
-1.129999999999999893e-01 -0.000000000000000000e+00
-1.119999999999999885e-01 -0.000000000000000000e+00
-1.109999999999999876e-01 -0.000000000000000000e+00
-1.100000000000000006e-01 -0.000000000000000000e+00
-1.089999999999999997e-01 -0.000000000000000000e+00
-1.079999999999999988e-01 -0.000000000000000000e+00
-1.069999999999999979e-01 -0.000000000000000000e+00
-1.059999999999999970e-01 -0.000000000000000000e+00
-1.049999999999999961e-01 -0.000000000000000000e+00
-1.039999999999999952e-01 -0.000000000000000000e+00
-1.029999999999999943e-01 -0.000000000000000000e+00
-1.019999999999999934e-01 -0.000000000000000000e+00
-1.009999999999999926e-01 -0.000000000000000000e+00
-9.999999999999999167e-02 -0.000000000000000000e+00
-9.899999999999999079e-02 -0.000000000000000000e+00
-9.800000000000000377e-02 -0.000000000000000000e+00
-9.700000000000000289e-02 -0.000000000000000000e+00
-9.600000000000000200e-02 -0.000000000000000000e+00
-9.500000000000000111e-02 -0.000000000000000000e+00
-9.400000000000000022e-02 -0.000000000000000000e+00
-9.299999999999999933e-02 -0.000000000000000000e+00
-9.199999999999999845e-02 -0.000000000000000000e+00
-9.099999999999999756e-02 -0.000000000000000000e+00
-8.999999999999999667e-02 -0.000000000000000000e+00
-8.899999999999999578e-02 -0.000000000000000000e+00
-8.799999999999999489e-02 -0.000000000000000000e+00
-8.699999999999999400e-02 -0.000000000000000000e+00
-8.599999999999999312e-02 -0.000000000000000000e+00
-8.499999999999999223e-02 -0.000000000000000000e+00
-8.399999999999999134e-02 -0.000000000000000000e+00
-8.299999999999999045e-02 -0.000000000000000000e+00
-8.199999999999998956e-02 -0.000000000000000000e+00
-8.099999999999998868e-02 -0.000000000000000000e+00
-7.999999999999998779e-02 -0.000000000000000000e+00
-7.899999999999998690e-02 -0.000000000000000000e+00
-7.799999999999998601e-02 -0.000000000000000000e+00
-7.699999999999998512e-02 -0.000000000000000000e+00
-7.599999999999999811e-02 -0.000000000000000000e+00
-7.499999999999999722e-02 -0.000000000000000000e+00
-7.399999999999999634e-02 -0.000000000000000000e+00
-7.299999999999999545e-02 -0.000000000000000000e+00
-7.199999999999999456e-02 -0.000000000000000000e+00
-7.099999999999999367e-02 -0.000000000000000000e+00
-6.999999999999999278e-02 -0.000000000000000000e+00
-6.899999999999999190e-02 -0.000000000000000000e+00
-6.799999999999999101e-02 -0.000000000000000000e+00
-6.700000000000000400e-02 -0.000000000000000000e+00
-6.600000000000000311e-02 -0.000000000000000000e+00
-6.500000000000000222e-02 -0.000000000000000000e+00
-6.400000000000000133e-02 -0.000000000000000000e+00
-6.300000000000000044e-02 -0.000000000000000000e+00
-6.199999999999999262e-02 -0.000000000000000000e+00
-6.099999999999999173e-02 -0.000000000000000000e+00
-5.999999999999999778e-02 -0.000000000000000000e+00
-5.899999999999999689e-02 -0.000000000000000000e+00
-5.799999999999999600e-02 -0.000000000000000000e+00
-5.699999999999999512e-02 -0.000000000000000000e+00
-5.599999999999999423e-02 -0.000000000000000000e+00
-5.499999999999999334e-02 -0.000000000000000000e+00
-5.399999999999999245e-02 -0.000000000000000000e+00
-5.299999999999999156e-02 -0.000000000000000000e+00
-5.199999999999999067e-02 -0.000000000000000000e+00
-5.099999999999998979e-02 -0.000000000000000000e+00
-4.999999999999998890e-02 -0.000000000000000000e+00
-4.899999999999998801e-02 -0.000000000000000000e+00
-4.799999999999998712e-02 -0.000000000000000000e+00
-4.700000000000000011e-02 -0.000000000000000000e+00
-4.599999999999999922e-02 -0.000000000000000000e+00
-4.499999999999999833e-02 -0.000000000000000000e+00
-4.399999999999999745e-02 -0.000000000000000000e+00
-4.299999999999999656e-02 -0.000000000000000000e+00
-4.199999999999999567e-02 -0.000000000000000000e+00
-4.099999999999999478e-02 -0.000000000000000000e+00
-3.999999999999999389e-02 -0.000000000000000000e+00
-3.899999999999999301e-02 -0.000000000000000000e+00
-3.799999999999999212e-02 -0.000000000000000000e+00
-3.699999999999999123e-02 -0.000000000000000000e+00
-3.599999999999999034e-02 -0.000000000000000000e+00
-3.499999999999998945e-02 -0.000000000000000000e+00
-3.399999999999998856e-02 -0.000000000000000000e+00
-3.299999999999998768e-02 -0.000000000000000000e+00
-3.200000000000000067e-02 -0.000000000000000000e+00
-3.099999999999999978e-02 -0.000000000000000000e+00
-2.999999999999999889e-02 -0.000000000000000000e+00
-2.899999999999999800e-02 -0.000000000000000000e+00
-2.799999999999999711e-02 -0.000000000000000000e+00
-2.699999999999999623e-02 -0.000000000000000000e+00
-2.599999999999999534e-02 -0.000000000000000000e+00
-2.499999999999999445e-02 -0.000000000000000000e+00
-2.399999999999999356e-02 -0.000000000000000000e+00
-2.299999999999999267e-02 -0.000000000000000000e+00
-2.199999999999999178e-02 -0.000000000000000000e+00
-2.099999999999999090e-02 -0.000000000000000000e+00
-1.999999999999999001e-02 -0.000000000000000000e+00
-1.899999999999998912e-02 -0.000000000000000000e+00
-1.799999999999998823e-02 -0.000000000000000000e+00
-1.699999999999998734e-02 -0.000000000000000000e+00
-1.599999999999998646e-02 -0.000000000000000000e+00
-1.499999999999999944e-02 -0.000000000000000000e+00
-1.399999999999999856e-02 -0.000000000000000000e+00
-1.299999999999999767e-02 -0.000000000000000000e+00
-1.199999999999999678e-02 -0.000000000000000000e+00
-1.099999999999999589e-02 -0.000000000000000000e+00
-9.999999999999995004e-03 -0.000000000000000000e+00
-8.999999999999994116e-03 -0.000000000000000000e+00
-7.999999999999993228e-03 -0.000000000000000000e+00
-6.999999999999992339e-03 -0.000000000000000000e+00
-5.999999999999991451e-03 -0.000000000000000000e+00
-4.999999999999990563e-03 -0.000000000000000000e+00
-3.999999999999989675e-03 -0.000000000000000000e+00
-2.999999999999988787e-03 -0.000000000000000000e+00
-1.999999999999987899e-03 -0.000000000000000000e+00
-9.999999999999870104e-04 -0.000000000000000000e+00
0.000000000000000000e+00 -0.000000000000000000e+00
1.000000000000000888e-03 -0.000000000000000000e+00
2.000000000000001776e-03 -0.000000000000000000e+00
3.000000000000002665e-03 -0.000000000000000000e+00
4.000000000000003553e-03 -0.000000000000000000e+00
5.000000000000004441e-03 -0.000000000000000000e+00
6.000000000000005329e-03 -0.000000000000000000e+00
7.000000000000006217e-03 -0.000000000000000000e+00
8.000000000000007105e-03 -0.000000000000000000e+00
9.000000000000007994e-03 -0.000000000000000000e+00
1.000000000000000888e-02 -0.000000000000000000e+00
1.100000000000000977e-02 -0.000000000000000000e+00
1.200000000000001066e-02 -0.000000000000000000e+00
1.300000000000001155e-02 -0.000000000000000000e+00
1.400000000000001243e-02 -0.000000000000000000e+00
1.500000000000001332e-02 -0.000000000000000000e+00
1.600000000000001421e-02 -0.000000000000000000e+00
1.700000000000001510e-02 -0.000000000000000000e+00
1.800000000000001599e-02 -0.000000000000000000e+00
1.900000000000001688e-02 -0.000000000000000000e+00
2.000000000000001776e-02 -0.000000000000000000e+00
2.100000000000001865e-02 -0.000000000000000000e+00
2.200000000000001954e-02 -0.000000000000000000e+00
2.300000000000002043e-02 -0.000000000000000000e+00
2.400000000000002132e-02 -0.000000000000000000e+00
2.499999999999999445e-02 -0.000000000000000000e+00
2.599999999999999534e-02 -0.000000000000000000e+00
2.699999999999999623e-02 -0.000000000000000000e+00
2.799999999999999711e-02 -0.000000000000000000e+00
2.899999999999999800e-02 -0.000000000000000000e+00
2.999999999999999889e-02 -0.000000000000000000e+00
3.099999999999999978e-02 -0.000000000000000000e+00
3.200000000000000067e-02 -0.000000000000000000e+00
3.300000000000000155e-02 -0.000000000000000000e+00
3.400000000000000244e-02 -0.000000000000000000e+00
3.500000000000000333e-02 -0.000000000000000000e+00
3.600000000000000422e-02 -0.000000000000000000e+00
3.700000000000000511e-02 -0.000000000000000000e+00
3.800000000000000600e-02 -0.000000000000000000e+00
3.900000000000000688e-02 -0.000000000000000000e+00
4.000000000000000777e-02 -0.000000000000000000e+00
4.100000000000000866e-02 -0.000000000000000000e+00
4.200000000000000955e-02 -0.000000000000000000e+00
4.300000000000001044e-02 -0.000000000000000000e+00
4.400000000000001132e-02 -0.000000000000000000e+00
4.500000000000001221e-02 -0.000000000000000000e+00
4.600000000000001310e-02 -0.000000000000000000e+00
4.700000000000001399e-02 -0.000000000000000000e+00
4.800000000000001488e-02 -0.000000000000000000e+00
4.900000000000001577e-02 -0.000000000000000000e+00
5.000000000000001665e-02 -0.000000000000000000e+00
5.100000000000001754e-02 -0.000000000000000000e+00
5.200000000000001843e-02 -0.000000000000000000e+00
5.300000000000001932e-02 -0.000000000000000000e+00
5.400000000000002021e-02 -0.000000000000000000e+00
5.500000000000002109e-02 -0.000000000000000000e+00
5.599999999999999423e-02 -0.000000000000000000e+00
5.699999999999999512e-02 -0.000000000000000000e+00
5.799999999999999600e-02 -0.000000000000000000e+00
5.899999999999999689e-02 -0.000000000000000000e+00
5.999999999999999778e-02 -0.000000000000000000e+00
6.099999999999999867e-02 -0.000000000000000000e+00
6.199999999999999956e-02 -0.000000000000000000e+00
6.300000000000000044e-02 -0.000000000000000000e+00
6.400000000000000133e-02 -0.000000000000000000e+00
6.500000000000000222e-02 -0.000000000000000000e+00
6.600000000000000311e-02 -0.000000000000000000e+00
6.700000000000000400e-02 -0.000000000000000000e+00
6.800000000000000488e-02 -0.000000000000000000e+00
6.900000000000000577e-02 -0.000000000000000000e+00
7.000000000000000666e-02 -0.000000000000000000e+00
7.100000000000000755e-02 -0.000000000000000000e+00
7.200000000000000844e-02 -0.000000000000000000e+00
7.300000000000000933e-02 -0.000000000000000000e+00
7.400000000000001021e-02 -0.000000000000000000e+00
7.500000000000001110e-02 -0.000000000000000000e+00
7.600000000000001199e-02 -0.000000000000000000e+00
7.700000000000001288e-02 -0.000000000000000000e+00
7.800000000000001377e-02 -0.000000000000000000e+00
7.900000000000001465e-02 -0.000000000000000000e+00
8.000000000000001554e-02 1.401298464324817071e-45
8.100000000000001643e-02 2.802596928649634142e-45
8.200000000000001732e-02 -7.146622168056567062e-44
8.300000000000001821e-02 -2.523738534248995545e-42
8.400000000000001910e-02 -4.332954981538766865e-41
8.500000000000001998e-02 -4.871810293010232021e-40
8.600000000000002087e-02 -2.967325168324873688e-39
8.700000000000002176e-02 1.737520412661056380e-38
8.800000000000002265e-02 8.445798484456477304e-37
8.899999999999999578e-02 1.547179006478823364e-35
8.999999999999999667e-02 2.094718076195854220e-34
9.099999999999999756e-02 2.356485239760623106e-33
9.199999999999999845e-02 2.299154543561096984e-32
9.299999999999999933e-02 1.982077432054262416e-31
9.400000000000000022e-02 1.518840358013854572e-30
9.500000000000000111e-02 1.029518791614010777e-29
9.600000000000000200e-02 6.047212987906898951e-29
9.700000000000000289e-02 2.907584140761187516e-28
9.800000000000000377e-02 9.351545437966662408e-28
9.900000000000000466e-02 -7.378314654145276042e-28
1.000000000000000056e-01 -4.277539093993044939e-26
1.010000000000000064e-01 -4.214883816595866076e-25
1.020000000000000073e-01 -2.740647935144355678e-24
1.030000000000000082e-01 -1.155043826537363717e-23
1.040000000000000091e-01 -2.455692443516800910e-24
1.050000000000000100e-01 5.544032652794617654e-22
1.060000000000000109e-01 7.107866068440133252e-21
1.070000000000000118e-01 6.286820809586776237e-20
1.080000000000000127e-01 4.588024475950137932e-19
1.090000000000000135e-01 2.916625604972174733e-18
1.100000000000000144e-01 1.651155569360167346e-17
1.110000000000000153e-01 8.401374373191602919e-17
1.120000000000000162e-01 3.850717127940864095e-16
1.130000000000000171e-01 1.585269594631469325e-15
1.140000000000000180e-01 5.813050744701755285e-15
1.150000000000000189e-01 1.867376628219945267e-14
1.160000000000000198e-01 5.081846673072459852e-14
1.170000000000000207e-01 1.079497819259089830e-13
1.180000000000000215e-01 1.284545386726065885e-13
1.190000000000000224e-01 -2.311258823217698932e-13
1.199999999999999956e-01 -2.106418338365667609e-12
1.209999999999999964e-01 -8.197320426617249467e-12
1.219999999999999973e-01 -2.296228658604793083e-11
1.229999999999999982e-01 -4.984511761674248476e-11
1.239999999999999991e-01 -8.250523875208415348e-11
1.250000000000000000e-01 -9.190270766623598320e-11
1.260000000000000009e-01 -2.484301653282727784e-11
1.270000000000000018e-01 1.591898834973903831e-10
1.280000000000000027e-01 4.113816509665468857e-10
1.290000000000000036e-01 5.546230696928944326e-10
1.300000000000000044e-01 4.070679626710926868e-10
1.310000000000000053e-01 3.984657048761164333e-11
1.320000000000000062e-01 -1.663869320100985760e-10
1.330000000000000071e-01 4.631051098158422974e-11
1.340000000000000080e-01 3.408727744513839752e-10
1.350000000000000089e-01 1.708439639758196904e-10
1.360000000000000098e-01 -2.728080816805089626e-10
1.370000000000000107e-01 -2.533963039397235661e-10
1.380000000000000115e-01 1.308475550132470744e-10
1.390000000000000124e-01 3.310551832669261785e-11
1.400000000000000133e-01 -3.447193364092271395e-10
1.410000000000000142e-01 -8.129293072034471379e-11
1.420000000000000151e-01 3.083127364522653124e-10
1.430000000000000160e-01 -1.795319448660848138e-11
1.440000000000000169e-01 -1.312411290754766924e-10
1.450000000000000178e-01 3.046701779751970207e-10
1.460000000000000187e-01 5.972945749110891711e-11
1.470000000000000195e-01 -3.024151207231540184e-10
1.480000000000000204e-01 1.161707952057611237e-10
1.490000000000000213e-01 7.639000543235852092e-12
1.500000000000000222e-01 -2.925411302090452637e-10
1.510000000000000231e-01 2.300515750119913605e-10
1.520000000000000240e-01 9.792283650611466328e-11
1.530000000000000249e-01 -1.714120512197325752e-10
1.540000000000000258e-01 2.707713775418341129e-10
1.550000000000000266e-01 -1.245475250710725845e-10
1.560000000000000275e-01 -1.915042013855838832e-10
1.570000000000000284e-01 2.117667707857151527e-10
1.580000000000000293e-01 -2.288236267133925139e-10
1.590000000000000302e-01 1.295189094863147261e-10
1.600000000000000311e-01 1.643987446175998457e-10
1.610000000000000320e-01 -2.206013149930186046e-10
1.620000000000000329e-01 2.249112285301890779e-10
1.630000000000000338e-01 -2.236155288715124811e-10
1.640000000000000346e-01 -1.283282508035554770e-11
1.650000000000000355e-01 1.545564787264197548e-10
1.660000000000000364e-01 -1.848346475874507178e-10
1.670000000000000373e-01 2.952484645657449391e-10
1.680000000000000382e-01 -2.210359673071593534e-10
1.689999999999999836e-01 5.694258953248265698e-11
1.699999999999999845e-01 -1.364708346329734923e-11
1.709999999999999853e-01 -1.301804497533254334e-10
1.719999999999999862e-01 2.728633985427109110e-10
1.729999999999999871e-01 -2.435218693364049614e-10
1.739999999999999880e-01 2.831281875614877208e-10
1.749999999999999889e-01 -3.095844691713978136e-10
1.759999999999999898e-01 1.635960117374324341e-10
1.769999999999999907e-01 -5.395633939642152654e-11
1.779999999999999916e-01 -5.494810162431917888e-11
1.789999999999999925e-01 1.976187824492825484e-10
1.799999999999999933e-01 -1.668350457784129048e-10
1.809999999999999942e-01 1.647397773751890782e-10
1.819999999999999951e-01 -2.783132890815664950e-10
1.829999999999999960e-01 3.020896588434851537e-10
1.839999999999999969e-01 -1.878127375842808533e-10
1.849999999999999978e-01 2.014746702805325640e-10
1.859999999999999987e-01 -2.393097386921283487e-10
1.869999999999999996e-01 1.220533951684643625e-10
1.880000000000000004e-01 -7.669004320476346948e-11
1.890000000000000013e-01 1.156120477130428981e-10
1.900000000000000022e-01 -3.147510030387934421e-11
1.910000000000000031e-01 -4.807643172455300373e-11
1.920000000000000040e-01 -9.446769755339090580e-12
1.930000000000000049e-01 -4.426864430584487309e-11
1.940000000000000058e-01 1.289432727258343903e-10
1.950000000000000067e-01 -7.481026909061938568e-11
1.960000000000000075e-01 7.901734822013395387e-11
1.970000000000000084e-01 -1.865664289724122682e-10
1.980000000000000093e-01 1.063111820798212648e-10
1.990000000000000102e-01 -1.201478916357245907e-10
2.000000000000000111e-01 1.651903058785819667e-10
2.010000000000000120e-01 -1.666962123891835290e-10
2.020000000000000129e-01 8.769918125040021550e-11
2.030000000000000138e-01 -1.870263943715144705e-10
2.040000000000000147e-01 1.030708851601502829e-10
2.050000000000000155e-01 -1.718296616104453278e-10
2.060000000000000164e-01 1.401545546286797617e-11
2.070000000000000173e-01 -2.450795122399540560e-10
2.080000000000000182e-01 -5.560352178690664005e-11
2.090000000000000191e-01 -1.948521344274922740e-10
2.100000000000000200e-01 -1.291482476517558098e-10
2.110000000000000209e-01 -2.532072329586299020e-10
2.120000000000000218e-01 -2.965272472010838101e-10
2.130000000000000226e-01 -2.925801823039364535e-10
2.140000000000000235e-01 -4.537383802016847767e-10
2.150000000000000244e-01 -3.687752325731707970e-10
2.160000000000000253e-01 -7.425171588693046942e-10
2.170000000000000262e-01 -5.842863970428879838e-10
2.180000000000000271e-01 -1.044718089815432904e-09
2.190000000000000280e-01 -7.811422619852237403e-10
2.200000000000000289e-01 -1.439325103547162144e-09
2.210000000000000298e-01 -1.242767666553845629e-09
2.220000000000000306e-01 -1.955726247615530156e-09
2.230000000000000315e-01 -1.747579858601966407e-09
2.240000000000000324e-01 -2.478145688655786216e-09
2.250000000000000333e-01 -2.555978539930947591e-09
2.260000000000000342e-01 -3.251074076615623198e-09
2.270000000000000351e-01 -3.561240191629622132e-09
2.280000000000000360e-01 -4.115577212360221893e-09
2.290000000000000369e-01 -4.785164264831109904e-09
2.300000000000000377e-01 -5.301046712702373043e-09
2.310000000000000386e-01 -6.356970061460742727e-09
2.319999999999999840e-01 -6.775337624276289716e-09
2.329999999999999849e-01 -8.071026513789547607e-09
2.339999999999999858e-01 -8.649749361211434007e-09
2.349999999999999867e-01 -1.019634510157629848e-08
2.359999999999999876e-01 -1.103887825593119487e-08
2.369999999999999885e-01 -1.253249592991778627e-08
2.379999999999999893e-01 -1.383625658490927890e-08
2.389999999999999902e-01 -1.527291715319734067e-08
2.399999999999999911e-01 -1.716637143545085564e-08
2.409999999999999920e-01 -1.856858489190926775e-08
2.419999999999999929e-01 -2.079491423501167446e-08
2.429999999999999938e-01 -2.226988726761192083e-08
2.439999999999999947e-01 -2.470824256306514144e-08
2.449999999999999956e-01 -2.660021891642827541e-08
2.459999999999999964e-01 -2.896467776736244559e-08
2.469999999999999973e-01 -3.124750946881249547e-08
2.479999999999999982e-01 -3.349396138219162822e-08
2.489999999999999991e-01 -3.621562427724711597e-08
2.500000000000000000e-01 -3.828426997642964125e-08
2.510000000000000009e-01 -4.119920049561187625e-08
2.520000000000000018e-01 -4.317371349316090345e-08
2.530000000000000027e-01 -4.575531420414336026e-08
2.540000000000000036e-01 -4.810135578736662865e-08
2.550000000000000044e-01 -5.029369276599027216e-08
2.560000000000000053e-01 -5.264655555947683752e-08
2.570000000000000062e-01 -5.425499693956226110e-08
2.580000000000000071e-01 -5.625042831525206566e-08
2.590000000000000080e-01 -5.729179974878206849e-08
2.600000000000000089e-01 -5.885431164642795920e-08
2.610000000000000098e-01 -5.968558980384841561e-08
2.620000000000000107e-01 -5.990750651108101010e-08
2.630000000000000115e-01 -6.048230716260150075e-08
2.640000000000000124e-01 -5.979745765216648579e-08
2.650000000000000133e-01 -5.946640158072113991e-08
2.660000000000000142e-01 -5.791389412479475141e-08
2.670000000000000151e-01 -5.619767762254923582e-08
2.680000000000000160e-01 -5.384936230257153511e-08
2.690000000000000169e-01 -5.076162779005244374e-08
2.700000000000000178e-01 -4.788762453244999051e-08
2.710000000000000187e-01 -4.348112270236015320e-08
2.720000000000000195e-01 -3.869536158163100481e-08
2.730000000000000204e-01 -3.333843778818845749e-08
2.740000000000000213e-01 -2.733304427238181233e-08
2.750000000000000222e-01 -2.103752194670960307e-08
2.760000000000000231e-01 -1.371245161863043904e-08
2.770000000000000240e-01 -6.401023711077868938e-09
2.780000000000000249e-01 1.639818947296589613e-09
2.790000000000000258e-01 1.008174876915290952e-08
2.800000000000000266e-01 1.877197064459323883e-08
2.810000000000000275e-01 2.822162059601396322e-08
2.820000000000000284e-01 3.740842657862231135e-08
2.830000000000000293e-01 4.703906597569584846e-08
2.840000000000000302e-01 5.653873813571408391e-08
2.850000000000000311e-01 6.574009603355079889e-08
2.860000000000000320e-01 7.548806024715304375e-08
2.870000000000000329e-01 8.439383236691355705e-08
2.880000000000000338e-01 9.328869055025279522e-08
2.890000000000000346e-01 1.020575837173964828e-07
2.900000000000000355e-01 1.098778739105910063e-07
2.910000000000000364e-01 1.177891135739628226e-07
2.920000000000000373e-01 1.244020495505537838e-07
2.930000000000000382e-01 1.308465016336413100e-07
2.940000000000000391e-01 1.363853243674384430e-07
2.950000000000000400e-01 1.404720677555815200e-07
2.960000000000000409e-01 1.443138444301439449e-07
2.969999999999999862e-01 1.466978574171662331e-07
2.979999999999999871e-01 1.484854692535009235e-07
2.989999999999999880e-01 1.490116119384765625e-07
2.999999999999999889e-01 1.479588718211743981e-07
3.009999999999999898e-01 1.467615220462903380e-07
3.019999999999999907e-01 1.436465026927180588e-07
3.029999999999999916e-01 1.399457687512040138e-07
3.039999999999999925e-01 1.352354956907220185e-07
3.049999999999999933e-01 1.290709406021051109e-07
3.059999999999999942e-01 1.227281245519407094e-07
3.069999999999999951e-01 1.148537194239906967e-07
3.079999999999999960e-01 1.064745447365567088e-07
3.089999999999999969e-01 9.769428288564085960e-08
3.099999999999999978e-01 8.762981451582163572e-08
3.109999999999999987e-01 7.775815902277827263e-08
3.119999999999999996e-01 6.735535862389951944e-08
3.130000000000000004e-01 5.602669261861592531e-08
3.140000000000000013e-01 4.518187779467552900e-08
3.150000000000000022e-01 3.369314072187989950e-08
3.160000000000000031e-01 2.256092557217925787e-08
3.170000000000000040e-01 1.175976649392396212e-08
3.180000000000000049e-01 6.548361852765083313e-10
3.190000000000000058e-01 -9.549694368615746498e-09
3.200000000000000067e-01 -1.972512109205126762e-08
3.210000000000000075e-01 -2.968590706586837769e-08
3.220000000000000084e-01 -3.845707396976649761e-08
3.230000000000000093e-01 -4.737921699415892363e-08
3.240000000000000102e-01 -5.521178536582738161e-08
3.250000000000000111e-01 -6.216578185558319092e-08
3.260000000000000120e-01 -6.879054126329720020e-08
3.270000000000000129e-01 -7.419930625474080443e-08
3.280000000000000138e-01 -7.933886081445962191e-08
3.290000000000000147e-01 -8.359802450286224484e-08
3.300000000000000155e-01 -8.663391781738027930e-08
3.310000000000000164e-01 -8.963343134382739663e-08
3.320000000000000173e-01 -9.115865395870059729e-08
3.330000000000000182e-01 -9.196082828566431999e-08
3.340000000000000191e-01 -9.247833077097311616e-08
3.350000000000000200e-01 -9.169980330625548959e-08
3.360000000000000209e-01 -9.083805707632564008e-08
3.370000000000000218e-01 -8.913048077374696732e-08
3.380000000000000226e-01 -8.677307050675153732e-08
3.390000000000000235e-01 -8.439110388280823827e-08
3.400000000000000244e-01 -8.103825166472233832e-08
3.410000000000000253e-01 -7.750509212200995535e-08
3.420000000000000262e-01 -7.403741619782522321e-08
3.430000000000000271e-01 -6.979496447456767783e-08
3.440000000000000280e-01 -6.566915544681251049e-08
3.450000000000000289e-01 -6.150486342448857613e-08
3.460000000000000298e-01 -5.675792635884135962e-08
3.470000000000000306e-01 -5.263973434921354055e-08
3.480000000000000315e-01 -4.819293053515139036e-08
3.490000000000000324e-01 -4.353205440565943718e-08
3.500000000000000333e-01 -3.962372829846572131e-08
3.510000000000000342e-01 -3.504953838273650035e-08
3.520000000000000351e-01 -3.075660970353055745e-08
3.530000000000000360e-01 -2.721935743466019630e-08
3.540000000000000369e-01 -2.299930201843380928e-08
3.550000000000000377e-01 -1.954435902007389814e-08
3.560000000000000386e-01 -1.638431967876385897e-08
3.570000000000000395e-01 -1.287594386667478830e-08
3.580000000000000404e-01 -1.016337591863702983e-08
3.590000000000000413e-01 -7.389871825580485165e-09
3.599999999999999867e-01 -4.760977390105836093e-09
3.609999999999999876e-01 -2.666638465598225594e-09
3.619999999999999885e-01 -5.140918801771476865e-10
3.629999999999999893e-01 1.446778696845285594e-09
3.639999999999999902e-01 2.665501597221009433e-09
3.649999999999999911e-01 4.396042641019448638e-09
3.659999999999999920e-01 5.589072316070087254e-09
3.669999999999999929e-01 6.374875738401897252e-09
3.679999999999999938e-01 7.564722181996330619e-09
3.689999999999999947e-01 8.006054486031644046e-09
3.699999999999999956e-01 8.500819603796117008e-09
3.709999999999999964e-01 9.352788765681907535e-09
3.719999999999999973e-01 9.290943125961348414e-09
3.729999999999999982e-01 9.708628567750565708e-09
3.739999999999999991e-01 1.002626959234476089e-08
3.750000000000000000e-01 9.757741281646303833e-09
3.760000000000000009e-01 9.980794857256114483e-09
3.770000000000000018e-01 9.917812349158339202e-09
3.780000000000000027e-01 9.634504749556072056e-09
3.790000000000000036e-01 9.544919521431438625e-09
3.800000000000000044e-01 9.394398148288019001e-09
3.810000000000000053e-01 8.843926480039954185e-09
3.820000000000000062e-01 8.811753104964736849e-09
3.830000000000000071e-01 8.379402061109431088e-09
3.840000000000000080e-01 7.811308933014515787e-09
3.850000000000000089e-01 7.969561011123005301e-09
3.860000000000000098e-01 7.396579349006060511e-09
3.870000000000000107e-01 6.922391548869200051e-09
3.880000000000000115e-01 7.195353646238800138e-09
3.890000000000000124e-01 6.544155439769383520e-09
3.900000000000000133e-01 6.005734576319810003e-09
3.910000000000000142e-01 7.093376552802510560e-09
3.920000000000000151e-01 5.710944606107659638e-09
3.930000000000000160e-01 6.094865057093556970e-09
3.940000000000000169e-01 9.063057859748369083e-09
3.950000000000000178e-01 5.662172952725086361e-09
3.960000000000000187e-01 1.074050715033081360e-08
3.970000000000000195e-01 1.492418277848628350e-08
3.980000000000000204e-01 9.824987046158639714e-09
3.990000000000000213e-01 2.690984501896309666e-08
4.000000000000000222e-01 2.788993924696114846e-08
4.010000000000000231e-01 3.035285089936223812e-08
4.020000000000000240e-01 6.262354190766927786e-08
4.030000000000000249e-01 5.779867251476389356e-08
4.040000000000000258e-01 8.537853091183933429e-08
4.050000000000000266e-01 1.213174982694908977e-07
4.060000000000000275e-01 1.278919228298036614e-07
4.070000000000000284e-01 1.808893728139082668e-07
4.080000000000000293e-01 2.160668657325004460e-07
4.090000000000000302e-01 2.588568861483508954e-07
4.100000000000000311e-01 3.154830778839823324e-07
4.110000000000000320e-01 3.809359441220294684e-07
4.120000000000000329e-01 4.522626113612204790e-07
4.130000000000000338e-01 5.290313538353075273e-07
4.140000000000000346e-01 6.481953391812567133e-07
4.150000000000000355e-01 7.538436079812527169e-07
4.160000000000000364e-01 9.041649491337011568e-07
4.170000000000000373e-01 1.079903086065314710e-06
4.180000000000000382e-01 1.290327872993657365e-06
4.190000000000000391e-01 1.532532337478187401e-06
4.200000000000000400e-01 1.831934923757216893e-06
4.210000000000000409e-01 2.185054199799196795e-06
4.220000000000000417e-01 2.579618012532591820e-06
4.230000000000000426e-01 3.060092922169133089e-06
4.240000000000000435e-01 3.605317942856345326e-06
4.250000000000000444e-01 4.241645456204423681e-06
4.260000000000000453e-01 4.960422302247025073e-06
4.270000000000000462e-01 5.816374141431879252e-06
4.280000000000000471e-01 6.779208888474386185e-06
4.290000000000000480e-01 7.898674994066823274e-06
4.300000000000000488e-01 9.178893378702923656e-06
4.310000000000000497e-01 1.066187451215228066e-05
4.320000000000000506e-01 1.233389048138633370e-05
4.330000000000000515e-01 1.425244863639818504e-05
4.340000000000000524e-01 1.642696406634058803e-05
4.350000000000000533e-01 1.888807855721097440e-05
4.360000000000000542e-01 2.165043770219199359e-05
4.370000000000000551e-01 2.477212910889647901e-05
4.380000000000000560e-01 2.826904892572201788e-05
4.390000000000000568e-01 3.217966514057479799e-05
4.400000000000000577e-01 3.654404281405732036e-05
4.410000000000000586e-01 4.141419412917457521e-05
4.420000000000000595e-01 4.681199425249360502e-05
4.430000000000000604e-01 5.278308526612818241e-05
4.440000000000000613e-01 5.937067908234894276e-05
4.450000000000000622e-01 6.661630322923883796e-05
4.460000000000000631e-01 7.454215665347874165e-05
4.470000000000000639e-01 8.319862536154687405e-05
4.480000000000000648e-01 9.262115781893953681e-05
4.490000000000000657e-01 1.028448023134842515e-04
4.500000000000000666e-01 1.138848310802131891e-04
4.510000000000000675e-01 1.257858530152589083e-04
4.520000000000000684e-01 1.385551004204899073e-04
4.530000000000000693e-01 1.522042293800041080e-04
4.540000000000000702e-01 1.667185279075056314e-04
4.550000000000000711e-01 1.821140758693218231e-04
4.560000000000000719e-01 1.983463007491081953e-04
4.569999999999999618e-01 2.153959358111023903e-04
4.579999999999999627e-01 2.332036092411726713e-04
4.589999999999999636e-01 2.517368993721902370e-04
4.599999999999999645e-01 2.708890242502093315e-04
4.609999999999999654e-01 2.905862056650221348e-04
4.619999999999999662e-01 3.106962249148637056e-04
4.629999999999999671e-01 3.311103209853172302e-04
4.639999999999999680e-01 3.516447031870484352e-04
4.649999999999999689e-01 3.721424727700650692e-04
4.659999999999999698e-01 3.924003103747963905e-04
4.669999999999999707e-01 4.122214158996939659e-04
4.679999999999999716e-01 4.313493263907730579e-04
4.689999999999999725e-01 4.495458269957453012e-04