-1.199999999999999956e-01 0.000000000000000000e+00
-1.189999999999999947e-01 0.000000000000000000e+00
-1.179999999999999938e-01 0.000000000000000000e+00
-1.169999999999999929e-01 0.000000000000000000e+00
-1.159999999999999920e-01 0.000000000000000000e+00
-1.149999999999999911e-01 0.000000000000000000e+00
-1.139999999999999902e-01 0.000000000000000000e+00
-1.129999999999999893e-01 0.000000000000000000e+00
-1.119999999999999885e-01 0.000000000000000000e+00
-1.109999999999999876e-01 0.000000000000000000e+00
-1.100000000000000006e-01 0.000000000000000000e+00
-1.089999999999999997e-01 0.000000000000000000e+00
-1.079999999999999988e-01 0.000000000000000000e+00
-1.069999999999999979e-01 0.000000000000000000e+00
-1.059999999999999970e-01 0.000000000000000000e+00
-1.049999999999999961e-01 0.000000000000000000e+00
-1.039999999999999952e-01 0.000000000000000000e+00
-1.029999999999999943e-01 0.000000000000000000e+00
-1.019999999999999934e-01 0.000000000000000000e+00
-1.009999999999999926e-01 0.000000000000000000e+00
-9.999999999999999167e-02 0.000000000000000000e+00
-9.899999999999999079e-02 0.000000000000000000e+00
-9.800000000000000377e-02 0.000000000000000000e+00
-9.700000000000000289e-02 0.000000000000000000e+00
-9.600000000000000200e-02 0.000000000000000000e+00
-9.500000000000000111e-02 0.000000000000000000e+00
-9.400000000000000022e-02 0.000000000000000000e+00
-9.299999999999999933e-02 0.000000000000000000e+00
-9.199999999999999845e-02 0.000000000000000000e+00
-9.099999999999999756e-02 0.000000000000000000e+00
-8.999999999999999667e-02 0.000000000000000000e+00
-8.899999999999999578e-02 0.000000000000000000e+00
-8.799999999999999489e-02 0.000000000000000000e+00
-8.699999999999999400e-02 0.000000000000000000e+00
-8.599999999999999312e-02 0.000000000000000000e+00
-8.499999999999999223e-02 0.000000000000000000e+00
-8.399999999999999134e-02 0.000000000000000000e+00
-8.299999999999999045e-02 0.000000000000000000e+00
-8.199999999999998956e-02 0.000000000000000000e+00
-8.099999999999998868e-02 0.000000000000000000e+00
-7.999999999999998779e-02 0.000000000000000000e+00
-7.899999999999998690e-02 0.000000000000000000e+00
-7.799999999999998601e-02 0.000000000000000000e+00
-7.699999999999998512e-02 0.000000000000000000e+00
-7.599999999999999811e-02 0.000000000000000000e+00
-7.499999999999999722e-02 0.000000000000000000e+00
-7.399999999999999634e-02 0.000000000000000000e+00
-7.299999999999999545e-02 0.000000000000000000e+00
-7.199999999999999456e-02 0.000000000000000000e+00
-7.099999999999999367e-02 0.000000000000000000e+00
-6.999999999999999278e-02 0.000000000000000000e+00
-6.899999999999999190e-02 0.000000000000000000e+00
-6.799999999999999101e-02 0.000000000000000000e+00
-6.700000000000000400e-02 0.000000000000000000e+00
-6.600000000000000311e-02 0.000000000000000000e+00
-6.500000000000000222e-02 0.000000000000000000e+00
-6.400000000000000133e-02 0.000000000000000000e+00
-6.300000000000000044e-02 0.000000000000000000e+00
-6.199999999999999262e-02 0.000000000000000000e+00
-6.099999999999999173e-02 0.000000000000000000e+00
-5.999999999999999778e-02 0.000000000000000000e+00
-5.899999999999999689e-02 0.000000000000000000e+00
-5.799999999999999600e-02 0.000000000000000000e+00
-5.699999999999999512e-02 0.000000000000000000e+00
-5.599999999999999423e-02 0.000000000000000000e+00
-5.499999999999999334e-02 0.000000000000000000e+00
-5.399999999999999245e-02 0.000000000000000000e+00
-5.299999999999999156e-02 0.000000000000000000e+00
-5.199999999999999067e-02 0.000000000000000000e+00
-5.099999999999998979e-02 0.000000000000000000e+00
-4.999999999999998890e-02 0.000000000000000000e+00
-4.899999999999998801e-02 0.000000000000000000e+00
-4.799999999999998712e-02 0.000000000000000000e+00
-4.700000000000000011e-02 0.000000000000000000e+00
-4.599999999999999922e-02 0.000000000000000000e+00
-4.499999999999999833e-02 0.000000000000000000e+00
-4.399999999999999745e-02 0.000000000000000000e+00
-4.299999999999999656e-02 0.000000000000000000e+00
-4.199999999999999567e-02 0.000000000000000000e+00
-4.099999999999999478e-02 0.000000000000000000e+00
-3.999999999999999389e-02 0.000000000000000000e+00
-3.899999999999999301e-02 0.000000000000000000e+00
-3.799999999999999212e-02 0.000000000000000000e+00
-3.699999999999999123e-02 0.000000000000000000e+00
-3.599999999999999034e-02 0.000000000000000000e+00
-3.499999999999998945e-02 0.000000000000000000e+00
-3.399999999999998856e-02 0.000000000000000000e+00
-3.299999999999998768e-02 0.000000000000000000e+00
-3.200000000000000067e-02 0.000000000000000000e+00
-3.099999999999999978e-02 0.000000000000000000e+00
-2.999999999999999889e-02 0.000000000000000000e+00
-2.899999999999999800e-02 0.000000000000000000e+00
-2.799999999999999711e-02 0.000000000000000000e+00
-2.699999999999999623e-02 0.000000000000000000e+00
-2.599999999999999534e-02 0.000000000000000000e+00
-2.499999999999999445e-02 0.000000000000000000e+00
-2.399999999999999356e-02 0.000000000000000000e+00
-2.299999999999999267e-02 0.000000000000000000e+00
-2.199999999999999178e-02 0.000000000000000000e+00
-2.099999999999999090e-02 0.000000000000000000e+00
-1.999999999999999001e-02 0.000000000000000000e+00
-1.899999999999998912e-02 0.000000000000000000e+00
-1.799999999999998823e-02 0.000000000000000000e+00
-1.699999999999998734e-02 0.000000000000000000e+00
-1.599999999999998646e-02 0.000000000000000000e+00
-1.499999999999999944e-02 0.000000000000000000e+00
-1.399999999999999856e-02 0.000000000000000000e+00
-1.299999999999999767e-02 0.000000000000000000e+00
-1.199999999999999678e-02 0.000000000000000000e+00
-1.099999999999999589e-02 0.000000000000000000e+00
-9.999999999999995004e-03 0.000000000000000000e+00
-8.999999999999994116e-03 0.000000000000000000e+00
-7.999999999999993228e-03 0.000000000000000000e+00
-6.999999999999992339e-03 0.000000000000000000e+00
-5.999999999999991451e-03 0.000000000000000000e+00
-4.999999999999990563e-03 0.000000000000000000e+00
-3.999999999999989675e-03 0.000000000000000000e+00
-2.999999999999988787e-03 0.000000000000000000e+00
-1.999999999999987899e-03 0.000000000000000000e+00
-9.999999999999870104e-04 0.000000000000000000e+00
0.000000000000000000e+00 0.000000000000000000e+00
1.000000000000000888e-03 0.000000000000000000e+00
2.000000000000001776e-03 0.000000000000000000e+00
3.000000000000002665e-03 0.000000000000000000e+00
4.000000000000003553e-03 0.000000000000000000e+00
5.000000000000004441e-03 0.000000000000000000e+00
6.000000000000005329e-03 0.000000000000000000e+00
7.000000000000006217e-03 0.000000000000000000e+00
8.000000000000007105e-03 0.000000000000000000e+00
9.000000000000007994e-03 0.000000000000000000e+00
1.000000000000000888e-02 0.000000000000000000e+00
1.100000000000000977e-02 0.000000000000000000e+00
1.200000000000001066e-02 0.000000000000000000e+00
1.300000000000001155e-02 0.000000000000000000e+00
1.400000000000001243e-02 0.000000000000000000e+00
1.500000000000001332e-02 0.000000000000000000e+00
1.600000000000001421e-02 0.000000000000000000e+00
1.700000000000001510e-02 0.000000000000000000e+00
1.800000000000001599e-02 0.000000000000000000e+00
1.900000000000001688e-02 0.000000000000000000e+00
2.000000000000001776e-02 0.000000000000000000e+00
2.100000000000001865e-02 0.000000000000000000e+00
2.200000000000001954e-02 0.000000000000000000e+00
2.300000000000002043e-02 0.000000000000000000e+00
2.400000000000002132e-02 0.000000000000000000e+00
2.499999999999999445e-02 0.000000000000000000e+00
2.599999999999999534e-02 0.000000000000000000e+00
2.699999999999999623e-02 0.000000000000000000e+00
2.799999999999999711e-02 0.000000000000000000e+00
2.899999999999999800e-02 0.000000000000000000e+00
2.999999999999999889e-02 0.000000000000000000e+00
3.099999999999999978e-02 0.000000000000000000e+00
3.200000000000000067e-02 0.000000000000000000e+00
3.300000000000000155e-02 0.000000000000000000e+00
3.400000000000000244e-02 0.000000000000000000e+00
3.500000000000000333e-02 0.000000000000000000e+00
3.600000000000000422e-02 0.000000000000000000e+00
3.700000000000000511e-02 0.000000000000000000e+00
3.800000000000000600e-02 0.000000000000000000e+00
3.900000000000000688e-02 0.000000000000000000e+00
4.000000000000000777e-02 0.000000000000000000e+00
4.100000000000000866e-02 -0.000000000000000000e+00
4.200000000000000955e-02 8.407790785948902426e-45
4.300000000000001044e-02 4.456129116552918286e-43
4.400000000000001132e-02 -1.209740964251614577e-41
4.500000000000001221e-02 -2.117230257539152061e-39
4.600000000000001310e-02 -1.122420451745677926e-37
4.700000000000001399e-02 -3.517371966797250568e-36
4.800000000000001488e-02 -6.039992457690383599e-35
4.900000000000001577e-02 4.003059686358911597e-34
5.000000000000001665e-02 7.184090148779249575e-32
5.100000000000001754e-02 2.918287353487006520e-30
5.200000000000001843e-02 6.874882585213528801e-29
5.300000000000001932e-02 4.859421694760320466e-28
5.400000000000002021e-02 -4.103545960585235523e-26
5.500000000000002109e-02 -2.345499224679646044e-24
5.599999999999999423e-02 -7.327801523801258994e-23
5.699999999999999512e-02 -1.533320124370273059e-21
5.799999999999999600e-02 -2.037695138656454750e-20
5.899999999999999689e-02 -1.022594342073923134e-19
5.999999999999999778e-02 1.964109552029346614e-18
6.099999999999999867e-02 4.716421394505058387e-17
6.199999999999999956e-02 3.800256198899373220e-16
6.300000000000000044e-02 -4.060483249141615472e-16
6.400000000000000133e-02 -3.035725425377944209e-14
6.500000000000000222e-02 -1.688749238105274886e-13
6.600000000000000311e-02 4.440373849862178091e-13
6.700000000000000400e-02 6.629355918386092839e-12
6.800000000000000488e-02 5.824594279113526341e-12
6.900000000000000577e-02 -9.434790448903385141e-11
7.000000000000000666e-02 -1.404081018119285318e-10
7.100000000000000755e-02 5.979360895302932022e-10
7.200000000000000844e-02 5.331199370850470132e-10
7.300000000000000933e-02 -1.336987298650171851e-09
7.400000000000001021e-02 4.128211106291246324e-10
7.500000000000001110e-02 -7.998823825516865327e-10
7.600000000000001199e-02 3.044262342211112582e-10
7.700000000000001288e-02 -7.674799129553377952e-10
7.800000000000001377e-02 8.836857356975258426e-10
7.900000000000001465e-02 -1.565646390311314917e-09
8.000000000000001554e-02 1.691902951073132044e-09
8.100000000000001643e-02 -1.598439380856575553e-09
8.200000000000001732e-02 6.262852736416135713e-11
8.300000000000001821e-02 1.536727634032786227e-09
8.400000000000001910e-02 -2.768792528584640422e-09
8.500000000000001998e-02 1.217657419338991076e-09
8.600000000000002087e-02 9.981306892115071605e-10
8.700000000000002176e-02 -1.982926045585031716e-09
8.800000000000002265e-02 6.104856620225973529e-10
8.899999999999999578e-02 -3.126338077308332686e-11
8.999999999999999667e-02 5.703696404069091841e-10
9.099999999999999756e-02 8.812690577286730331e-10
9.199999999999999845e-02 -1.598419729909039688e-09
9.299999999999999933e-02 1.065626129004293432e-10
9.400000000000000022e-02 2.908654983535541305e-10
9.500000000000000111e-02 -2.525007980480609149e-10
9.600000000000000200e-02 1.328765097952100405e-09
9.700000000000000289e-02 -2.756974648576715481e-10
9.800000000000000377e-02 -3.595615194473822385e-10
9.900000000000000466e-02 3.193786901611872509e-10
1.000000000000000056e-01 -1.175237684947205707e-09
1.010000000000000064e-01 -5.210794642995786319e-11
1.020000000000000073e-01 -2.295269529994925506e-11
1.030000000000000082e-01 -8.374460569449126979e-10
1.040000000000000091e-01 6.023708198910071587e-10
1.050000000000000100e-01 -7.571578780618537508e-11
1.060000000000000109e-01 -9.160793651430410023e-11
1.070000000000000118e-01 1.012281036771867093e-09
1.080000000000000127e-01 -1.214868067256347217e-10
1.090000000000000135e-01 3.865127107260946104e-10
1.100000000000000144e-01 7.374962862627398863e-10
1.110000000000000153e-01 -3.505229162481526828e-10
1.120000000000000162e-01 6.345701741850007238e-10
1.130000000000000171e-01 4.583668167246202074e-10
1.140000000000000180e-01 -1.829391083063569567e-10
1.150000000000000189e-01 8.363537085109840064e-10
1.160000000000000198e-01 7.616163255619312622e-11
1.170000000000000207e-01 -1.028011842318932167e-10
1.180000000000000215e-01 7.579752936415218301e-10
1.190000000000000224e-01 -1.361447621306410838e-10
1.199999999999999956e-01 2.284961109211280927e-10
1.209999999999999964e-01 6.810670916124195173e-10
1.219999999999999973e-01 -3.127154923898700645e-10
1.229999999999999982e-01 3.296057593527024210e-10
1.239999999999999991e-01 4.007054410504196085e-10
1.250000000000000000e-01 -3.493930422759916610e-10
1.260000000000000009e-01 4.944183396027312938e-10
1.270000000000000018e-01 1.453463321920978046e-10
1.280000000000000027e-01 -3.637747603146834763e-10
1.290000000000000036e-01 4.646560913812436411e-10
1.300000000000000044e-01 -2.330780290993317294e-10
1.310000000000000053e-01 -4.504172312902454678e-10
1.320000000000000062e-01 3.996805109096612796e-10
1.330000000000000071e-01 -1.537225208236847607e-10
1.340000000000000080e-01 -1.287803336191828407e-10
1.350000000000000089e-01 -8.181421512487574432e-11
1.360000000000000098e-01 -9.456004868013678788e-10
1.370000000000000107e-01 2.209487454107872395e-10
1.380000000000000115e-01 8.971763332255022760e-10
1.390000000000000124e-01 -7.617601549547714512e-10
1.400000000000000133e-01 -6.463242718801609499e-10
1.410000000000000142e-01 4.715743351368928415e-10
1.420000000000000151e-01 1.518303816006039142e-10
1.430000000000000160e-01 -9.904511932834481058e-11
1.440000000000000169e-01 1.806920064961747840e-11
1.450000000000000178e-01 4.229311345582686954e-10
1.460000000000000187e-01 1.585141740090278972e-10
1.470000000000000195e-01 -4.359678729137783648e-10
1.480000000000000204e-01 4.718395674174757914e-10
1.490000000000000213e-01 3.330164199955021331e-10
1.500000000000000222e-01 -5.922470847075089750e-10
1.510000000000000231e-01 5.010774017932817515e-10
1.520000000000000240e-01 1.606782207286272524e-10
1.530000000000000249e-01 -7.872158480637381217e-10
1.540000000000000258e-01 4.553202814783219310e-10
1.550000000000000266e-01 -3.289024053110267687e-10
1.560000000000000275e-01 -3.921836744247286788e-10
1.570000000000000284e-01 5.513304257576123746e-10
1.580000000000000293e-01 -5.729937635479132041e-10
1.590000000000000302e-01 3.136353676769232379e-10
1.600000000000000311e-01 -9.893350028100655891e-11
1.610000000000000320e-01 -3.249779334524305341e-10
1.620000000000000329e-01 7.735093676686233266e-10
1.630000000000000338e-01 -9.375474840922493058e-10
1.640000000000000346e-01 1.231384549882363899e-09
1.650000000000000355e-01 1.384642955848391921e-10
1.660000000000000364e-01 -4.755346116880332374e-10
1.670000000000000373e-01 6.278341180276925115e-10
1.680000000000000382e-01 -2.202347193502873779e-09
1.689999999999999836e-01 1.757525458501163484e-09
1.699999999999999845e-01 5.681187742467841417e-10
1.709999999999999853e-01 -6.407390173990279436e-10
1.719999999999999862e-01 -1.420919826244926298e-09
1.729999999999999871e-01 5.746966236230832692e-10
1.739999999999999880e-01 1.060834975419311377e-09
1.749999999999999889e-01 -1.760064538558481217e-09
1.759999999999999898e-01 1.903698754190941145e-09
1.769999999999999907e-01 -1.788138637159875088e-09
1.779999999999999916e-01 1.408792416057735863e-09
1.789999999999999925e-01 -7.225910980679373097e-10
1.799999999999999933e-01 3.605165055375891825e-10
1.809999999999999942e-01 -8.142060359261904523e-10
1.819999999999999951e-01 1.619437473010520989e-09
1.829999999999999960e-01 -1.537822758024276482e-09
1.839999999999999969e-01 6.630185289679957350e-10
1.849999999999999978e-01 -1.542216132577323151e-09
1.859999999999999987e-01 1.388064774232589116e-09
1.869999999999999996e-01 -1.121015280602932762e-09
1.880000000000000004e-01 1.474926847322421963e-09
1.890000000000000013e-01 -2.658751441231288482e-09
1.900000000000000022e-01 1.385863868108572206e-09
1.910000000000000031e-01 -1.191224896501807962e-09
1.920000000000000040e-01 2.396188136799537460e-09
1.930000000000000049e-01 -2.743174576380624785e-09
1.940000000000000058e-01 1.746334632457546832e-09
1.950000000000000067e-01 -3.107162527271611907e-09
1.960000000000000075e-01 2.921918706988435588e-09
1.970000000000000084e-01 -2.090047246383619495e-09
1.980000000000000093e-01 1.541287986128736520e-09
1.990000000000000102e-01 -3.297230932730599307e-09
2.000000000000000111e-01 1.341099675755685894e-09
2.010000000000000120e-01 -6.439933031288092025e-10
2.020000000000000129e-01 -9.540457313050865196e-11
2.030000000000000138e-01 5.915623546570714097e-10
2.040000000000000147e-01 -2.894800843478151364e-09
2.050000000000000155e-01 2.144801669601292815e-09
2.060000000000000164e-01 -2.381746355695213424e-09
2.070000000000000173e-01 2.916081598414166365e-09
2.080000000000000182e-01 -3.391456004919746192e-09
2.090000000000000191e-01 9.125784572461270727e-10
2.100000000000000200e-01 -5.561133775700000115e-10
2.110000000000000209e-01 -1.072294253390282393e-09
2.120000000000000218e-01 2.527954734432569239e-09
2.130000000000000226e-01 -3.770495027310971636e-09
2.140000000000000235e-01 3.108894475190027151e-09
2.150000000000000244e-01 -2.658424591572838835e-09
2.160000000000000253e-01 2.311949742761498783e-09
2.170000000000000262e-01 7.914735533631755970e-10
2.180000000000000271e-01 -2.987363245665619615e-09
2.190000000000000280e-01 5.537359015761467163e-09
2.200000000000000289e-01 -5.301927785694715567e-09
2.210000000000000298e-01 5.345981435311841778e-09
2.220000000000000306e-01 8.585629984736442566e-10
2.230000000000000315e-01 -3.670720616355538368e-09
2.240000000000000324e-01 9.969710390578256920e-09
2.250000000000000333e-01 -8.333501000379328616e-09
2.260000000000000342e-01 9.573170700605260208e-09
2.270000000000000351e-01 -9.297309588873758912e-10
2.280000000000000360e-01 -2.428492962280870415e-09
2.290000000000000369e-01 1.283268602492171340e-08
2.300000000000000377e-01 -1.162450757874466944e-08
2.310000000000000386e-01 1.507630997821252095e-08
2.319999999999999840e-01 -6.267796948122850154e-09
2.329999999999999849e-01 3.879662813233153429e-09
2.339999999999999858e-01 4.497877625908586197e-09
2.349999999999999867e-01 -2.179930902457272168e-09
2.359999999999999876e-01 2.628318895858683391e-09
2.369999999999999885e-01 5.876199082877064939e-09
2.379999999999999893e-01 -4.665055008956642268e-09
2.389999999999999902e-01 8.057856604182234150e-09
2.399999999999999911e-01 -1.365144441933807684e-09
2.409999999999999920e-01 -9.317204785475041717e-10
2.419999999999999929e-01 2.760828010650584474e-09
2.429999999999999938e-01 3.620925781433470547e-11
2.439999999999999947e-01 -3.780286306209745817e-09
2.449999999999999956e-01 4.419860033522127196e-09
2.459999999999999964e-01 -8.340720114574651234e-09
2.469999999999999973e-01 1.733951648930087686e-09
2.479999999999999982e-01 -1.384023562422953546e-09
2.489999999999999991e-01 -4.299124611861770973e-09
2.500000000000000000e-01 -3.119964731013169512e-09
2.510000000000000009e-01 9.214318197336979210e-11
2.520000000000000018e-01 -8.421295660809846595e-09
2.530000000000000027e-01 -1.166085894510615617e-09
2.540000000000000036e-01 -1.431885721103753895e-09
2.550000000000000044e-01 -1.122873527492629364e-08
2.560000000000000053e-01 -2.647880137374158949e-09
2.570000000000000062e-01 -6.465370461228303611e-09
2.580000000000000071e-01 -7.505377652705647051e-09
2.590000000000000080e-01 -7.211951924546156079e-09
2.600000000000000089e-01 -4.405137588037177920e-09
2.610000000000000098e-01 -1.234468527400167659e-08
2.620000000000000107e-01 -6.465484148066025227e-09
2.630000000000000115e-01 -3.363311407156288624e-09
2.640000000000000124e-01 -1.334490207227645442e-08
2.650000000000000133e-01 -6.548020792251918465e-09
2.660000000000000142e-01 -6.967184162931516767e-09
2.670000000000000151e-01 -9.265875178243732080e-09
2.680000000000000160e-01 -8.326537681568879634e-09
2.690000000000000169e-01 -3.996319719590246677e-09
2.700000000000000178e-01 -7.508219823648687452e-09
2.710000000000000187e-01 -9.376151410833699629e-09
2.720000000000000195e-01 -1.097362201107898727e-10
2.730000000000000204e-01 -6.081819492465001531e-09
2.740000000000000213e-01 -5.513200562745623756e-09
2.750000000000000222e-01 1.307611796619312372e-10
2.760000000000000231e-01 -2.740264903877687175e-09
2.770000000000000240e-01 -2.402146037638885900e-09
2.780000000000000249e-01 -1.708428953861584887e-10
2.790000000000000258e-01 3.562035999493673444e-09
2.800000000000000266e-01 -1.862815679487539455e-09
2.810000000000000275e-01 4.921503204968757927e-10
2.820000000000000284e-01 6.857135304016992450e-09
2.830000000000000293e-01 5.219931153988000005e-10
2.840000000000000302e-01 3.371496859472244978e-09
2.850000000000000311e-01 6.786535777791868895e-09
2.860000000000000320e-01 3.455170372035354376e-09
2.870000000000000329e-01 3.347622623550705612e-09
2.880000000000000338e-01 4.837374945054762065e-09
2.890000000000000346e-01 7.862354323151521385e-09
2.900000000000000355e-01 3.097397893725428730e-09
2.910000000000000364e-01 4.627736416296102107e-09
2.920000000000000373e-01 1.090870682673994452e-08
2.930000000000000382e-01 4.635126060748007149e-09
2.940000000000000391e-01 3.691638994496315718e-09
2.950000000000000400e-01 7.264588930411264300e-09
2.960000000000000409e-01 4.619437277142424136e-09
2.969999999999999862e-01 2.521915121178608388e-09
2.979999999999999871e-01 2.114688868459779769e-09
2.989999999999999880e-01 4.400362740852870047e-09
2.999999999999999889e-01 4.499725037021562457e-10
3.009999999999999898e-01 -3.347963684063870460e-09
3.019999999999999907e-01 1.755381617840612307e-09
3.029999999999999916e-01 -2.254182618344202638e-09
3.039999999999999925e-01 -7.792550604790449142e-09
3.049999999999999933e-01 -3.178740826115245000e-09
3.059999999999999942e-01 -3.253859404139802791e-09
3.069999999999999951e-01 -5.673513214787817560e-09
3.079999999999999960e-01 -7.515197353313851636e-09
3.089999999999999969e-01 -6.405514341167872772e-09
3.099999999999999978e-01 -4.973827572030131705e-09
3.109999999999999987e-01 -9.946997892029685318e-09
3.119999999999999996e-01 -7.703974347350595053e-09
3.130000000000000004e-01 -3.483009436422435101e-09
3.140000000000000013e-01 -9.519411037217651028e-09
3.150000000000000022e-01 -9.741768280946416780e-09
3.160000000000000031e-01 -6.054534651411813684e-09
3.170000000000000040e-01 -7.663118140044389293e-09
3.180000000000000049e-01 -8.808655138636822812e-09
3.190000000000000058e-01 -9.493504649071837775e-09
3.200000000000000067e-01 -6.505189276140299626e-09
3.210000000000000075e-01 -5.532911018235608935e-09
3.220000000000000084e-01 -1.038887376125785522e-08
3.230000000000000093e-01 -7.206779173429822549e-09
3.240000000000000102e-01 -4.133426045882515609e-09
3.250000000000000111e-01 -8.326367151312297210e-09
3.260000000000000120e-01 -7.692619874433148652e-09
3.270000000000000129e-01 -4.660819286073092371e-09
3.280000000000000138e-01 -5.085212251287885010e-09
3.290000000000000147e-01 -5.779952516604680568e-09
3.300000000000000155e-01 -7.052165074128424749e-09
3.310000000000000164e-01 -3.853330099445884116e-09
3.320000000000000173e-01 -2.269985088787507266e-09
3.330000000000000182e-01 -7.138538649087422527e-09
3.340000000000000191e-01 -4.596643066179240122e-09
3.350000000000000200e-01 -6.294555987551575527e-10
3.360000000000000209e-01 -4.356934368843212724e-09
3.370000000000000218e-01 -5.265405889076646417e-09
3.380000000000000226e-01 -2.039371338469209149e-09
3.390000000000000235e-01 -1.510471747678820975e-09
3.400000000000000244e-01 -2.681346700228459667e-09
3.410000000000000253e-01 -4.711452561423357110e-09
3.420000000000000262e-01 -2.694747536224895157e-09
3.430000000000000271e-01 4.788347496287315153e-10
3.440000000000000280e-01 -4.101735839867615141e-09
3.450000000000000289e-01 -4.692978450293594506e-09
3.460000000000000298e-01 3.121201075373392086e-10
3.470000000000000306e-01 -2.391765008269430837e-09
3.480000000000000315e-01 -4.626283356401472702e-09
3.490000000000000324e-01 -1.970477114809909835e-09
3.500000000000000333e-01 -1.451732956070372893e-09
3.510000000000000342e-01 -1.603825516838242038e-09
3.520000000000000351e-01 -4.491631955261254916e-09
3.530000000000000360e-01 -3.921630131742404046e-09
3.540000000000000369e-01 -5.022027238510418101e-11
3.550000000000000377e-01 -2.295225343118545425e-09
3.560000000000000386e-01 -5.970768768293055473e-09
3.570000000000000395e-01 -2.572614121731930936e-09
3.580000000000000404e-01 -9.557794555803411640e-10
3.590000000000000413e-01 -3.824311534117441624e-09
3.599999999999999867e-01 -4.233125849850694067e-09
3.609999999999999876e-01 -3.361069644824965508e-09
3.619999999999999885e-01 -2.336520310564083047e-09
3.629999999999999893e-01 -2.538467214208139922e-09
3.639999999999999902e-01 -4.922107166294154013e-09
3.649999999999999911e-01 -2.429743517495808192e-09
3.659999999999999920e-01 -1.967350726772565395e-10
3.669999999999999929e-01 -4.131656794470472960e-09
3.679999999999999938e-01 -4.579026935402907839e-09
3.689999999999999947e-01 -7.116085498637403361e-12
3.699999999999999956e-01 -1.875271493645414012e-09
3.709999999999999964e-01 -4.925448493509065884e-09
3.719999999999999973e-01 -4.974396006218739785e-09
3.729999999999999982e-01 -2.939414045499688655e-09
3.739999999999999991e-01 -1.675457994565476838e-09
3.750000000000000000e-01 -3.761218891895623528e-09
3.760000000000000009e-01 -5.111871814733603969e-09
3.770000000000000018e-01 2.134328269676188938e-10
3.780000000000000027e-01 2.244952668206678936e-09
3.790000000000000036e-01 -1.265888727175479289e-09
3.800000000000000044e-01 2.207798388553783298e-10
3.810000000000000053e-01 2.439975332890753634e-09
3.820000000000000062e-01 7.454588057953515090e-10
3.830000000000000071e-01 3.724949237948749214e-10
3.840000000000000080e-01 1.336303512289305218e-09
3.850000000000000089e-01 3.097881062785745598e-09
3.860000000000000098e-01 6.137668151495745406e-09
3.870000000000000107e-01 6.472248514910461381e-09
3.880000000000000115e-01 7.900382570369401947e-09
3.890000000000000124e-01 1.397592086505028419e-08
3.900000000000000133e-01 1.497761559221544303e-08
3.910000000000000142e-01 1.248440639756154269e-08
3.920000000000000151e-01 1.588682607689406723e-08
3.930000000000000160e-01 2.135698196070734411e-08
3.940000000000000169e-01 2.423882961011258885e-08
3.950000000000000178e-01 2.680963007151149213e-08
3.960000000000000187e-01 3.126956471533048898e-08
3.970000000000000195e-01 3.863397068926133215e-08
3.980000000000000204e-01 4.590106073010247201e-08
3.990000000000000213e-01 4.720868673757649958e-08
4.000000000000000222e-01 5.064202923676930368e-08
4.010000000000000231e-01 6.060781743144616485e-08
4.020000000000000240e-01 6.697973731206730008e-08
4.030000000000000249e-01 7.219250619527883828e-08
4.040000000000000258e-01 8.291408448712900281e-08
4.050000000000000266e-01 9.343693818664178252e-08
4.060000000000000275e-01 1.015105226542800665e-07
4.070000000000000284e-01 1.093649188987910748e-07
4.080000000000000293e-01 1.180833351099863648e-07
4.090000000000000302e-01 1.277130650123581290e-07
4.100000000000000311e-01 1.387707015965133905e-07
4.110000000000000320e-01 1.462722138967365026e-07
4.120000000000000329e-01 1.563821570016443729e-07
4.130000000000000338e-01 1.705666363704949617e-07
4.140000000000000346e-01 1.803218765417113900e-07
4.150000000000000355e-01 1.842090568970888853e-07
4.160000000000000364e-01 1.909247657749801874e-07
4.170000000000000373e-01 1.991102180909365416e-07
4.180000000000000382e-01 2.048509486485272646e-07
4.190000000000000391e-01 2.075321390293538570e-07
4.200000000000000400e-01 2.083688741549849510e-07
4.210000000000000409e-01 2.092601789627224207e-07
4.220000000000000417e-01 2.091619535349309444e-07
4.230000000000000426e-01 2.001397660933434963e-07
4.240000000000000435e-01 1.865773811005055904e-07
4.250000000000000444e-01 1.752778189256787300e-07
4.260000000000000453e-01 1.601947587914764881e-07
4.270000000000000462e-01 1.375665306113660336e-07
4.280000000000000471e-01 1.130829332396388054e-07
4.290000000000000480e-01 8.504139259457588196e-08
4.300000000000000488e-01 4.948378773406147957e-08
4.310000000000000497e-01 7.712515071034431458e-09
4.320000000000000506e-01 -3.863533493131399155e-08
4.330000000000000515e-01 -8.942151907831430435e-08
4.340000000000000524e-01 -1.413864083588123322e-07
4.350000000000000533e-01 -2.011220203712582588e-07
4.360000000000000542e-01 -2.682645572349429131e-07
4.370000000000000551e-01 -3.353488864377140999e-07
4.380000000000000560e-01 -4.054163582623004913e-07
4.390000000000000568e-01 -4.849571269005537033e-07
4.400000000000000577e-01 -5.654001142829656601e-07
4.410000000000000586e-01 -6.448826752603054047e-07
4.420000000000000595e-01 -7.236521923914551735e-07
4.430000000000000604e-01 -8.011993486434221268e-07
4.440000000000000613e-01 -8.807401172816753387e-07
4.450000000000000622e-01 -9.588402463123202324e-07
4.460000000000000631e-01 -1.029620761983096600e-06
4.470000000000000639e-01 -1.095482730306684971e-06
4.480000000000000648e-01 -1.159452949650585651e-06
4.490000000000000657e-01 -1.212290953844785690e-06
4.500000000000000666e-01 -1.252090441994369030e-06
4.510000000000000675e-01 -1.284905010834336281e-06
4.520000000000000684e-01 -1.307154889218509197e-06
4.530000000000000693e-01 -1.316147972829639912e-06
4.540000000000000702e-01 -1.310276275034993887e-06
4.550000000000000711e-01 -1.288950443267822266e-06
4.560000000000000719e-01 -1.251079083885997534e-06
4.569999999999999618e-01 -1.199474354507401586e-06
4.579999999999999627e-01 -1.128140866057947278e-06
4.589999999999999636e-01 -1.038306436385028064e-06
4.599999999999999645e-01 -9.359937394037842751e-07
4.609999999999999654e-01 -8.174974936991930008e-07
4.619999999999999662e-01 -6.770133040845394135e-07
4.629999999999999671e-01 -5.212496034801006317e-07
4.639999999999999680e-01 -3.541208570823073387e-07
4.649999999999999689e-01 -1.744483597576618195e-07
4.659999999999999698e-01 1.602165866643190384e-08
4.669999999999999707e-01 2.154556568711996078e-07
4.679999999999999716e-01 4.228204488754272461e-07
4.689999999999999725e-01 6.304762791842222214e-07
4.699999999999999734e-01 8.413917385041713715e-07
4.709999999999999742e-01 1.055974280461668968e-06