-1.199999999999999956e-01 -0.000000000000000000e+00
-1.189999999999999947e-01 -0.000000000000000000e+00
-1.179999999999999938e-01 -0.000000000000000000e+00
-1.169999999999999929e-01 -0.000000000000000000e+00
-1.159999999999999920e-01 -0.000000000000000000e+00
-1.149999999999999911e-01 -0.000000000000000000e+00
-1.139999999999999902e-01 -0.000000000000000000e+00
-1.129999999999999893e-01 -0.000000000000000000e+00
-1.119999999999999885e-01 -0.000000000000000000e+00
-1.109999999999999876e-01 -0.000000000000000000e+00
-1.100000000000000006e-01 -0.000000000000000000e+00
-1.089999999999999997e-01 -0.000000000000000000e+00
-1.079999999999999988e-01 -0.000000000000000000e+00
-1.069999999999999979e-01 -0.000000000000000000e+00
-1.059999999999999970e-01 -0.000000000000000000e+00
-1.049999999999999961e-01 -0.000000000000000000e+00
-1.039999999999999952e-01 -0.000000000000000000e+00
-1.029999999999999943e-01 -0.000000000000000000e+00
-1.019999999999999934e-01 -0.000000000000000000e+00
-1.009999999999999926e-01 -0.000000000000000000e+00
-9.999999999999999167e-02 -0.000000000000000000e+00
-9.899999999999999079e-02 -0.000000000000000000e+00
-9.800000000000000377e-02 -0.000000000000000000e+00
-9.700000000000000289e-02 -0.000000000000000000e+00
-9.600000000000000200e-02 -0.000000000000000000e+00
-9.500000000000000111e-02 -0.000000000000000000e+00
-9.400000000000000022e-02 -0.000000000000000000e+00
-9.299999999999999933e-02 -0.000000000000000000e+00
-9.199999999999999845e-02 -0.000000000000000000e+00
-9.099999999999999756e-02 -0.000000000000000000e+00
-8.999999999999999667e-02 -0.000000000000000000e+00
-8.899999999999999578e-02 -0.000000000000000000e+00
-8.799999999999999489e-02 -0.000000000000000000e+00
-8.699999999999999400e-02 -0.000000000000000000e+00
-8.599999999999999312e-02 -0.000000000000000000e+00
-8.499999999999999223e-02 -0.000000000000000000e+00
-8.399999999999999134e-02 -0.000000000000000000e+00
-8.299999999999999045e-02 -0.000000000000000000e+00
-8.199999999999998956e-02 -0.000000000000000000e+00
-8.099999999999998868e-02 -0.000000000000000000e+00
-7.999999999999998779e-02 -0.000000000000000000e+00
-7.899999999999998690e-02 -0.000000000000000000e+00
-7.799999999999998601e-02 -0.000000000000000000e+00
-7.699999999999998512e-02 -0.000000000000000000e+00
-7.599999999999999811e-02 -0.000000000000000000e+00
-7.499999999999999722e-02 -0.000000000000000000e+00
-7.399999999999999634e-02 -0.000000000000000000e+00
-7.299999999999999545e-02 -0.000000000000000000e+00
-7.199999999999999456e-02 -0.000000000000000000e+00
-7.099999999999999367e-02 -0.000000000000000000e+00
-6.999999999999999278e-02 -0.000000000000000000e+00
-6.899999999999999190e-02 -0.000000000000000000e+00
-6.799999999999999101e-02 -0.000000000000000000e+00
-6.700000000000000400e-02 -0.000000000000000000e+00
-6.600000000000000311e-02 -0.000000000000000000e+00
-6.500000000000000222e-02 -0.000000000000000000e+00
-6.400000000000000133e-02 -0.000000000000000000e+00
-6.300000000000000044e-02 -0.000000000000000000e+00
-6.199999999999999262e-02 -0.000000000000000000e+00
-6.099999999999999173e-02 -0.000000000000000000e+00
-5.999999999999999778e-02 -0.000000000000000000e+00
-5.899999999999999689e-02 -0.000000000000000000e+00
-5.799999999999999600e-02 -0.000000000000000000e+00
-5.699999999999999512e-02 -0.000000000000000000e+00
-5.599999999999999423e-02 -0.000000000000000000e+00
-5.499999999999999334e-02 -0.000000000000000000e+00
-5.399999999999999245e-02 -0.000000000000000000e+00
-5.299999999999999156e-02 -0.000000000000000000e+00
-5.199999999999999067e-02 -0.000000000000000000e+00
-5.099999999999998979e-02 -0.000000000000000000e+00
-4.999999999999998890e-02 -0.000000000000000000e+00
-4.899999999999998801e-02 -0.000000000000000000e+00
-4.799999999999998712e-02 -0.000000000000000000e+00
-4.700000000000000011e-02 -0.000000000000000000e+00
-4.599999999999999922e-02 -0.000000000000000000e+00
-4.499999999999999833e-02 -0.000000000000000000e+00
-4.399999999999999745e-02 -0.000000000000000000e+00
-4.299999999999999656e-02 -0.000000000000000000e+00
-4.199999999999999567e-02 6.740245613402370111e-43
-4.099999999999999478e-02 -1.891979937189723666e-39
-3.999999999999999389e-02 2.910800667068159818e-36
-3.899999999999999301e-02 -2.262419610413931236e-33
-3.799999999999999212e-02 7.640141519892628841e-31
-3.699999999999999123e-02 -6.890592155028652435e-29
-3.599999999999999034e-02 -4.819172840410538256e-27
-3.499999999999998945e-02 9.446609340021616370e-28
-3.399999999999998856e-02 1.110550809305450298e-23
-3.299999999999998768e-02 6.766062760871004633e-22
-3.200000000000000067e-02 2.435470462479293611e-20
-3.099999999999999978e-02 5.341262379571284772e-19
-2.999999999999999889e-02 3.032272072051988426e-18
-2.899999999999999800e-02 -2.091302641551594146e-16
-2.799999999999999711e-02 -6.403050697078790932e-15
-2.699999999999999623e-02 -6.527639756850889263e-14
-2.599999999999999534e-02 5.692191509809596539e-14
-2.499999999999999445e-02 4.880982770738562238e-12
-2.399999999999999356e-02 1.688905959529307665e-11
-2.299999999999999267e-02 -7.215839037399973677e-11
-2.199999999999999178e-02 -2.786708641622226423e-10
-2.099999999999999090e-02 3.279114757503975852e-10
-1.999999999999999001e-02 6.487101966712316425e-10
-1.899999999999998912e-02 -4.849063373058015713e-10
-1.799999999999998823e-02 6.728712032000316867e-10
-1.699999999999998734e-02 -4.657856322864972753e-10
-1.599999999999998646e-02 6.414876407845326867e-10
-1.499999999999999944e-02 -5.069181741035322375e-10
-1.399999999999999856e-02 7.295498094528340971e-10
-1.299999999999999767e-02 -5.778929001998278636e-10
-1.199999999999999678e-02 5.840185557381971648e-10
-1.099999999999999589e-02 -3.044551277753271279e-10
-9.999999999999995004e-03 -1.015105222101908566e-10
-8.999999999999994116e-03 3.188546093824129457e-10
-7.999999999999993228e-03 -7.058071904708640432e-10
-6.999999999999992339e-03 1.119152992501426525e-09
-5.999999999999991451e-03 1.632072255119965121e-11
-4.999999999999990563e-03 -1.640691138504735136e-09
-3.999999999999989675e-03 7.546393510082793910e-10
-2.999999999999988787e-03 -1.341967648116337841e-09
-1.999999999999987899e-03 8.221134883967806672e-11
-9.999999999999870104e-04 8.943876750322488078e-10
0.000000000000000000e+00 -5.062279484491227777e-10
1.000000000000000888e-03 3.477795829098795366e-10
2.000000000000001776e-03 5.479963149923605670e-10
3.000000000000002665e-03 -4.415490195697202580e-10
4.000000000000003553e-03 4.429283606555145525e-10
5.000000000000004441e-03 3.333671116934056045e-10
6.000000000000005329e-03 -5.942446534845657879e-10
7.000000000000006217e-03 4.458211577684778604e-10
8.000000000000007105e-03 5.192646312934812158e-10
9.000000000000007994e-03 -3.961986294598318636e-10
1.000000000000000888e-02 5.666898061917891027e-10
1.100000000000000977e-02 9.775575904313882347e-10
1.200000000000001066e-02 3.684377247736847494e-10
1.300000000000001155e-02 1.427402196441107662e-09
1.400000000000001243e-02 2.054406422757892869e-09
1.500000000000001332e-02 1.243428471298102522e-09
1.600000000000001421e-02 1.930558823914907407e-09
1.700000000000001510e-02 2.854164904420031235e-09
1.800000000000001599e-02 2.196600235038204119e-09
1.900000000000001688e-02 2.613944616314256564e-09
2.000000000000001776e-02 3.976737161792698316e-09
2.100000000000001865e-02 4.041368129037437029e-09
2.200000000000001954e-02 4.727979785457137041e-09
2.300000000000002043e-02 6.683478659397223964e-09
2.400000000000002132e-02 7.262883627845440060e-09
2.499999999999999445e-02 7.578307759104063734e-09
2.599999999999999534e-02 9.602445061318576336e-09
2.699999999999999623e-02 1.118451109505258501e-08
2.799999999999999711e-02 1.206547040055738762e-08
2.899999999999999800e-02 1.459034137951675802e-08
2.999999999999999889e-02 1.748367139953188598e-08
3.099999999999999978e-02 1.926389359141467139e-08
3.200000000000000067e-02 2.205308646807679906e-08
3.300000000000000155e-02 2.591173142718616873e-08
3.400000000000000244e-02 2.883098204620182514e-08
3.500000000000000333e-02 3.233094503229949623e-08
3.600000000000000422e-02 3.780110091611277312e-08
3.700000000000000511e-02 4.295839062251616269e-08
3.800000000000000600e-02 4.757293936563655734e-08
3.900000000000000688e-02 5.389802026911638677e-08
4.000000000000000777e-02 6.096524884924292564e-08
4.100000000000000866e-02 6.759637471986934543e-08
4.200000000000000955e-02 7.568769433419220150e-08
4.300000000000001044e-02 8.544111551600508392e-08
4.400000000000001132e-02 9.450377547182142735e-08
4.500000000000001221e-02 1.040798451867885888e-07
4.600000000000001310e-02 1.158023223979398608e-07
4.700000000000001399e-02 1.279859134228900075e-07
4.800000000000001488e-02 1.401958797941915691e-07
4.900000000000001577e-02 1.540829543955624104e-07
5.000000000000001665e-02 1.691259967628866434e-07
5.100000000000001754e-02 1.837070158217102289e-07
5.200000000000001843e-02 1.992666511796414852e-07
5.300000000000001932e-02 2.169181243516504765e-07
5.400000000000002021e-02 2.344586391700431705e-07
5.500000000000002109e-02 2.519846020732074976e-07
5.599999999999999423e-02 2.712549758143723011e-07
5.699999999999999512e-02 2.912511263275519013e-07
5.799999999999999600e-02 3.101195034105330706e-07
5.899999999999999689e-02 3.301393007859587669e-07
5.999999999999999778e-02 3.514396667014807463e-07
6.099999999999999867e-02 3.711538738571107388e-07
6.199999999999999956e-02 3.907553036697208881e-07
6.300000000000000044e-02 4.101093509234488010e-07
6.400000000000000133e-02 4.291578079573810101e-07
6.500000000000000222e-02 4.462526703719049692e-07
6.600000000000000311e-02 4.630346666090190411e-07
6.700000000000000400e-02 4.789617378264665604e-07
6.800000000000000488e-02 4.925605026073753834e-07
6.900000000000000577e-02 5.041365511715412140e-07
7.000000000000000666e-02 5.143629095982760191e-07
7.100000000000000755e-02 5.228503141552209854e-07
7.200000000000000844e-02 5.236142897047102451e-07
7.300000000000000933e-02 5.333276931196451187e-07
7.400000000000001021e-02 5.147376214154064655e-07
7.500000000000001110e-02 5.450056050904095173e-07
7.600000000000001199e-02 4.822941264137625694e-07
7.700000000000001288e-02 5.415568011812865734e-07
7.800000000000001377e-02 4.526591510511934757e-07
7.900000000000001465e-02 4.826652002520859241e-07
8.000000000000001554e-02 4.474641173146665096e-07
8.100000000000001643e-02 3.902241587638854980e-07
8.200000000000001732e-02 4.066969268023967743e-07
8.300000000000001821e-02 3.399545676074922085e-07
8.400000000000001910e-02 2.846936695277690887e-07
8.500000000000001998e-02 2.744272933341562748e-07
8.600000000000002087e-02 1.957705535460263491e-07
8.700000000000002176e-02 1.191874616779386997e-07
8.800000000000002265e-02 8.040478860493749380e-08
8.899999999999999578e-02 -6.653863238170742989e-09
8.999999999999999667e-02 -1.211883500218391418e-07
9.099999999999999756e-02 -1.933464659487071913e-07
9.199999999999999845e-02 -2.790766302496194839e-07
9.299999999999999933e-02 -4.114899638807401061e-07
9.400000000000000022e-02 -5.240926839178428054e-07
9.500000000000000111e-02 -6.117334123700857162e-07
9.600000000000000200e-02 -7.374910637736320496e-07
9.700000000000000289e-02 -8.846982382237911224e-07
9.800000000000000377e-02 -1.018845068756490946e-06
9.900000000000000466e-02 -1.168911694549024105e-06
1.000000000000000056e-01 -1.357075234409421682e-06
1.010000000000000064e-01 -1.573353074491024017e-06
1.020000000000000073e-01 -1.829699613153934479e-06
1.030000000000000082e-01 -2.106506144627928734e-06
1.040000000000000091e-01 -2.400229277554899454e-06
1.050000000000000100e-01 -2.768370904959738255e-06
1.060000000000000109e-01 -3.201726940460503101e-06
1.070000000000000118e-01 -3.643814125098288059e-06
1.080000000000000127e-01 -4.152796464040875435e-06
1.090000000000000135e-01 -4.785120836459100246e-06
1.100000000000000144e-01 -5.504916771315038204e-06
1.110000000000000153e-01 -6.332615157589316368e-06
1.120000000000000162e-01 -7.309863576665520668e-06
1.130000000000000171e-01 -8.414586773142218590e-06
1.140000000000000180e-01 -9.688374120742082596e-06
1.150000000000000189e-01 -1.117865031119436026e-05
1.160000000000000198e-01 -1.285210601054131985e-05
1.170000000000000207e-01 -1.476136094424873590e-05
1.180000000000000215e-01 -1.698765845503658056e-05
1.190000000000000224e-01 -1.951471494976431131e-05
1.199999999999999956e-01 -2.237330045318230987e-05
1.209999999999999964e-01 -2.564033638918772340e-05
1.219999999999999973e-01 -2.933223004220053554e-05
1.229999999999999982e-01 -3.349823964526876807e-05
1.239999999999999991e-01 -3.819129051407799125e-05
1.250000000000000000e-01 -4.342815373092889786e-05
1.260000000000000009e-01 -4.928597991238348186e-05
1.270000000000000018e-01 -5.584260361501947045e-05
1.280000000000000027e-01 -6.311600009212270379e-05
1.290000000000000036e-01 -7.118967914720997214e-05
1.300000000000000044e-01 -8.013588376343250275e-05
1.310000000000000053e-01 -8.995299140224233270e-05
1.320000000000000062e-01 -1.006978927762247622e-04
1.330000000000000071e-01 -1.124562695622444153e-04
1.340000000000000080e-01 -1.252670190297067165e-04
1.350000000000000089e-01 -1.391920814057812095e-04
1.360000000000000098e-01 -1.542765821795910597e-04
1.370000000000000107e-01 -1.705232425592839718e-04
1.380000000000000115e-01 -1.879654882941395044e-04
1.390000000000000124e-01 -2.066155284410342574e-04
1.400000000000000133e-01 -2.264424110762774944e-04
1.410000000000000142e-01 -2.474694338161498308e-04
1.420000000000000151e-01 -2.696890733204782009e-04
1.430000000000000160e-01 -2.930296177510172129e-04
1.440000000000000169e-01 -3.174395242240279913e-04
1.450000000000000178e-01 -3.428350319154560566e-04
1.460000000000000187e-01 -3.690813900902867317e-04
1.470000000000000195e-01 -3.960558969993144274e-04
1.480000000000000204e-01 -4.236014792695641518e-04
1.490000000000000213e-01 -4.515234322752803564e-04
1.500000000000000222e-01 -4.796456487383693457e-04
1.510000000000000231e-01 -5.077359382994472980e-04
1.520000000000000240e-01 -5.354868480935692787e-04
1.530000000000000249e-01 -5.626148777082562447e-04
1.540000000000000258e-01 -5.888118757866322994e-04
1.550000000000000266e-01 -6.136994925327599049e-04
1.560000000000000275e-01 -6.369187030941247940e-04
1.570000000000000284e-01 -6.580793997272849083e-04
1.580000000000000293e-01 -6.767493905499577522e-04
1.590000000000000302e-01 -6.925131310708820820e-04
1.600000000000000311e-01 -7.049245177768170834e-04
1.610000000000000320e-01 -7.135083433240652084e-04
1.620000000000000329e-01 -7.178419036790728569e-04
1.630000000000000338e-01 -7.174882339313626289e-04
1.640000000000000346e-01 -7.119754445739090443e-04
1.650000000000000355e-01 -7.008942775428295135e-04
1.660000000000000364e-01 -6.838528206571936607e-04
1.670000000000000373e-01 -6.604588124901056290e-04
1.680000000000000382e-01 -6.304041016846895218e-04
1.689999999999999836e-01 -5.934094078838825226e-04
1.699999999999999845e-01 -5.492309574037790298e-04
1.709999999999999853e-01 -4.977441276423633099e-04
1.719999999999999862e-01 -4.388542438391596079e-04
1.729999999999999871e-01 -3.725259448401629925e-04
1.739999999999999880e-01 -2.988246269524097443e-04
1.749999999999999889e-01 -2.179117873311042786e-04
1.759999999999999898e-01 -1.300122385146096349e-04
1.769999999999999907e-01 -3.547135929693467915e-05
1.779999999999999916e-01 6.525591015815734863e-05
1.789999999999999925e-01 1.716787664918228984e-04
1.799999999999999933e-01 2.831520978361368179e-04
1.809999999999999942e-01 3.989574615843594074e-04
1.819999999999999951e-01 5.183079629205167294e-04
1.829999999999999960e-01 6.402986473403871059e-04
1.839999999999999969e-01 7.639383547939360142e-04
1.849999999999999978e-01 8.882122929207980633e-04
1.859999999999999987e-01 1.012032502330839634e-03
1.869999999999999996e-01 1.134239952079951763e-03
1.880000000000000004e-01 1.253678230568766594e-03
1.890000000000000013e-01 1.369159785099327564e-03
1.900000000000000022e-01 1.479474711231887341e-03
1.910000000000000031e-01 1.583450706675648689e-03
1.920000000000000040e-01 1.679911511018872261e-03
1.930000000000000049e-01 1.767737558111548424e-03
1.940000000000000058e-01 1.845884835347533226e-03
1.950000000000000067e-01 1.913375221192836761e-03
1.960000000000000075e-01 1.969290897250175476e-03
1.970000000000000084e-01 2.012848388403654099e-03
1.980000000000000093e-01 2.043372485786676407e-03
1.990000000000000102e-01 2.060300204902887344e-03
2.000000000000000111e-01 2.063220599666237831e-03
2.010000000000000120e-01 2.051885239779949188e-03
2.020000000000000129e-01 2.026157453656196594e-03
2.030000000000000138e-01 1.986087067052721977e-03
2.040000000000000147e-01 1.931869774125516415e-03
2.050000000000000155e-01 1.863842830061912537e-03
2.060000000000000164e-01 1.782514154911041260e-03
2.070000000000000173e-01 1.688554883003234863e-03
2.080000000000000182e-01 1.582745229825377464e-03
2.090000000000000191e-01 1.466008252464234829e-03
2.100000000000000200e-01 1.339385285973548889e-03
2.110000000000000209e-01 1.204034080728888512e-03
2.120000000000000218e-01 1.061178627423942089e-03
2.130000000000000226e-01 9.121538605540990829e-04
2.140000000000000235e-01 7.583097321912646294e-04
2.150000000000000244e-01 6.010597571730613708e-04
2.160000000000000253e-01 4.418580792844295502e-04
2.170000000000000262e-01 2.821101224981248379e-04
2.180000000000000271e-01 1.232275535585358739e-04
2.190000000000000280e-01 -3.339847171446308494e-05
2.200000000000000289e-01 -1.864181103883311152e-04
2.210000000000000298e-01 -3.345905279275029898e-04
2.220000000000000306e-01 -4.767073260154575109e-04
2.230000000000000315e-01 -6.116866716183722019e-04
2.240000000000000324e-01 -7.385583012364804745e-04
2.250000000000000333e-01 -8.564415038563311100e-04
2.260000000000000342e-01 -9.645804530009627342e-04
2.270000000000000351e-01 -1.062374678440392017e-03
2.280000000000000360e-01 -1.149329124018549919e-03
2.290000000000000369e-01 -1.225075917318463326e-03
2.300000000000000377e-01 -1.289409119635820389e-03
2.310000000000000386e-01 -1.342253643088042736e-03
2.319999999999999840e-01 -1.383619615808129311e-03
2.329999999999999849e-01 -1.413683174178004265e-03
2.339999999999999858e-01 -1.432704972103238106e-03
2.349999999999999867e-01 -1.441047410480678082e-03
2.359999999999999876e-01 -1.439205021597445011e-03
2.369999999999999885e-01 -1.427719835191965103e-03
2.379999999999999893e-01 -1.407211530022323132e-03
2.389999999999999902e-01 -1.378373359329998493e-03
2.399999999999999911e-01 -1.341945724561810493e-03
2.409999999999999920e-01 -1.298686489462852478e-03
2.419999999999999929e-01 -1.249394728802144527e-03
2.429999999999999938e-01 -1.194898155517876148e-03
2.439999999999999947e-01 -1.135999918915331364e-03
2.449999999999999956e-01 -1.073505263775587082e-03
2.459999999999999964e-01 -1.008212566375732422e-03
2.469999999999999973e-01 -9.408653131686151028e-04
2.479999999999999982e-01 -8.721962221898138523e-04
2.489999999999999991e-01 -8.029116434045135975e-04
2.500000000000000000e-01 -7.336515118367969990e-04
2.510000000000000009e-01 -6.650007562711834908e-04
2.520000000000000018e-01 -5.975047242827713490e-04
2.530000000000000027e-01 -5.316449678502976894e-04
2.540000000000000036e-01 -4.678429395426064730e-04
2.550000000000000044e-01 -4.064747772645205259e-04
2.560000000000000053e-01 -3.478584694676101208e-04
2.570000000000000062e-01 -2.922369749285280704e-04
2.580000000000000071e-01 -2.398254582658410072e-04
2.590000000000000080e-01 -1.907660043798387051e-04
2.600000000000000089e-01 -1.451473508495837450e-04
2.610000000000000098e-01 -1.030318089760839939e-04
2.620000000000000107e-01 -6.444505561375990510e-05
2.630000000000000115e-01 -2.935383236035704613e-05
2.640000000000000124e-01 2.305450379935791716e-06
2.650000000000000133e-01 3.061461029574275017e-05
2.660000000000000142e-01 5.569410132011398673e-05
2.670000000000000151e-01 7.767960050841793418e-05
2.680000000000000160e-01 9.671059524407610297e-05
2.690000000000000169e-01 1.129600932472385466e-04
2.700000000000000178e-01 1.266091421712189913e-04
2.710000000000000187e-01 1.378334272885695100e-04
2.720000000000000195e-01 1.468206464778631926e-04
2.730000000000000204e-01 1.537732605356723070e-04
2.740000000000000213e-01 1.588660816196352243e-04
2.750000000000000222e-01 1.622746203793212771e-04
2.760000000000000231e-01 1.641865965211763978e-04
2.770000000000000240e-01 1.647723547648638487e-04
2.780000000000000249e-01 1.641909475438296795e-04
2.790000000000000258e-01 1.626115990802645683e-04
2.800000000000000266e-01 1.601736148586496711e-04
2.810000000000000275e-01 1.569939777255058289e-04
2.820000000000000284e-01 1.532087335363030434e-04
2.830000000000000293e-01 1.489380229031667113e-04
2.840000000000000302e-01 1.442770299036055803e-04
2.850000000000000311e-01 1.393224665662273765e-04
2.860000000000000320e-01 1.341622555628418922e-04
2.870000000000000329e-01 1.288595813093706965e-04
2.880000000000000338e-01 1.234778610523790121e-04
2.890000000000000346e-01 1.180827966891229153e-04
2.900000000000000355e-01 1.127161885960958898e-04
2.910000000000000364e-01 1.074166939361020923e-04
2.920000000000000373e-01 1.022291471599601209e-04
2.930000000000000382e-01 9.717386274132877588e-05
2.940000000000000391e-01 9.226021938957273960e-05
2.950000000000000400e-01 8.751617133384570479e-05
2.960000000000000409e-01 8.295954467030242085e-05
2.969999999999999862e-01 7.859263860154896975e-05
2.979999999999999871e-01 7.442599599016830325e-05
2.989999999999999880e-01 7.046000973787158728e-05
2.999999999999999889e-01 6.668603600701317191e-05
3.009999999999999898e-01 6.310669414233416319e-05
3.019999999999999907e-01 5.972987128188833594e-05
3.029999999999999916e-01 5.653919288306497037e-05
3.039999999999999925e-01 5.352838707040064037e-05
3.049999999999999933e-01 5.070001861895434558e-05
3.059999999999999942e-01 4.803867341252043843e-05
3.069999999999999951e-01 4.553058897727169096e-05
3.079999999999999960e-01 4.317794810049235821e-05
3.089999999999999969e-01 4.097458440810441971e-05
3.099999999999999978e-01 3.890664811478927732e-05
3.109999999999999987e-01 3.696968633448705077e-05
3.119999999999999996e-01 3.515378557494841516e-05
3.130000000000000004e-01 3.344379365444183350e-05
3.140000000000000013e-01 3.183778608217835426e-05
3.150000000000000022e-01 3.033973916899412870e-05
3.160000000000000031e-01 2.893531564041040838e-05
3.170000000000000040e-01 2.761256109806708992e-05
3.180000000000000049e-01 2.637231773405801505e-05
3.190000000000000058e-01 2.520414818718563765e-05
3.200000000000000067e-01 2.410314846201799810e-05
3.210000000000000075e-01 2.307038812432438135e-05
3.220000000000000084e-01 2.210104139521718025e-05
3.230000000000000093e-01 2.118331758538261056e-05
3.240000000000000102e-01 2.031919939327053726e-05
3.250000000000000111e-01 1.950432852027006447e-05
3.260000000000000120e-01 1.872664142865687609e-05
3.270000000000000129e-01 1.799203528207726777e-05
3.280000000000000138e-01 1.730574149405583739e-05
3.290000000000000147e-01 1.665566378505900502e-05
3.300000000000000155e-01 1.603266173333395272e-05
3.310000000000000164e-01 1.544273254694417119e-05
3.320000000000000173e-01 1.488055659137899056e-05
3.330000000000000182e-01 1.434410205547465011e-05
3.340000000000000191e-01 1.384090319334063679e-05
3.350000000000000200e-01 1.336382956651505083e-05
3.360000000000000209e-01 1.290182899538194761e-05
3.370000000000000218e-01 1.246054489456582814e-05
3.380000000000000226e-01 1.204368709295522422e-05
3.390000000000000235e-01 1.164166405942523852e-05
3.400000000000000244e-01 1.125890958064701408e-05
3.410000000000000253e-01 1.089892248273827136e-05
3.420000000000000262e-01 1.055058328347513452e-05
3.430000000000000271e-01 1.021280786517309025e-05
3.440000000000000280e-01 9.892941307043656707e-06
3.450000000000000289e-01 9.585070984030608088e-06
3.460000000000000298e-01 9.288010005548130721e-06
3.470000000000000306e-01 9.009747373056598008e-06
3.480000000000000315e-01 8.744807928451336920e-06
3.490000000000000324e-01 8.480008546030148864e-06
3.500000000000000333e-01 8.224507837439887226e-06
3.510000000000000342e-01 7.985695447132457048e-06
3.520000000000000351e-01 7.755485057714395225e-06
3.530000000000000360e-01 7.533797088399296626e-06
3.540000000000000369e-01 7.322315468627493829e-06
3.550000000000000377e-01 7.113793344615260139e-06
3.560000000000000386e-01 6.910196134413126856e-06
3.570000000000000395e-01 6.720354576827958226e-06
3.580000000000000404e-01 6.537401532114017755e-06
3.590000000000000413e-01 6.358360224112402648e-06
3.599999999999999867e-01 6.189201030792901292e-06
3.609999999999999876e-01 6.024598860676633194e-06
3.619999999999999885e-01 5.859039447386749089e-06
3.629999999999999893e-01 5.702449925593100488e-06
3.639999999999999902e-01 5.557315034820931032e-06
3.649999999999999911e-01 5.414143743109889328e-06
3.659999999999999920e-01 5.275162948237266392e-06
3.669999999999999929e-01 5.141320798429660499e-06
3.679999999999999938e-01 5.007861091144150123e-06
3.689999999999999947e-01 4.876992989011341706e-06
3.699999999999999956e-01 4.758274371852166951e-06
3.709999999999999964e-01 4.644852197088766843e-06
3.719999999999999973e-01 4.529686066234717146e-06
3.729999999999999982e-01 4.417205673235002905e-06
3.739999999999999991e-01 4.309245468903100118e-06
3.750000000000000000e-01 4.202551281196065247e-06
3.760000000000000009e-01 4.103256742382654920e-06
3.770000000000000018e-01 4.010604243376292288e-06
3.780000000000000027e-01 3.915473826054949313e-06
3.790000000000000036e-01 3.819046924036229029e-06
3.800000000000000044e-01 3.731709512067027390e-06
3.810000000000000053e-01 3.645343440439319238e-06
3.820000000000000062e-01 3.559770448191557080e-06
3.830000000000000071e-01 3.481482053757645190e-06
3.840000000000000080e-01 3.406684527362813242e-06
3.850000000000000089e-01 3.326680143800331280e-06
3.860000000000000098e-01 3.248803977839997970e-06
3.870000000000000107e-01 3.178129873049329035e-06
3.880000000000000115e-01 3.108029659415478818e-06
3.890000000000000124e-01 3.040696356038097292e-06
3.900000000000000133e-01 2.979112196044297889e-06
3.910000000000000142e-01 2.912833906520972960e-06
3.920000000000000151e-01 2.844292566805961542e-06
3.930000000000000160e-01 2.784317985060624778e-06
3.940000000000000169e-01 2.728836989263072610e-06
3.950000000000000178e-01 2.671990614544483833e-06
3.960000000000000187e-01 2.615811354189645499e-06
3.970000000000000195e-01 2.562290319474413991e-06
3.980000000000000204e-01 2.503970335965277627e-06
3.990000000000000213e-01 2.451934278724365868e-06
4.000000000000000222e-01 2.406100747975870036e-06
4.010000000000000231e-01 2.357011453568702564e-06
4.020000000000000240e-01 2.307992872374597937e-06
4.030000000000000249e-01 2.262647058159927838e-06
4.040000000000000258e-01 2.216220309492200613e-06
4.050000000000000266e-01 2.168535957025596872e-06
4.060000000000000275e-01 2.127694187947781757e-06
4.070000000000000284e-01 2.090361931550432928e-06
4.080000000000000293e-01 2.048439228019560687e-06
4.090000000000000302e-01 2.006556769629241899e-06
4.100000000000000311e-01 1.966753870874526910e-06
4.110000000000000320e-01 1.927016228364664130e-06
4.120000000000000329e-01 1.891106421680888161e-06
4.130000000000000338e-01 1.859645976765023079e-06
4.140000000000000346e-01 1.824934543037670664e-06
4.150000000000000355e-01 1.784570031304610893e-06
4.160000000000000364e-01 1.750556521074031480e-06
4.170000000000000373e-01 1.719210558803752065e-06
4.180000000000000382e-01 1.687587086962594185e-06
4.190000000000000391e-01 1.658249175306991674e-06
4.200000000000000400e-01 1.628652057661383878e-06
4.210000000000000409e-01 1.594266905158292502e-06
4.220000000000000417e-01 1.562565785206970759e-06
4.230000000000000426e-01 1.537054686195915565e-06
4.240000000000000435e-01 1.509792468823434319e-06
4.250000000000000444e-01 1.481181470808223821e-06
4.260000000000000453e-01 1.456244831388175953e-06
4.270000000000000462e-01 1.429789222129329573e-06
4.280000000000000471e-01 1.399085249431664124e-06
4.290000000000000480e-01 1.374674297949241009e-06
4.300000000000000488e-01 1.353673383164277766e-06
4.310000000000000497e-01 1.330432496615685523e-06
4.320000000000000506e-01 1.306067588302539662e-06
4.330000000000000515e-01 1.282661514778737910e-06
4.340000000000000524e-01 1.256899395229993388e-06
4.350000000000000533e-01 1.233584384863206651e-06
4.360000000000000542e-01 1.217052613355917856e-06
4.370000000000000551e-01 1.198017798742512241e-06
4.380000000000000560e-01 1.174131170955661219e-06
4.390000000000000568e-01 1.151458491222001612e-06
4.400000000000000577e-01 1.132984152718563564e-06
4.410000000000000586e-01 1.112980157813581172e-06
4.420000000000000595e-01 1.095788434213318396e-06
4.430000000000000604e-01 1.080465494851523545e-06
4.440000000000000613e-01 1.060758563653507736e-06
4.450000000000000622e-01 1.039341327668807935e-06
4.460000000000000631e-01 1.022382775772712193e-06
4.470000000000000639e-01 1.007315177048440091e-06
4.480000000000000648e-01 9.906567584039294161e-07
4.490000000000000657e-01 9.757864063431043178e-07
4.500000000000000666e-01 9.610148481442593038e-07
4.510000000000000675e-01 9.424658173884381540e-07
4.520000000000000684e-01 9.251115216102334671e-07
4.530000000000000693e-01 9.129454952017113101e-07
4.540000000000000702e-01 9.006195682559337001e-07
4.550000000000000711e-01 8.861158562467608135e-07
4.560000000000000719e-01 8.719806601220625453e-07
4.569999999999999618e-01 8.563805522499023937e-07
4.579999999999999627e-01 8.402288926845358219e-07
4.589999999999999636e-01 8.297321301142801531e-07
4.599999999999999645e-01 8.211503086386073846e-07
4.609999999999999654e-01 8.068772103797527961e-07
4.619999999999999662e-01 7.911928037174220663e-07
4.629999999999999671e-01 7.795017040734819602e-07
4.639999999999999680e-01 7.669002570764860138e-07
4.649999999999999689e-01 7.561085340057616122e-07
4.659999999999999698e-01 7.481361308236955665e-07
4.669999999999999707e-01 7.360049494309350848e-07
4.679999999999999716e-01 7.204048984021937940e-07
4.689999999999999725e-01 7.101363053152454086e-07
4.699999999999999734e-01 7.006083819760533515e-07
4.709999999999999742e-01 6.897795401528128423e-07