-1.199999999999999956e-01 -0.000000000000000000e+00
-1.189999999999999947e-01 -0.000000000000000000e+00
-1.179999999999999938e-01 -0.000000000000000000e+00
-1.169999999999999929e-01 -0.000000000000000000e+00
-1.159999999999999920e-01 -0.000000000000000000e+00
-1.149999999999999911e-01 -0.000000000000000000e+00
-1.139999999999999902e-01 -0.000000000000000000e+00
-1.129999999999999893e-01 -0.000000000000000000e+00
-1.119999999999999885e-01 -0.000000000000000000e+00
-1.109999999999999876e-01 -0.000000000000000000e+00
-1.100000000000000006e-01 -0.000000000000000000e+00
-1.089999999999999997e-01 -0.000000000000000000e+00
-1.079999999999999988e-01 -0.000000000000000000e+00
-1.069999999999999979e-01 -0.000000000000000000e+00
-1.059999999999999970e-01 -0.000000000000000000e+00
-1.049999999999999961e-01 -0.000000000000000000e+00
-1.039999999999999952e-01 -0.000000000000000000e+00
-1.029999999999999943e-01 -0.000000000000000000e+00
-1.019999999999999934e-01 -0.000000000000000000e+00
-1.009999999999999926e-01 -0.000000000000000000e+00
-9.999999999999999167e-02 -0.000000000000000000e+00
-9.899999999999999079e-02 -0.000000000000000000e+00
-9.800000000000000377e-02 -0.000000000000000000e+00
-9.700000000000000289e-02 -0.000000000000000000e+00
-9.600000000000000200e-02 -0.000000000000000000e+00
-9.500000000000000111e-02 -0.000000000000000000e+00
-9.400000000000000022e-02 -0.000000000000000000e+00
-9.299999999999999933e-02 -0.000000000000000000e+00
-9.199999999999999845e-02 -0.000000000000000000e+00
-9.099999999999999756e-02 -0.000000000000000000e+00
-8.999999999999999667e-02 -0.000000000000000000e+00
-8.899999999999999578e-02 -0.000000000000000000e+00
-8.799999999999999489e-02 -0.000000000000000000e+00
-8.699999999999999400e-02 -0.000000000000000000e+00
-8.599999999999999312e-02 -0.000000000000000000e+00
-8.499999999999999223e-02 -0.000000000000000000e+00
-8.399999999999999134e-02 -0.000000000000000000e+00
-8.299999999999999045e-02 -0.000000000000000000e+00
-8.199999999999998956e-02 -0.000000000000000000e+00
-8.099999999999998868e-02 -0.000000000000000000e+00
-7.999999999999998779e-02 -0.000000000000000000e+00
-7.899999999999998690e-02 -0.000000000000000000e+00
-7.799999999999998601e-02 -0.000000000000000000e+00
-7.699999999999998512e-02 -0.000000000000000000e+00
-7.599999999999999811e-02 -0.000000000000000000e+00
-7.499999999999999722e-02 -0.000000000000000000e+00
-7.399999999999999634e-02 -0.000000000000000000e+00
-7.299999999999999545e-02 -0.000000000000000000e+00
-7.199999999999999456e-02 -0.000000000000000000e+00
-7.099999999999999367e-02 -0.000000000000000000e+00
-6.999999999999999278e-02 -0.000000000000000000e+00
-6.899999999999999190e-02 -0.000000000000000000e+00
-6.799999999999999101e-02 -0.000000000000000000e+00
-6.700000000000000400e-02 -0.000000000000000000e+00
-6.600000000000000311e-02 -0.000000000000000000e+00
-6.500000000000000222e-02 -0.000000000000000000e+00
-6.400000000000000133e-02 -0.000000000000000000e+00
-6.300000000000000044e-02 -0.000000000000000000e+00
-6.199999999999999262e-02 -0.000000000000000000e+00
-6.099999999999999173e-02 -0.000000000000000000e+00
-5.999999999999999778e-02 -0.000000000000000000e+00
-5.899999999999999689e-02 -0.000000000000000000e+00
-5.799999999999999600e-02 -0.000000000000000000e+00
-5.699999999999999512e-02 -0.000000000000000000e+00
-5.599999999999999423e-02 -0.000000000000000000e+00
-5.499999999999999334e-02 -0.000000000000000000e+00
-5.399999999999999245e-02 -0.000000000000000000e+00
-5.299999999999999156e-02 -0.000000000000000000e+00
-5.199999999999999067e-02 -0.000000000000000000e+00
-5.099999999999998979e-02 -0.000000000000000000e+00
-4.999999999999998890e-02 -0.000000000000000000e+00
-4.899999999999998801e-02 -0.000000000000000000e+00
-4.799999999999998712e-02 -0.000000000000000000e+00
-4.700000000000000011e-02 -0.000000000000000000e+00
-4.599999999999999922e-02 -0.000000000000000000e+00
-4.499999999999999833e-02 -0.000000000000000000e+00
-4.399999999999999745e-02 -0.000000000000000000e+00
-4.299999999999999656e-02 -0.000000000000000000e+00
-4.199999999999999567e-02 -0.000000000000000000e+00
-4.099999999999999478e-02 -0.000000000000000000e+00
-3.999999999999999389e-02 -0.000000000000000000e+00
-3.899999999999999301e-02 -0.000000000000000000e+00
-3.799999999999999212e-02 -0.000000000000000000e+00
-3.699999999999999123e-02 -0.000000000000000000e+00
-3.599999999999999034e-02 -0.000000000000000000e+00
-3.499999999999998945e-02 -0.000000000000000000e+00
-3.399999999999998856e-02 -0.000000000000000000e+00
-3.299999999999998768e-02 -0.000000000000000000e+00
-3.200000000000000067e-02 -0.000000000000000000e+00
-3.099999999999999978e-02 -0.000000000000000000e+00
-2.999999999999999889e-02 -0.000000000000000000e+00
-2.899999999999999800e-02 -0.000000000000000000e+00
-2.799999999999999711e-02 -0.000000000000000000e+00
-2.699999999999999623e-02 -0.000000000000000000e+00
-2.599999999999999534e-02 -0.000000000000000000e+00
-2.499999999999999445e-02 -0.000000000000000000e+00
-2.399999999999999356e-02 -0.000000000000000000e+00
-2.299999999999999267e-02 -0.000000000000000000e+00
-2.199999999999999178e-02 -0.000000000000000000e+00
-2.099999999999999090e-02 -0.000000000000000000e+00
-1.999999999999999001e-02 -0.000000000000000000e+00
-1.899999999999998912e-02 -0.000000000000000000e+00
-1.799999999999998823e-02 -0.000000000000000000e+00
-1.699999999999998734e-02 -0.000000000000000000e+00
-1.599999999999998646e-02 -0.000000000000000000e+00
-1.499999999999999944e-02 -0.000000000000000000e+00
-1.399999999999999856e-02 -0.000000000000000000e+00
-1.299999999999999767e-02 -0.000000000000000000e+00
-1.199999999999999678e-02 -0.000000000000000000e+00
-1.099999999999999589e-02 -0.000000000000000000e+00
-9.999999999999995004e-03 -0.000000000000000000e+00
-8.999999999999994116e-03 -0.000000000000000000e+00
-7.999999999999993228e-03 -0.000000000000000000e+00
-6.999999999999992339e-03 -0.000000000000000000e+00
-5.999999999999991451e-03 -0.000000000000000000e+00
-4.999999999999990563e-03 -0.000000000000000000e+00
-3.999999999999989675e-03 -0.000000000000000000e+00
-2.999999999999988787e-03 -0.000000000000000000e+00
-1.999999999999987899e-03 -0.000000000000000000e+00
-9.999999999999870104e-04 -0.000000000000000000e+00
0.000000000000000000e+00 -0.000000000000000000e+00
1.000000000000000888e-03 -0.000000000000000000e+00
2.000000000000001776e-03 -0.000000000000000000e+00
3.000000000000002665e-03 -0.000000000000000000e+00
4.000000000000003553e-03 -0.000000000000000000e+00
5.000000000000004441e-03 -0.000000000000000000e+00
6.000000000000005329e-03 -0.000000000000000000e+00
7.000000000000006217e-03 -0.000000000000000000e+00
8.000000000000007105e-03 -0.000000000000000000e+00
9.000000000000007994e-03 -0.000000000000000000e+00
1.000000000000000888e-02 -0.000000000000000000e+00
1.100000000000000977e-02 -0.000000000000000000e+00
1.200000000000001066e-02 -0.000000000000000000e+00
1.300000000000001155e-02 -0.000000000000000000e+00
1.400000000000001243e-02 -0.000000000000000000e+00
1.500000000000001332e-02 -0.000000000000000000e+00
1.600000000000001421e-02 -0.000000000000000000e+00
1.700000000000001510e-02 -0.000000000000000000e+00
1.800000000000001599e-02 -0.000000000000000000e+00
1.900000000000001688e-02 -0.000000000000000000e+00
2.000000000000001776e-02 -0.000000000000000000e+00
2.100000000000001865e-02 -0.000000000000000000e+00
2.200000000000001954e-02 -0.000000000000000000e+00
2.300000000000002043e-02 -0.000000000000000000e+00
2.400000000000002132e-02 -0.000000000000000000e+00
2.499999999999999445e-02 -0.000000000000000000e+00
2.599999999999999534e-02 -0.000000000000000000e+00
2.699999999999999623e-02 -0.000000000000000000e+00
2.799999999999999711e-02 -0.000000000000000000e+00
2.899999999999999800e-02 -0.000000000000000000e+00
2.999999999999999889e-02 -0.000000000000000000e+00
3.099999999999999978e-02 -0.000000000000000000e+00
3.200000000000000067e-02 -0.000000000000000000e+00
3.300000000000000155e-02 -0.000000000000000000e+00
3.400000000000000244e-02 -0.000000000000000000e+00
3.500000000000000333e-02 -0.000000000000000000e+00
3.600000000000000422e-02 -0.000000000000000000e+00
3.700000000000000511e-02 -0.000000000000000000e+00
3.800000000000000600e-02 -0.000000000000000000e+00
3.900000000000000688e-02 -0.000000000000000000e+00
4.000000000000000777e-02 -0.000000000000000000e+00
4.100000000000000866e-02 0.000000000000000000e+00
4.200000000000000955e-02 -1.681558157189780485e-44
4.300000000000001044e-02 -8.814167340603099376e-43
4.400000000000001132e-02 2.370156222558995594e-41
4.500000000000001221e-02 4.173561485117211898e-39
4.600000000000001310e-02 2.216468981639987000e-37
4.700000000000001399e-02 6.962551906571741497e-36
4.800000000000001488e-02 1.204783330817585448e-34
4.900000000000001577e-02 -7.324431831576747069e-34
5.000000000000001665e-02 -1.395876501912190299e-31
5.100000000000001754e-02 -5.685233853006210351e-30
5.200000000000001843e-02 -1.334465784368735496e-28
5.300000000000001932e-02 -9.010409318777240096e-28
5.400000000000002021e-02 8.218996325268321877e-26
5.500000000000002109e-02 4.645377834349455755e-24
5.599999999999999423e-02 1.446206328202687077e-22
5.699999999999999512e-02 3.019195099431129453e-21
5.799999999999999600e-02 4.001895279887572992e-20
5.899999999999999689e-02 1.990063687916693256e-19
5.999999999999999778e-02 -3.890427289822676776e-18
6.099999999999999867e-02 -9.285376999871103256e-17
6.199999999999999956e-02 -7.453626296833010083e-16
6.300000000000000044e-02 8.256301187430786781e-16
6.400000000000000133e-02 5.975377663372874459e-14
6.500000000000000222e-02 3.309826371311608284e-13
6.600000000000000311e-02 -8.794204513912218246e-13
6.700000000000000400e-02 -1.301973199391293079e-11
6.800000000000000488e-02 -1.130088383982652545e-11
6.900000000000000577e-02 1.853786013583658132e-10
7.000000000000000666e-02 2.745721427999114894e-10
7.100000000000000755e-02 -1.174058628095053791e-09
7.200000000000000844e-02 -1.043708008907628937e-09
7.300000000000000933e-02 2.620150540977306264e-09
7.400000000000001021e-02 -8.048254285242251171e-10
7.500000000000001110e-02 1.567124874313208238e-09
7.600000000000001199e-02 -5.932574431710690988e-10
7.700000000000001288e-02 1.501324398134329385e-09
7.800000000000001377e-02 -1.723683196175329613e-09
7.900000000000001465e-02 3.055580677369107434e-09
8.000000000000001554e-02 -3.295729911201306095e-09
8.100000000000001643e-02 3.114580371388342428e-09
8.200000000000001732e-02 -1.170161745278619492e-10
8.300000000000001821e-02 -2.990102387911974802e-09
8.400000000000001910e-02 5.390717205955297686e-09
8.500000000000001998e-02 -2.366229434613842386e-09
8.600000000000002087e-02 -1.935615667747470070e-09
8.700000000000002176e-02 3.856880148589425517e-09
8.800000000000002265e-02 -1.194954690753036175e-09
8.899999999999999578e-02 6.626760251648988742e-11
8.999999999999999667e-02 -1.104191293954670527e-09
9.099999999999999756e-02 -1.719177467052190877e-09
9.199999999999999845e-02 3.100954160117908032e-09
9.299999999999999933e-02 -2.166414825310880587e-10
9.400000000000000022e-02 -5.638294275911448494e-10
9.500000000000000111e-02 5.030965644081675237e-10
9.600000000000000200e-02 -2.574630064700045295e-09
9.700000000000000289e-02 5.436545102988077360e-10
9.800000000000000377e-02 6.972782351510886656e-10
9.900000000000000466e-02 -6.320771683832049348e-10
1.000000000000000056e-01 2.274612498354144918e-09
1.010000000000000064e-01 8.873413115395578643e-11
1.020000000000000073e-01 3.667866010914622166e-11
1.030000000000000082e-01 1.627855406027833851e-09
1.040000000000000091e-01 -1.170548991069608746e-09
1.050000000000000100e-01 1.529767562624684274e-10
1.060000000000000109e-01 1.852119568823695772e-10
1.070000000000000118e-01 -1.962946694078482324e-09
1.080000000000000127e-01 2.453712233396743159e-10
1.090000000000000135e-01 -7.423239800630199170e-10
1.100000000000000144e-01 -1.424115714243612274e-09
1.110000000000000153e-01 6.942063590642533200e-10
1.120000000000000162e-01 -1.224422785384149392e-09
1.130000000000000171e-01 -8.826958053376188218e-10
1.140000000000000180e-01 3.646705160065266682e-10
1.150000000000000189e-01 -1.619231193572545635e-09
1.160000000000000198e-01 -1.384068415433148402e-10
1.170000000000000207e-01 2.103542895426357973e-10
1.180000000000000215e-01 -1.465649823728654155e-09
1.190000000000000224e-01 2.733888393446903819e-10
1.199999999999999956e-01 -4.375275697299230160e-10
1.209999999999999964e-01 -1.318249176485153384e-09
1.219999999999999973e-01 6.167537591750260617e-10
1.229999999999999982e-01 -6.331868362963177788e-10
1.239999999999999991e-01 -7.728084283620262340e-10
1.250000000000000000e-01 6.841405220114893382e-10
1.260000000000000009e-01 -9.607734607897100432e-10
1.270000000000000018e-01 -2.806488375028948212e-10
1.280000000000000027e-01 7.135961266335755226e-10
1.290000000000000036e-01 -8.988781385887989472e-10
1.300000000000000044e-01 4.492514971143890534e-10
1.310000000000000053e-01 8.608126433884422113e-10
1.320000000000000062e-01 -7.857193784488458732e-10
1.330000000000000071e-01 3.151744976115367081e-10
1.340000000000000080e-01 2.642085439319430407e-10
1.350000000000000089e-01 1.280456296548493356e-10
1.360000000000000098e-01 1.792459181082506348e-09
1.370000000000000107e-01 -4.143608234308260307e-10
1.380000000000000115e-01 -1.689952622285773032e-09
1.390000000000000124e-01 1.461520571233165811e-09
1.400000000000000133e-01 1.187129283763965759e-09
1.410000000000000142e-01 -8.935459039349780141e-10
1.420000000000000151e-01 -2.374808127925120971e-10
1.430000000000000160e-01 1.431381402294817917e-10
1.440000000000000169e-01 -5.384903634109150516e-11
1.450000000000000178e-01 -7.354707953766137507e-10
1.460000000000000187e-01 -3.351651178817860455e-10
1.470000000000000195e-01 7.815105784736431360e-10
1.480000000000000204e-01 -8.271521245717394777e-10
1.490000000000000213e-01 -6.527614004880888388e-10
1.500000000000000222e-01 1.074139777124116790e-09
1.510000000000000231e-01 -8.701345755035561069e-10
1.520000000000000240e-01 -3.407364390639600060e-10
1.530000000000000249e-01 1.447141073640523246e-09
1.540000000000000258e-01 -7.666899892733169963e-10
1.550000000000000266e-01 5.534861458045270410e-10
1.560000000000000275e-01 7.335427820720497039e-10
1.570000000000000284e-01 -9.546591295261919186e-10
1.580000000000000293e-01 9.699924197192899555e-10
1.590000000000000302e-01 -5.002699365874718751e-10
1.600000000000000311e-01 2.590431202875720373e-10
1.610000000000000320e-01 6.939961938456917778e-10
1.620000000000000329e-01 -8.829350583994255430e-10
1.630000000000000338e-01 2.534485066263414410e-09
1.640000000000000346e-01 -1.054161202773684636e-09
1.650000000000000355e-01 7.325908768507360946e-10
1.660000000000000364e-01 7.078524433268285065e-10
1.670000000000000373e-01 -2.105918106565241033e-09
1.680000000000000382e-01 3.968398054610133840e-09
1.689999999999999836e-01 -7.994049866510977154e-10
1.699999999999999845e-01 1.581581088316852401e-09
1.709999999999999853e-01 1.797902271505336103e-09
1.719999999999999862e-01 2.629370499107608339e-09
1.729999999999999871e-01 1.113502179350689403e-09
1.739999999999999880e-01 1.323787301998891053e-09
1.749999999999999889e-01 5.810008474327332806e-09
1.759999999999999898e-01 -9.583800419932231307e-11
1.769999999999999907e-01 6.943444930129771819e-09
1.779999999999999916e-01 2.169365131976519478e-09
1.789999999999999925e-01 6.570658683813235257e-09
1.799999999999999933e-01 5.663167712555150501e-09
1.809999999999999942e-01 9.423217761650448665e-09
1.819999999999999951e-01 6.664663487754296511e-09
1.829999999999999960e-01 1.309993535869580228e-08
1.839999999999999969e-01 1.046447550834272988e-08
1.849999999999999978e-01 1.654754555602266919e-08
1.859999999999999987e-01 1.514646896794147324e-08
1.869999999999999996e-01 2.203807980549754575e-08
1.880000000000000004e-01 1.959227802217355929e-08
1.890000000000000013e-01 2.927606601588195190e-08
1.900000000000000022e-01 2.708105739657185040e-08
1.910000000000000031e-01 3.693872940857545473e-08
1.920000000000000040e-01 3.596471742639550939e-08
1.930000000000000049e-01 4.872379122389247641e-08
1.940000000000000058e-01 4.662877017835853621e-08
1.950000000000000067e-01 6.257243967411341146e-08
1.960000000000000075e-01 6.147979547677095979e-08
1.970000000000000084e-01 7.784706212987657636e-08
1.980000000000000093e-01 8.000347406778018922e-08
1.990000000000000102e-01 9.745212992129381746e-08
2.000000000000000111e-01 1.019518549583153799e-07
2.010000000000000120e-01 1.183927906822646037e-07
2.020000000000000129e-01 1.304747456742916256e-07
2.030000000000000138e-01 1.419916770828422159e-07
2.040000000000000147e-01 1.627322490094229579e-07
2.050000000000000155e-01 1.717935447231866419e-07
2.060000000000000164e-01 1.971438905457034707e-07
2.070000000000000173e-01 2.069527909043245018e-07
2.080000000000000182e-01 2.351744115003384650e-07
2.090000000000000191e-01 2.486131052137352526e-07
2.100000000000000200e-01 2.726192178670316935e-07
2.110000000000000209e-01 2.962487997137941420e-07
2.120000000000000218e-01 3.124705472146160901e-07
2.130000000000000226e-01 3.443356035859324038e-07
2.140000000000000235e-01 3.569766704458743334e-07
2.150000000000000244e-01 3.891364031005650759e-07
2.160000000000000253e-01 4.050179995829239488e-07
2.170000000000000262e-01 4.293524398235604167e-07
2.180000000000000271e-01 4.559205990517511964e-07
2.190000000000000280e-01 4.631656338460743427e-07
2.200000000000000289e-01 4.986177373211830854e-07
2.210000000000000298e-01 4.990870365872979164e-07
2.220000000000000306e-01 5.193433025851845741e-07
2.230000000000000315e-01 5.376168701332062483e-07
2.240000000000000324e-01 5.239744496066123247e-07
2.250000000000000333e-01 5.556794349104166031e-07
2.260000000000000342e-01 5.281181074678897858e-07
2.270000000000000351e-01 5.375113687478005886e-07
2.280000000000000360e-01 5.291549314279109240e-07
2.290000000000000369e-01 4.882349458057433367e-07
2.300000000000000377e-01 5.019428499508649111e-07
2.310000000000000386e-01 4.303765308577567339e-07
2.319999999999999840e-01 4.259236447978764772e-07
2.329999999999999849e-01 3.641762305051088333e-07
2.339999999999999858e-01 3.119239408988505602e-07
2.349999999999999867e-01 2.585511538200080395e-07
2.359999999999999876e-01 1.831103872973471880e-07
2.369999999999999885e-01 1.000407792162150145e-07
2.379999999999999893e-01 3.083187039010226727e-08
2.389999999999999902e-01 -8.104325388558208942e-08
2.399999999999999911e-01 -1.681801222730427980e-07
2.409999999999999920e-01 -2.772612788248807192e-07
2.419999999999999929e-01 -3.944151103496551514e-07
2.429999999999999938e-01 -5.116271495353430510e-07
2.439999999999999947e-01 -6.289337761700153351e-07
2.449999999999999956e-01 -7.696035027038305998e-07
2.459999999999999964e-01 -8.816314220894128084e-07
2.469999999999999973e-01 -1.028762198984622955e-06
2.479999999999999982e-01 -1.153406628873199224e-06
2.489999999999999991e-01 -1.281849108636379242e-06
2.500000000000000000e-01 -1.410176992067135870e-06
2.510000000000000009e-01 -1.537670868856366724e-06
2.520000000000000018e-01 -1.641184098843950778e-06
2.530000000000000027e-01 -1.758977305144071579e-06
2.540000000000000036e-01 -1.857192728493828326e-06
2.550000000000000044e-01 -1.930768121383152902e-06
2.560000000000000053e-01 -2.017593942582607269e-06
2.570000000000000062e-01 -2.069516995106823742e-06
2.580000000000000071e-01 -2.113887603627517819e-06
2.590000000000000080e-01 -2.139560820069164038e-06
2.600000000000000089e-01 -2.154014509869739413e-06
2.610000000000000098e-01 -2.132612280547618866e-06
2.620000000000000107e-01 -2.109620254486799240e-06
2.630000000000000115e-01 -2.063781721517443657e-06
2.640000000000000124e-01 -1.979227818083018064e-06
2.650000000000000133e-01 -1.899279595818370581e-06
2.660000000000000142e-01 -1.786102075129747391e-06
2.670000000000000151e-01 -1.653381332289427519e-06
2.680000000000000160e-01 -1.504144165664911270e-06
2.690000000000000169e-01 -1.343840267509222031e-06
2.700000000000000178e-01 -1.158652594313025475e-06
2.710000000000000187e-01 -9.573413990437984467e-07
2.720000000000000195e-01 -7.596536306664347649e-07
2.730000000000000204e-01 -5.302863428369164467e-07
2.740000000000000213e-01 -3.038730937987565994e-07
2.750000000000000222e-01 -7.631024345755577087e-08
2.760000000000000231e-01 1.669250195845961571e-07
2.770000000000000240e-01 4.052562871947884560e-07
2.780000000000000249e-01 6.428308552131056786e-07
2.790000000000000258e-01 8.696079021319746971e-07
2.800000000000000266e-01 1.102787791751325130e-06
2.810000000000000275e-01 1.319058355875313282e-06
2.820000000000000284e-01 1.517058990430086851e-06
2.830000000000000293e-01 1.717860868666321039e-06
2.840000000000000302e-01 1.888292899820953608e-06
2.850000000000000311e-01 2.043052518274635077e-06
2.860000000000000320e-01 2.186818164773285389e-06
2.870000000000000329e-01 2.304426743648946285e-06
2.880000000000000338e-01 2.401298843324184418e-06
2.890000000000000346e-01 2.468859747750684619e-06
2.900000000000000355e-01 2.523844159441068769e-06
2.910000000000000364e-01 2.550001227064058185e-06
2.920000000000000373e-01 2.545653842389583588e-06
2.930000000000000382e-01 2.534981831558980048e-06
2.940000000000000391e-01 2.493849024176597595e-06
2.950000000000000400e-01 2.427725121378898621e-06
2.960000000000000409e-01 2.349687747482676059e-06
2.969999999999999862e-01 2.250617399113252759e-06
2.979999999999999871e-01 2.135522663593292236e-06
2.989999999999999880e-01 1.999396772589534521e-06
2.999999999999999889e-01 1.856788003351539373e-06
3.009999999999999898e-01 1.706375769572332501e-06
3.019999999999999907e-01 1.534819602966308594e-06
3.029999999999999916e-01 1.367530785501003265e-06
3.039999999999999925e-01 1.195861841551959515e-06
3.049999999999999933e-01 1.008585968520492315e-06
3.059999999999999942e-01 8.297138265334069729e-07
3.069999999999999951e-01 6.515401764772832394e-07
3.079999999999999960e-01 4.768953658640384674e-07
3.089999999999999969e-01 3.058012225665152073e-07
3.099999999999999978e-01 1.376756699755787849e-07
3.109999999999999987e-01 -1.347507350146770477e-08
3.119999999999999996e-01 -1.640801201574504375e-07
3.130000000000000004e-01 -3.070890670642256737e-07
3.140000000000000013e-01 -4.255416570231318474e-07
3.150000000000000022e-01 -5.415713530965149403e-07
3.160000000000000031e-01 -6.475966074503958225e-07
3.170000000000000040e-01 -7.339695002883672714e-07
3.180000000000000049e-01 -8.124261512421071529e-07
3.190000000000000058e-01 -8.756542229093611240e-07
3.200000000000000067e-01 -9.300056262873113155e-07
3.210000000000000075e-01 -9.727955330163240433e-07
3.220000000000000084e-01 -9.952200343832373619e-07
3.230000000000000093e-01 -1.016396709019318223e-06
3.240000000000000102e-01 -1.026754034683108330e-06
3.250000000000000111e-01 -1.018954208120703697e-06
3.260000000000000120e-01 -1.009837433230131865e-06
3.270000000000000129e-01 -9.929062798619270325e-07
3.280000000000000138e-01 -9.650248102843761444e-07
3.290000000000000147e-01 -9.339746611658483744e-07
3.300000000000000155e-01 -8.934093784773722291e-07
3.310000000000000164e-01 -8.537026587873697281e-07
3.320000000000000173e-01 -8.113947842502966523e-07
3.330000000000000182e-01 -7.565831765532493591e-07
3.340000000000000191e-01 -7.087601261446252465e-07
3.350000000000000200e-01 -6.615064194193109870e-07
3.360000000000000209e-01 -6.044042493158485740e-07
3.370000000000000218e-01 -5.524148036784026772e-07
3.380000000000000226e-01 -5.035690264776349068e-07
3.390000000000000235e-01 -4.519146159509546123e-07
3.400000000000000244e-01 -4.033402660752472002e-07
3.410000000000000253e-01 -3.535678843036293983e-07
3.420000000000000262e-01 -3.090533482463797554e-07
3.430000000000000271e-01 -2.706847226363606751e-07
3.440000000000000280e-01 -2.248320924991276115e-07
3.450000000000000289e-01 -1.864927980932407081e-07
3.460000000000000298e-01 -1.578882802277803421e-07
3.470000000000000306e-01 -1.212511051562614739e-07
3.480000000000000315e-01 -9.040195436682552099e-08
3.490000000000000324e-01 -6.754544301657006145e-08
3.500000000000000333e-01 -4.196772351861000061e-08
3.510000000000000342e-01 -2.208071236964315176e-08
3.520000000000000351e-01 -1.178705133497714996e-09
3.530000000000000360e-01 1.629359758226200938e-08
3.540000000000000369e-01 2.632896212162449956e-08
3.550000000000000377e-01 4.027788236271589994e-08
3.560000000000000386e-01 5.419587978394702077e-08
3.570000000000000395e-01 5.823858373332768679e-08
3.580000000000000404e-01 6.477057468146085739e-08
3.590000000000000413e-01 7.348444341914728284e-08
3.599999999999999867e-01 7.616472430527210236e-08
3.609999999999999876e-01 7.968083082232624292e-08
3.619999999999999885e-01 8.203915058402344584e-08
3.629999999999999893e-01 8.222059477702714503e-08
3.639999999999999902e-01 8.628830983070656657e-08
3.649999999999999911e-01 8.295819498016498983e-08
3.659999999999999920e-01 7.570906745968386531e-08
3.669999999999999929e-01 7.370999810518696904e-08
3.679999999999999938e-01 6.439449862227775156e-08
3.689999999999999947e-01 4.534604158834554255e-08
3.699999999999999956e-01 3.115474100923165679e-08
3.709999999999999964e-01 1.286161932512186468e-08
3.719999999999999973e-01 -8.728420652914792299e-09
3.729999999999999982e-01 -2.993692760355770588e-08
3.739999999999999991e-01 -5.266338121145963669e-08
3.750000000000000000e-01 -7.333710527746006846e-08
3.760000000000000009e-01 -9.404789125255774707e-08
3.770000000000000018e-01 -1.268285814148839563e-07
3.780000000000000027e-01 -1.634059572097612545e-07
3.790000000000000036e-01 -2.046472218353301287e-07
3.800000000000000044e-01 -2.665206011442933232e-07
3.810000000000000053e-01 -3.413963440834777430e-07
3.820000000000000062e-01 -4.255889507476240396e-07
3.830000000000000071e-01 -5.287001840770244598e-07
3.840000000000000080e-01 -6.467357707151677459e-07
3.850000000000000089e-01 -7.814280706952558830e-07
3.860000000000000098e-01 -9.423894198334892280e-07
3.870000000000000107e-01 -1.127336759054742288e-06
3.880000000000000115e-01 -1.345546593256585766e-06
3.890000000000000124e-01 -1.612739083611813840e-06
3.900000000000000133e-01 -1.923535819514654577e-06
3.910000000000000142e-01 -2.284413540110108443e-06
3.920000000000000151e-01 -2.710958597162971273e-06
3.930000000000000160e-01 -3.203151209163479507e-06
3.940000000000000169e-01 -3.767883754335343838e-06
3.950000000000000178e-01 -4.420951427164254710e-06
3.960000000000000187e-01 -5.173560566618107259e-06
3.970000000000000195e-01 -6.043083885742817074e-06
3.980000000000000204e-01 -7.047376129776239395e-06
3.990000000000000213e-01 -8.193122084776405245e-06
4.000000000000000222e-01 -9.504360605205874890e-06
4.010000000000000231e-01 -1.100355257221963257e-05
4.020000000000000240e-01 -1.269570839212974533e-05
4.030000000000000249e-01 -1.460811745346290991e-05
4.040000000000000258e-01 -1.677436193858738989e-05
4.050000000000000266e-01 -1.921200964716263115e-05
4.060000000000000275e-01 -2.194976514147128910e-05
4.070000000000000284e-01 -2.502011921023949981e-05
4.080000000000000293e-01 -2.844824484782293439e-05
4.090000000000000302e-01 -3.226175977033562958e-05
4.100000000000000311e-01 -3.649420978035777807e-05
4.110000000000000320e-01 -4.116694253752939403e-05
4.120000000000000329e-01 -4.631867341231554747e-05
4.130000000000000338e-01 -5.198593134991824627e-05
4.140000000000000346e-01 -5.819196667289361358e-05
4.150000000000000355e-01 -6.496478454209864140e-05
4.160000000000000364e-01 -7.233802898554131389e-05
4.170000000000000373e-01 -8.032731420826166868e-05
4.180000000000000382e-01 -8.894984785001724958e-05
4.190000000000000391e-01 -9.822337597142904997e-05
4.200000000000000400e-01 -1.081572845578193665e-04
4.210000000000000409e-01 -1.187591988127678633e-04
4.220000000000000417e-01 -1.300313160754740238e-04
4.230000000000000426e-01 -1.419524778611958027e-04
4.240000000000000435e-01 -1.545048580737784505e-04
4.250000000000000444e-01 -1.676634419709444046e-04
4.260000000000000453e-01 -1.813767594285309315e-04
4.270000000000000462e-01 -1.955884799826890230e-04
4.280000000000000471e-01 -2.102425351040437818e-04
4.290000000000000480e-01 -2.252554986625909805e-04
4.300000000000000488e-01 -2.405289851594716311e-04
4.310000000000000497e-01 -2.559564891271293163e-04
4.320000000000000506e-01 -2.714087604545056820e-04
4.330000000000000515e-01 -2.867382136173546314e-04
4.340000000000000524e-01 -3.017943818122148514e-04
4.350000000000000533e-01 -3.163974615745246410e-04
4.360000000000000542e-01 -3.303598787169903517e-04
4.370000000000000551e-01 -3.434903046581894159e-04
4.380000000000000560e-01 -3.555694711394608021e-04
4.390000000000000568e-01 -3.663599782157689333e-04
4.400000000000000577e-01 -3.756344667635858059e-04
4.410000000000000586e-01 -3.831429639831185341e-04
4.420000000000000595e-01 -3.886361373588442802e-04
4.430000000000000604e-01 -3.918705624528229237e-04
4.440000000000000613e-01 -3.925913479179143906e-04
4.450000000000000622e-01 -3.905523044522851706e-04
4.460000000000000631e-01 -3.855201066471636295e-04
4.470000000000000639e-01 -3.772635536734014750e-04
4.480000000000000648e-01 -3.655652399174869061e-04
4.490000000000000657e-01 -3.502460313029587269e-04
4.500000000000000666e-01 -3.311419277451932430e-04
4.510000000000000675e-01 -3.081113682128489017e-04
4.520000000000000684e-01 -2.810616279020905495e-04
4.530000000000000693e-01 -2.499250113032758236e-04
4.540000000000000702e-01 -2.146721089957281947e-04
4.550000000000000711e-01 -1.753228425513952971e-04
4.560000000000000719e-01 -1.319485018029808998e-04
4.569999999999999618e-01 -8.465962309855967760e-05
4.579999999999999627e-01 -3.363696669111959636e-05
4.589999999999999636e-01 2.089484223688486964e-05
4.599999999999999645e-01 7.866730447858572006e-05
4.609999999999999654e-01 1.393485872540622950e-04
4.619999999999999662e-01 2.025527210207656026e-04
4.629999999999999671e-01 2.678567543625831604e-04
4.639999999999999680e-01 3.347790334373712540e-04
4.649999999999999689e-01 4.027878749184310436e-04
4.659999999999999698e-01 4.713234375230967999e-04
4.669999999999999707e-01 5.397896748036146164e-04
4.679999999999999716e-01 6.075576529838144779e-04