-1.199999999999999956e-01 0.000000000000000000e+00
-1.189999999999999947e-01 0.000000000000000000e+00
-1.179999999999999938e-01 0.000000000000000000e+00
-1.169999999999999929e-01 0.000000000000000000e+00
-1.159999999999999920e-01 0.000000000000000000e+00
-1.149999999999999911e-01 0.000000000000000000e+00
-1.139999999999999902e-01 0.000000000000000000e+00
-1.129999999999999893e-01 0.000000000000000000e+00
-1.119999999999999885e-01 0.000000000000000000e+00
-1.109999999999999876e-01 0.000000000000000000e+00
-1.100000000000000006e-01 0.000000000000000000e+00
-1.089999999999999997e-01 0.000000000000000000e+00
-1.079999999999999988e-01 0.000000000000000000e+00
-1.069999999999999979e-01 0.000000000000000000e+00
-1.059999999999999970e-01 0.000000000000000000e+00
-1.049999999999999961e-01 0.000000000000000000e+00
-1.039999999999999952e-01 0.000000000000000000e+00
-1.029999999999999943e-01 0.000000000000000000e+00
-1.019999999999999934e-01 0.000000000000000000e+00
-1.009999999999999926e-01 0.000000000000000000e+00
-9.999999999999999167e-02 0.000000000000000000e+00
-9.899999999999999079e-02 0.000000000000000000e+00
-9.800000000000000377e-02 0.000000000000000000e+00
-9.700000000000000289e-02 0.000000000000000000e+00
-9.600000000000000200e-02 0.000000000000000000e+00
-9.500000000000000111e-02 0.000000000000000000e+00
-9.400000000000000022e-02 0.000000000000000000e+00
-9.299999999999999933e-02 0.000000000000000000e+00
-9.199999999999999845e-02 0.000000000000000000e+00
-9.099999999999999756e-02 0.000000000000000000e+00
-8.999999999999999667e-02 0.000000000000000000e+00
-8.899999999999999578e-02 0.000000000000000000e+00
-8.799999999999999489e-02 0.000000000000000000e+00
-8.699999999999999400e-02 0.000000000000000000e+00
-8.599999999999999312e-02 0.000000000000000000e+00
-8.499999999999999223e-02 0.000000000000000000e+00
-8.399999999999999134e-02 0.000000000000000000e+00
-8.299999999999999045e-02 0.000000000000000000e+00
-8.199999999999998956e-02 0.000000000000000000e+00
-8.099999999999998868e-02 0.000000000000000000e+00
-7.999999999999998779e-02 0.000000000000000000e+00
-7.899999999999998690e-02 0.000000000000000000e+00
-7.799999999999998601e-02 0.000000000000000000e+00
-7.699999999999998512e-02 0.000000000000000000e+00
-7.599999999999999811e-02 0.000000000000000000e+00
-7.499999999999999722e-02 0.000000000000000000e+00
-7.399999999999999634e-02 0.000000000000000000e+00
-7.299999999999999545e-02 0.000000000000000000e+00
-7.199999999999999456e-02 0.000000000000000000e+00
-7.099999999999999367e-02 0.000000000000000000e+00
-6.999999999999999278e-02 0.000000000000000000e+00
-6.899999999999999190e-02 0.000000000000000000e+00
-6.799999999999999101e-02 0.000000000000000000e+00
-6.700000000000000400e-02 0.000000000000000000e+00
-6.600000000000000311e-02 0.000000000000000000e+00
-6.500000000000000222e-02 0.000000000000000000e+00
-6.400000000000000133e-02 0.000000000000000000e+00
-6.300000000000000044e-02 0.000000000000000000e+00
-6.199999999999999262e-02 0.000000000000000000e+00
-6.099999999999999173e-02 0.000000000000000000e+00
-5.999999999999999778e-02 0.000000000000000000e+00
-5.899999999999999689e-02 0.000000000000000000e+00
-5.799999999999999600e-02 0.000000000000000000e+00
-5.699999999999999512e-02 0.000000000000000000e+00
-5.599999999999999423e-02 0.000000000000000000e+00
-5.499999999999999334e-02 0.000000000000000000e+00
-5.399999999999999245e-02 0.000000000000000000e+00
-5.299999999999999156e-02 0.000000000000000000e+00
-5.199999999999999067e-02 0.000000000000000000e+00
-5.099999999999998979e-02 0.000000000000000000e+00
-4.999999999999998890e-02 0.000000000000000000e+00
-4.899999999999998801e-02 0.000000000000000000e+00
-4.799999999999998712e-02 0.000000000000000000e+00
-4.700000000000000011e-02 0.000000000000000000e+00
-4.599999999999999922e-02 0.000000000000000000e+00
-4.499999999999999833e-02 0.000000000000000000e+00
-4.399999999999999745e-02 0.000000000000000000e+00
-4.299999999999999656e-02 0.000000000000000000e+00
-4.199999999999999567e-02 0.000000000000000000e+00
-4.099999999999999478e-02 0.000000000000000000e+00
-3.999999999999999389e-02 0.000000000000000000e+00
-3.899999999999999301e-02 0.000000000000000000e+00
-3.799999999999999212e-02 0.000000000000000000e+00
-3.699999999999999123e-02 0.000000000000000000e+00
-3.599999999999999034e-02 0.000000000000000000e+00
-3.499999999999998945e-02 0.000000000000000000e+00
-3.399999999999998856e-02 0.000000000000000000e+00
-3.299999999999998768e-02 0.000000000000000000e+00
-3.200000000000000067e-02 0.000000000000000000e+00
-3.099999999999999978e-02 0.000000000000000000e+00
-2.999999999999999889e-02 0.000000000000000000e+00
-2.899999999999999800e-02 0.000000000000000000e+00
-2.799999999999999711e-02 0.000000000000000000e+00
-2.699999999999999623e-02 0.000000000000000000e+00
-2.599999999999999534e-02 0.000000000000000000e+00
-2.499999999999999445e-02 0.000000000000000000e+00
-2.399999999999999356e-02 0.000000000000000000e+00
-2.299999999999999267e-02 0.000000000000000000e+00
-2.199999999999999178e-02 0.000000000000000000e+00
-2.099999999999999090e-02 0.000000000000000000e+00
-1.999999999999999001e-02 0.000000000000000000e+00
-1.899999999999998912e-02 0.000000000000000000e+00
-1.799999999999998823e-02 0.000000000000000000e+00
-1.699999999999998734e-02 0.000000000000000000e+00
-1.599999999999998646e-02 0.000000000000000000e+00
-1.499999999999999944e-02 0.000000000000000000e+00
-1.399999999999999856e-02 0.000000000000000000e+00
-1.299999999999999767e-02 0.000000000000000000e+00
-1.199999999999999678e-02 0.000000000000000000e+00
-1.099999999999999589e-02 0.000000000000000000e+00
-9.999999999999995004e-03 0.000000000000000000e+00
-8.999999999999994116e-03 0.000000000000000000e+00
-7.999999999999993228e-03 0.000000000000000000e+00
-6.999999999999992339e-03 0.000000000000000000e+00
-5.999999999999991451e-03 0.000000000000000000e+00
-4.999999999999990563e-03 0.000000000000000000e+00
-3.999999999999989675e-03 0.000000000000000000e+00
-2.999999999999988787e-03 0.000000000000000000e+00
-1.999999999999987899e-03 0.000000000000000000e+00
-9.999999999999870104e-04 0.000000000000000000e+00
0.000000000000000000e+00 0.000000000000000000e+00
1.000000000000000888e-03 0.000000000000000000e+00
2.000000000000001776e-03 0.000000000000000000e+00
3.000000000000002665e-03 0.000000000000000000e+00
4.000000000000003553e-03 0.000000000000000000e+00
5.000000000000004441e-03 0.000000000000000000e+00
6.000000000000005329e-03 0.000000000000000000e+00
7.000000000000006217e-03 0.000000000000000000e+00
8.000000000000007105e-03 0.000000000000000000e+00
9.000000000000007994e-03 0.000000000000000000e+00
1.000000000000000888e-02 0.000000000000000000e+00
1.100000000000000977e-02 0.000000000000000000e+00
1.200000000000001066e-02 0.000000000000000000e+00
1.300000000000001155e-02 0.000000000000000000e+00
1.400000000000001243e-02 0.000000000000000000e+00
1.500000000000001332e-02 0.000000000000000000e+00
1.600000000000001421e-02 0.000000000000000000e+00
1.700000000000001510e-02 0.000000000000000000e+00
1.800000000000001599e-02 0.000000000000000000e+00
1.900000000000001688e-02 0.000000000000000000e+00
2.000000000000001776e-02 0.000000000000000000e+00
2.100000000000001865e-02 0.000000000000000000e+00
2.200000000000001954e-02 0.000000000000000000e+00
2.300000000000002043e-02 0.000000000000000000e+00
2.400000000000002132e-02 0.000000000000000000e+00
2.499999999999999445e-02 0.000000000000000000e+00
2.599999999999999534e-02 0.000000000000000000e+00
2.699999999999999623e-02 0.000000000000000000e+00
2.799999999999999711e-02 0.000000000000000000e+00
2.899999999999999800e-02 0.000000000000000000e+00
2.999999999999999889e-02 0.000000000000000000e+00
3.099999999999999978e-02 0.000000000000000000e+00
3.200000000000000067e-02 0.000000000000000000e+00
3.300000000000000155e-02 0.000000000000000000e+00
3.400000000000000244e-02 0.000000000000000000e+00
3.500000000000000333e-02 0.000000000000000000e+00
3.600000000000000422e-02 0.000000000000000000e+00
3.700000000000000511e-02 0.000000000000000000e+00
3.800000000000000600e-02 0.000000000000000000e+00
3.900000000000000688e-02 0.000000000000000000e+00
4.000000000000000777e-02 0.000000000000000000e+00
4.100000000000000866e-02 0.000000000000000000e+00
4.200000000000000955e-02 0.000000000000000000e+00
4.300000000000001044e-02 0.000000000000000000e+00
4.400000000000001132e-02 0.000000000000000000e+00
4.500000000000001221e-02 0.000000000000000000e+00
4.600000000000001310e-02 0.000000000000000000e+00
4.700000000000001399e-02 0.000000000000000000e+00
4.800000000000001488e-02 0.000000000000000000e+00
4.900000000000001577e-02 0.000000000000000000e+00
5.000000000000001665e-02 0.000000000000000000e+00
5.100000000000001754e-02 0.000000000000000000e+00
5.200000000000001843e-02 0.000000000000000000e+00
5.300000000000001932e-02 0.000000000000000000e+00
5.400000000000002021e-02 0.000000000000000000e+00
5.500000000000002109e-02 0.000000000000000000e+00
5.599999999999999423e-02 0.000000000000000000e+00
5.699999999999999512e-02 0.000000000000000000e+00
5.799999999999999600e-02 0.000000000000000000e+00
5.899999999999999689e-02 0.000000000000000000e+00
5.999999999999999778e-02 0.000000000000000000e+00
6.099999999999999867e-02 0.000000000000000000e+00
6.199999999999999956e-02 0.000000000000000000e+00
6.300000000000000044e-02 0.000000000000000000e+00
6.400000000000000133e-02 0.000000000000000000e+00
6.500000000000000222e-02 0.000000000000000000e+00
6.600000000000000311e-02 0.000000000000000000e+00
6.700000000000000400e-02 0.000000000000000000e+00
6.800000000000000488e-02 0.000000000000000000e+00
6.900000000000000577e-02 0.000000000000000000e+00
7.000000000000000666e-02 0.000000000000000000e+00
7.100000000000000755e-02 0.000000000000000000e+00
7.200000000000000844e-02 0.000000000000000000e+00
7.300000000000000933e-02 0.000000000000000000e+00
7.400000000000001021e-02 0.000000000000000000e+00
7.500000000000001110e-02 1.401298464324817071e-45
7.600000000000001199e-02 -5.885453550164231698e-44
7.700000000000001288e-02 -1.420916642825364510e-42
7.800000000000001377e-02 -1.824210340858046863e-41
7.900000000000001465e-02 -1.207078497169397425e-40
8.000000000000001554e-02 5.739662457935877730e-40
8.100000000000001643e-02 3.022136957756938908e-38
8.200000000000001732e-02 5.215300608325108437e-37
8.300000000000001821e-02 6.278317910615167024e-36
8.400000000000001910e-02 5.806304984307504225e-35
8.500000000000001998e-02 4.002115617458407447e-34
8.600000000000002087e-02 1.503352765907077929e-33
8.700000000000002176e-02 -9.469247640294724023e-33
8.800000000000002265e-02 -2.790617476281486268e-31
8.899999999999999578e-02 -3.788601741739773060e-30
8.999999999999999667e-02 -3.993791296026089052e-29
9.099999999999999756e-02 -3.632402579023976665e-28
9.199999999999999845e-02 -2.974244042810329646e-27
9.299999999999999933e-02 -2.243325664412581137e-26
9.400000000000000022e-02 -1.581729593619095673e-25
9.500000000000000111e-02 -1.053588326909276236e-24
9.600000000000000200e-02 -6.682992141899940491e-24
9.700000000000000289e-02 -4.061161016350344213e-23
9.800000000000000377e-02 -2.374358233615873050e-22
9.900000000000000466e-02 -1.338739617757811386e-21
1.000000000000000056e-01 -7.283156464673916897e-21
1.010000000000000064e-01 -3.818059235509064269e-20
1.020000000000000073e-01 -1.923049779837680430e-19
1.030000000000000082e-01 -9.266408094064037225e-19
1.040000000000000091e-01 -4.249075846223112238e-18
1.050000000000000100e-01 -1.842593452681887264e-17
1.060000000000000109e-01 -7.501945158960233637e-17
1.070000000000000118e-01 -2.842890328122503821e-16
1.080000000000000127e-01 -9.916487881631583581e-16
1.090000000000000135e-01 -3.133912637590715450e-15
1.100000000000000144e-01 -8.742841147498393167e-15
1.110000000000000153e-01 -2.043027713964553488e-14
1.120000000000000162e-01 -3.439731003284859923e-14
1.130000000000000171e-01 -9.734541392913097224e-15
1.140000000000000180e-01 2.258316417983602387e-13
1.150000000000000189e-01 1.194430838957760699e-12
1.160000000000000198e-01 4.128805804193280693e-12
1.170000000000000207e-01 1.125240612492861558e-11
1.180000000000000215e-01 2.521152384082903097e-11
1.190000000000000224e-01 4.636411393699191308e-11
1.199999999999999956e-01 6.740247249226172244e-11
1.209999999999999964e-01 6.864984969379150925e-11
1.219999999999999973e-01 2.336194258878432350e-11
1.229999999999999982e-01 -7.794765527480151945e-11
1.239999999999999991e-01 -1.943078475896697910e-10
1.250000000000000000e-01 -2.346526584151575889e-10
1.260000000000000009e-01 -1.324596127227906095e-10
1.270000000000000018e-01 5.009055670246453928e-11
1.280000000000000027e-01 1.367169988331085051e-10
1.290000000000000036e-01 3.970765036220846866e-11
1.300000000000000044e-01 -7.851266164982106943e-11
1.310000000000000053e-01 -2.749503099155892194e-12
1.320000000000000062e-01 1.694692580711532059e-10
1.330000000000000071e-01 1.349554218377235770e-10
1.340000000000000080e-01 -7.130661339171950885e-11
1.350000000000000089e-01 -8.983931654160670632e-11
1.360000000000000098e-01 6.238406319303280156e-11
1.370000000000000107e-01 3.879141799445484651e-12
1.380000000000000115e-01 -1.602041138637488871e-10
1.390000000000000124e-01 -3.063278797288404576e-11
1.400000000000000133e-01 1.311211417220903286e-10
1.410000000000000142e-01 -1.097098627222958811e-11
1.420000000000000151e-01 -3.744787119286385746e-11
1.430000000000000160e-01 1.298489232803845539e-10
1.440000000000000169e-01 -5.775452165124317361e-12
1.450000000000000178e-01 -1.371012331441434640e-10
1.460000000000000187e-01 4.727464947285042740e-11
1.470000000000000195e-01 -8.558081001676376420e-13
1.480000000000000204e-01 -8.983404298223973683e-11
1.490000000000000213e-01 1.223324219701282800e-10
1.500000000000000222e-01 3.701734752059593347e-11
1.510000000000000231e-01 -8.282007718518613615e-11
1.520000000000000240e-01 7.668739948618608082e-11
1.530000000000000249e-01 -7.031454585249008460e-11
1.540000000000000258e-01 -6.920679307409471903e-11
1.550000000000000266e-01 1.133828864130492775e-10
1.560000000000000275e-01 -5.403458583352893640e-11
1.570000000000000284e-01 4.352495794335276003e-11
1.580000000000000293e-01 4.908762632482854826e-11
1.590000000000000302e-01 -1.245518965742320461e-10
1.600000000000000311e-01 6.506367666858636767e-11
1.610000000000000320e-01 -4.217136015394196136e-11
1.620000000000000329e-01 3.223623624981630797e-12
1.630000000000000338e-01 9.938396633435431227e-11
1.640000000000000346e-01 -9.551317375899870399e-11
1.650000000000000355e-01 6.025695914457784852e-11
1.660000000000000364e-01 -6.693085669029485985e-11
1.670000000000000373e-01 -8.595936462629794050e-12
1.680000000000000382e-01 7.821696068610606289e-11
1.689999999999999836e-01 -6.436323696235035641e-11
1.699999999999999845e-01 8.948360802341071008e-11
1.709999999999999853e-01 -1.015525857850363423e-10
1.719999999999999862e-01 3.264316941753442336e-11
1.729999999999999871e-01 -3.645843175970053807e-12
1.739999999999999880e-01 -1.314778147465389679e-12
1.749999999999999889e-01 7.466012530432664107e-11
1.759999999999999898e-01 -9.779713844304538384e-11
1.769999999999999907e-01 6.581521438953075176e-11
1.779999999999999916e-01 -8.491282676992284451e-11
1.789999999999999925e-01 9.061806860444221456e-11
1.799999999999999933e-01 -3.352218849728139105e-11
1.809999999999999942e-01 1.553057162040349937e-11
1.819999999999999951e-01 -1.895315154820664816e-11
1.829999999999999960e-01 -2.705114778012163157e-11
1.839999999999999969e-01 6.255945067534796067e-11
1.849999999999999978e-01 -4.474558917832993643e-11
1.859999999999999987e-01 6.862485579794963542e-11
1.869999999999999996e-01 -9.371020626147696930e-11
1.880000000000000004e-01 7.656996564575635489e-11
1.890000000000000013e-01 -7.142746116794995714e-11
1.900000000000000022e-01 9.246056698053450873e-11
1.910000000000000031e-01 -7.062758017317705139e-11
1.920000000000000040e-01 5.704531291783609959e-11
1.930000000000000049e-01 -6.594016305205840922e-11
1.940000000000000058e-01 5.762423871402688746e-11
1.950000000000000067e-01 -3.280719446108193438e-11
1.960000000000000075e-01 4.105042694657612401e-11
1.970000000000000084e-01 -3.248955271484277318e-11
1.980000000000000093e-01 2.856744008017386705e-11
1.990000000000000102e-01 -3.628583544745822564e-12
2.000000000000000111e-01 2.828735856663655568e-11
2.010000000000000120e-01 -1.479985578534126489e-11
2.020000000000000129e-01 -3.405387083432742656e-12
2.030000000000000138e-01 -1.094110912980283956e-11
2.040000000000000147e-01 1.902231150374689150e-11
2.050000000000000155e-01 8.818945573807468463e-12
2.060000000000000164e-01 1.586192288627330527e-11
2.070000000000000173e-01 -9.974521208988562648e-12
2.080000000000000182e-01 1.308031460922620681e-11
2.090000000000000191e-01 3.457401032136431240e-12
2.100000000000000200e-01 4.183164925564142322e-11
2.110000000000000209e-01 -2.717392977302779400e-11
2.120000000000000218e-01 1.576760944033139822e-11
2.130000000000000226e-01 -2.248745634148008321e-11
2.140000000000000235e-01 6.167732991002594645e-11
2.150000000000000244e-01 -4.402589404151058261e-11
2.160000000000000253e-01 3.339128973323113314e-11
2.170000000000000262e-01 -6.398592766743149696e-11
2.180000000000000271e-01 8.565570475127515238e-11
2.190000000000000280e-01 -3.238054269161239063e-11
2.200000000000000289e-01 9.515055410247441614e-11
2.210000000000000298e-01 -4.462386016257369192e-11
2.220000000000000306e-01 1.078026556911027001e-10
2.230000000000000315e-01 1.883915246025935630e-11
2.240000000000000324e-01 1.315920705735607044e-10
2.250000000000000333e-01 -4.482902937752442085e-11
2.260000000000000342e-01 1.851052644497030997e-11
2.270000000000000351e-01 -4.483791116172142210e-11
2.280000000000000360e-01 -1.550137795902628568e-11
2.290000000000000369e-01 1.189981446714227786e-11
2.300000000000000377e-01 -7.539391333466483047e-11
2.310000000000000386e-01 -4.185984892046690220e-11
2.319999999999999840e-01 -9.495071395804188796e-11
2.329999999999999849e-01 6.501288396520976676e-11
2.339999999999999858e-01 -1.475299882258696016e-10
2.349999999999999867e-01 7.831957304915704299e-12
2.359999999999999876e-01 -8.867040435234230245e-11
2.369999999999999885e-01 -1.211013511692726752e-10
2.379999999999999893e-01 -3.156213068677971023e-10
2.389999999999999902e-01 -4.206253123584247078e-10
2.399999999999999911e-01 -4.478248882833213429e-10
2.409999999999999920e-01 -4.006501796993688913e-10
2.419999999999999929e-01 -2.594422454649247811e-10
2.429999999999999938e-01 -5.316849183145677671e-10
2.439999999999999947e-01 -2.329407777779124444e-10
2.449999999999999956e-01 -3.300328899058513343e-10
2.459999999999999964e-01 -3.607780740821908694e-10
2.469999999999999973e-01 -1.040056929468846647e-10
2.479999999999999982e-01 -3.598721320940967416e-10
2.489999999999999991e-01 -4.268869702173105907e-10
2.500000000000000000e-01 -4.628724070698808646e-10
2.510000000000000009e-01 -3.295994588370376732e-10
2.520000000000000018e-01 -6.914291361681534909e-11
2.530000000000000027e-01 -2.329620940599852474e-10
2.540000000000000036e-01 -4.237499240389297483e-10
2.550000000000000044e-01 2.276294708281056955e-10
2.560000000000000053e-01 5.823288518058689078e-10
2.570000000000000062e-01 -3.156159777972789016e-10
2.580000000000000071e-01 -4.545483989204512909e-10
2.590000000000000080e-01 -1.768576396443677368e-10
2.600000000000000089e-01 -2.206235194535111077e-10
2.610000000000000098e-01 -2.544986443808738841e-10
2.620000000000000107e-01 7.032596727185591590e-11
2.630000000000000115e-01 -5.695603988442599075e-10
2.640000000000000124e-01 -2.884803507186006755e-12
2.650000000000000133e-01 1.413789973980783543e-09
2.660000000000000142e-01 8.305800491825721110e-10
2.670000000000000151e-01 1.778841962618571415e-09
2.680000000000000160e-01 1.504929514339892194e-09
2.690000000000000169e-01 1.177601127722027741e-09
2.700000000000000178e-01 1.752735734328325634e-10
2.710000000000000187e-01 9.069618389645484058e-10
2.720000000000000195e-01 5.882307974047762400e-10
2.730000000000000204e-01 1.099158097872532380e-09
2.740000000000000213e-01 9.424674374258756870e-10
2.750000000000000222e-01 1.420012551989202620e-09
2.760000000000000231e-01 2.313331748382552178e-09
2.770000000000000240e-01 2.354507699919849983e-09
2.780000000000000249e-01 2.448167890634067589e-09
2.790000000000000258e-01 2.551793443217320601e-09
2.800000000000000266e-01 1.507771685282932594e-09
2.810000000000000275e-01 2.026169454438786488e-09
2.820000000000000284e-01 1.989036491067963652e-09
2.830000000000000293e-01 2.102474638832063647e-09
2.840000000000000302e-01 2.240703622646833537e-09
2.850000000000000311e-01 2.550422095737303607e-09
2.860000000000000320e-01 2.541320043292216724e-09
2.870000000000000329e-01 2.448260261189716402e-09
2.880000000000000338e-01 2.493592887731210794e-09
2.890000000000000346e-01 2.531926668325468199e-09
2.900000000000000355e-01 2.527734466184483608e-09
2.910000000000000364e-01 2.469576543262519408e-09
2.920000000000000373e-01 2.651567854172753869e-09
2.930000000000000382e-01 2.459742631799599621e-09
2.940000000000000391e-01 2.458591552567668259e-09
2.950000000000000400e-01 2.551217903601354919e-09
2.960000000000000409e-01 2.251503872230387060e-09
2.969999999999999862e-01 2.676358690223423764e-09
2.979999999999999871e-01 2.536737042646564078e-09
2.989999999999999880e-01 2.836017642948718276e-09
2.999999999999999889e-01 2.628851802910503466e-09
3.009999999999999898e-01 2.890203631977783516e-09
3.019999999999999907e-01 3.160025130455323961e-09
3.029999999999999916e-01 3.772264278723014286e-09
3.039999999999999925e-01 3.507217627429781714e-09
3.049999999999999933e-01 4.243620566057870747e-09
3.059999999999999942e-01 3.576751339551265119e-09
3.069999999999999951e-01 3.437733653299801517e-09
3.079999999999999960e-01 2.631921347528987098e-09
3.089999999999999969e-01 1.662540327629358217e-09
3.099999999999999978e-01 2.745097482659275556e-09
3.109999999999999987e-01 2.909760432601160574e-09
3.119999999999999996e-01 2.018190725650015338e-09
3.130000000000000004e-01 2.818318023400934180e-09
3.140000000000000013e-01 3.650285407275077887e-09
3.150000000000000022e-01 4.890143401325985906e-09
3.160000000000000031e-01 4.740838832617555454e-09
3.170000000000000040e-01 6.021458887062181020e-09
3.180000000000000049e-01 5.808093561654459336e-09
3.190000000000000058e-01 5.990184348547700210e-09
3.200000000000000067e-01 5.981810602406767430e-09
3.210000000000000075e-01 6.070447255979161127e-09
3.220000000000000084e-01 6.350369119445531396e-09
3.230000000000000093e-01 6.487923087661329191e-09
3.240000000000000102e-01 6.007724095979938284e-09
3.250000000000000111e-01 5.614218423488637200e-09
3.260000000000000120e-01 5.749640763497154694e-09
3.270000000000000129e-01 5.736055186389421578e-09
3.280000000000000138e-01 5.564750438225019025e-09
3.290000000000000147e-01 5.918721512898628134e-09
3.300000000000000155e-01 5.675758529832819477e-09
3.310000000000000164e-01 5.284483961531805107e-09
3.320000000000000173e-01 5.554603887958364794e-09
3.330000000000000182e-01 5.287219551064481493e-09
3.340000000000000191e-01 5.205123443374759518e-09
3.350000000000000200e-01 5.120568857819307595e-09
3.360000000000000209e-01 5.369347633177312673e-09
3.370000000000000218e-01 5.222759114076325204e-09
3.380000000000000226e-01 4.984645585182079230e-09
3.390000000000000235e-01 4.947931842025354854e-09
3.400000000000000244e-01 5.247212442327509052e-09
3.410000000000000253e-01 5.104844547076936578e-09
3.420000000000000262e-01 5.226112875789112877e-09
3.430000000000000271e-01 5.175337491891696118e-09
3.440000000000000280e-01 5.264379154823473073e-09
3.450000000000000289e-01 5.455019547184747353e-09
3.460000000000000298e-01 5.440671912992911530e-09
3.470000000000000306e-01 5.256561408373272570e-09
3.480000000000000315e-01 5.513980383398120466e-09
3.490000000000000324e-01 5.497156507772160694e-09
3.500000000000000333e-01 5.602823094363884593e-09
3.510000000000000342e-01 5.570363725837523816e-09
3.520000000000000351e-01 5.456804785808344604e-09
3.530000000000000360e-01 5.639057221173970902e-09
3.540000000000000369e-01 5.693492788338971877e-09
3.550000000000000377e-01 5.424350746352502028e-09
3.560000000000000386e-01 5.311733275448204949e-09
3.570000000000000395e-01 5.568855598880873004e-09
3.580000000000000404e-01 5.322058349577218905e-09
3.590000000000000413e-01 5.304556349727818088e-09
3.599999999999999867e-01 5.192498875317141938e-09
3.609999999999999876e-01 5.458363983024128174e-09
3.619999999999999885e-01 5.332129404678198625e-09
3.629999999999999893e-01 5.191364227385975028e-09
3.639999999999999902e-01 5.139447534219243607e-09
3.649999999999999911e-01 5.456720408858473093e-09
3.659999999999999920e-01 5.350631049338971934e-09
3.669999999999999929e-01 5.455334850523740897e-09
3.679999999999999938e-01 5.316867390803281523e-09
3.689999999999999947e-01 5.690635962452006424e-09
3.699999999999999956e-01 5.762314625457065631e-09
3.709999999999999964e-01 5.562450056117995700e-09
3.719999999999999973e-01 5.884045695125905695e-09
3.729999999999999982e-01 5.886190646009481497e-09
3.739999999999999991e-01 5.563164151567434601e-09
3.750000000000000000e-01 5.659053226025889671e-09
3.760000000000000009e-01 5.454948492911171343e-09
3.770000000000000018e-01 5.604869457442873681e-09
3.780000000000000027e-01 5.783645562473793689e-09
3.790000000000000036e-01 5.738603370275541238e-09
3.800000000000000044e-01 5.827887505915896327e-09
3.810000000000000053e-01 5.747686326884604568e-09
3.820000000000000062e-01 5.679928527513311565e-09
3.830000000000000071e-01 5.521124002427768573e-09
3.840000000000000080e-01 5.494678489981197345e-09
3.850000000000000089e-01 5.621445975378946969e-09
3.860000000000000098e-01 5.616711540312735451e-09
3.870000000000000107e-01 5.444896977735425025e-09
3.880000000000000115e-01 5.475127906606758188e-09
3.890000000000000124e-01 5.732935903779434739e-09
3.900000000000000133e-01 5.779666967242746978e-09
3.910000000000000142e-01 5.795474322667359957e-09
3.920000000000000151e-01 5.916543699413523427e-09
3.930000000000000160e-01 5.823005189142804738e-09
3.940000000000000169e-01 5.554404047813932266e-09
3.950000000000000178e-01 5.857078377857760643e-09
3.960000000000000187e-01 5.728379548486373096e-09
3.970000000000000195e-01 5.694710480952380749e-09
3.980000000000000204e-01 5.666885627420015226e-09
3.990000000000000213e-01 5.700567129451883375e-09
4.000000000000000222e-01 5.880200326657814003e-09
4.010000000000000231e-01 5.973324501695742583e-09
4.020000000000000240e-01 5.724083429470283590e-09
4.030000000000000249e-01 5.854522200365863682e-09
4.040000000000000258e-01 5.954340576153072107e-09
4.050000000000000266e-01 5.813483916483619396e-09
4.060000000000000275e-01 5.826486848548029229e-09
4.070000000000000284e-01 5.934475577618059106e-09
4.080000000000000293e-01 5.844780659458592709e-09
4.090000000000000302e-01 5.767211597174082272e-09
4.100000000000000311e-01 5.859042584432927470e-09
4.110000000000000320e-01 5.813790782127625789e-09
4.120000000000000329e-01 5.928309398939290986e-09
4.130000000000000338e-01 5.935847813276495799e-09
4.140000000000000346e-01 5.759983601194562652e-09
4.150000000000000355e-01 5.785306456118632923e-09
4.160000000000000364e-01 5.796518820488927304e-09
4.170000000000000373e-01 5.898734389830906366e-09
4.180000000000000382e-01 5.953978199357834455e-09
4.190000000000000391e-01 5.810573355802262085e-09
4.200000000000000400e-01 5.882704989801368356e-09
4.210000000000000409e-01 5.843562078666764137e-09
4.220000000000000417e-01 5.789599022421043628e-09
4.230000000000000426e-01 5.963092686300797141e-09
4.240000000000000435e-01 6.041777744769660785e-09
4.250000000000000444e-01 5.849364104193455205e-09
4.260000000000000453e-01 5.822633042384950386e-09
4.270000000000000462e-01 5.773145517196098808e-09
4.280000000000000471e-01 5.641525024913107700e-09
4.290000000000000480e-01 5.793667323672480052e-09
4.300000000000000488e-01 5.830864235889521296e-09
4.310000000000000497e-01 5.609280595564314353e-09
4.320000000000000506e-01 5.686236370650021854e-09
4.330000000000000515e-01 5.715733664146682713e-09
4.340000000000000524e-01 5.730580898699599857e-09
4.350000000000000533e-01 5.815634196437713399e-09
4.360000000000000542e-01 5.597326158124360518e-09
4.370000000000000551e-01 5.642124101257195434e-09
4.380000000000000560e-01 5.819758008840381081e-09
4.390000000000000568e-01 5.843686867734732004e-09
4.400000000000000577e-01 5.826226612271057093e-09
4.410000000000000586e-01 5.651939805062511368e-09
4.420000000000000595e-01 5.842277328582667906e-09
4.430000000000000604e-01 6.006380726120141844e-09
4.440000000000000613e-01 5.986575235539248752e-09
4.450000000000000622e-01 5.754432930160646720e-09
4.460000000000000631e-01 5.718501228102468303e-09
4.470000000000000639e-01 5.954917448036667338e-09
4.480000000000000648e-01 5.927112134429535217e-09
4.490000000000000657e-01 5.767398114642219298e-09
4.500000000000000666e-01 5.733282737452327638e-09
4.510000000000000675e-01 5.888671328335703947e-09
4.520000000000000684e-01 5.745667941425836034e-09
4.530000000000000693e-01 5.738539421429322829e-09
4.540000000000000702e-01 5.755569354448653030e-09
4.550000000000000711e-01 6.038025190946427756e-09
4.560000000000000719e-01 5.853337370353983715e-09
4.569999999999999618e-01 5.680266035312797612e-09
4.579999999999999627e-01 5.832768046332148515e-09
4.589999999999999636e-01 5.942271563696976955e-09
4.599999999999999645e-01 5.835669725229308824e-09
4.609999999999999654e-01 5.659803292701326427e-09
4.619999999999999662e-01 5.872244912552559981e-09
4.629999999999999671e-01 5.958423088259223732e-09
4.639999999999999680e-01 5.852534457062574802e-09
4.649999999999999689e-01 5.888429299716335663e-09
4.659999999999999698e-01 5.817174297817473416e-09
4.669999999999999707e-01 6.065139501743033179e-09
4.679999999999999716e-01 5.785077306086350291e-09
4.689999999999999725e-01 5.880199438479394303e-09
4.699999999999999734e-01 6.044370337576765451e-09
4.709999999999999742e-01 6.073198832723392115e-09
4.719999999999999751e-01 6.020595577638232498e-09
4.729999999999999760e-01 5.817510029260120064e-09
4.739999999999999769e-01 6.036037447643138876e-09