-1.199999999999999956e-01 0.000000000000000000e+00
-1.189999999999999947e-01 0.000000000000000000e+00
-1.179999999999999938e-01 0.000000000000000000e+00
-1.169999999999999929e-01 0.000000000000000000e+00
-1.159999999999999920e-01 0.000000000000000000e+00
-1.149999999999999911e-01 0.000000000000000000e+00
-1.139999999999999902e-01 0.000000000000000000e+00
-1.129999999999999893e-01 0.000000000000000000e+00
-1.119999999999999885e-01 0.000000000000000000e+00
-1.109999999999999876e-01 0.000000000000000000e+00
-1.100000000000000006e-01 0.000000000000000000e+00
-1.089999999999999997e-01 0.000000000000000000e+00
-1.079999999999999988e-01 0.000000000000000000e+00
-1.069999999999999979e-01 0.000000000000000000e+00
-1.059999999999999970e-01 0.000000000000000000e+00
-1.049999999999999961e-01 0.000000000000000000e+00
-1.039999999999999952e-01 0.000000000000000000e+00
-1.029999999999999943e-01 0.000000000000000000e+00
-1.019999999999999934e-01 0.000000000000000000e+00
-1.009999999999999926e-01 0.000000000000000000e+00
-9.999999999999999167e-02 0.000000000000000000e+00
-9.899999999999999079e-02 0.000000000000000000e+00
-9.800000000000000377e-02 0.000000000000000000e+00
-9.700000000000000289e-02 0.000000000000000000e+00
-9.600000000000000200e-02 0.000000000000000000e+00
-9.500000000000000111e-02 0.000000000000000000e+00
-9.400000000000000022e-02 0.000000000000000000e+00
-9.299999999999999933e-02 0.000000000000000000e+00
-9.199999999999999845e-02 0.000000000000000000e+00
-9.099999999999999756e-02 0.000000000000000000e+00
-8.999999999999999667e-02 0.000000000000000000e+00
-8.899999999999999578e-02 0.000000000000000000e+00
-8.799999999999999489e-02 0.000000000000000000e+00
-8.699999999999999400e-02 0.000000000000000000e+00
-8.599999999999999312e-02 0.000000000000000000e+00
-8.499999999999999223e-02 0.000000000000000000e+00
-8.399999999999999134e-02 0.000000000000000000e+00
-8.299999999999999045e-02 0.000000000000000000e+00
-8.199999999999998956e-02 0.000000000000000000e+00
-8.099999999999998868e-02 0.000000000000000000e+00
-7.999999999999998779e-02 0.000000000000000000e+00
-7.899999999999998690e-02 0.000000000000000000e+00
-7.799999999999998601e-02 0.000000000000000000e+00
-7.699999999999998512e-02 0.000000000000000000e+00
-7.599999999999999811e-02 0.000000000000000000e+00
-7.499999999999999722e-02 0.000000000000000000e+00
-7.399999999999999634e-02 0.000000000000000000e+00
-7.299999999999999545e-02 0.000000000000000000e+00
-7.199999999999999456e-02 0.000000000000000000e+00
-7.099999999999999367e-02 0.000000000000000000e+00
-6.999999999999999278e-02 0.000000000000000000e+00
-6.899999999999999190e-02 0.000000000000000000e+00
-6.799999999999999101e-02 0.000000000000000000e+00
-6.700000000000000400e-02 0.000000000000000000e+00
-6.600000000000000311e-02 0.000000000000000000e+00
-6.500000000000000222e-02 0.000000000000000000e+00
-6.400000000000000133e-02 0.000000000000000000e+00
-6.300000000000000044e-02 0.000000000000000000e+00
-6.199999999999999262e-02 0.000000000000000000e+00
-6.099999999999999173e-02 0.000000000000000000e+00
-5.999999999999999778e-02 0.000000000000000000e+00
-5.899999999999999689e-02 0.000000000000000000e+00
-5.799999999999999600e-02 2.522337235784670728e-44
-5.699999999999999512e-02 -1.486119060370398248e-40
-5.599999999999999423e-02 4.570180013837175125e-37
-5.499999999999999334e-02 -7.160472869333596670e-34
-5.399999999999999245e-02 5.372763850631081820e-31
-5.299999999999999156e-02 -1.706607208991604870e-28
-5.199999999999999067e-02 1.601611045472202884e-26
-5.099999999999998979e-02 4.659600700647751140e-25
-4.999999999999998890e-02 -1.831177612807560245e-23
-4.899999999999998801e-02 -1.438443760190469552e-21
-4.799999999999998712e-02 -4.990427810676725627e-20
-4.700000000000000011e-02 -1.244318696476781448e-18
-4.599999999999999922e-02 -2.447761104931397459e-17
-4.499999999999999833e-02 -3.684138834440445339e-16
-4.399999999999999745e-02 -3.792565880892133021e-15
-4.299999999999999656e-02 -1.957378452843629851e-14
-4.199999999999999567e-02 6.556154273987258030e-14
-4.099999999999999478e-02 1.882419133764079433e-12
-3.999999999999999389e-02 1.345429063298597683e-11
-3.899999999999999301e-02 4.202813791431836421e-11
-3.799999999999999212e-02 5.649000798385594990e-12
-3.699999999999999123e-02 -3.595688746749203801e-10
-3.599999999999999034e-02 -9.640176434899672131e-10
-3.499999999999998945e-02 -6.145497444265402009e-10
-3.399999999999998856e-02 7.668135570959577763e-10
-3.299999999999998768e-02 3.430280504090887916e-10
-3.200000000000000067e-02 -9.089933250550075172e-10
-3.099999999999999978e-02 3.179636831607268732e-10
-2.999999999999999889e-02 -1.309551495021210599e-10
-2.899999999999999800e-02 -8.042673194097460510e-10
-2.799999999999999711e-02 5.614622100580390907e-10
-2.699999999999999623e-02 -6.497206661570942288e-10
-2.599999999999999534e-02 5.191107543822681691e-10
-2.499999999999999445e-02 4.214872895147436793e-11
-2.399999999999999356e-02 7.880621849531976864e-11
-2.299999999999999267e-02 2.659295006424144958e-10
-2.199999999999999178e-02 -5.608310482685396892e-10
-2.099999999999999090e-02 4.713521933874531555e-11
-1.999999999999999001e-02 -1.076553513001954343e-09
-1.899999999999998912e-02 -1.535237631467012420e-10
-1.799999999999998823e-02 -1.088759415956985777e-09
-1.699999999999998734e-02 2.921462516347617111e-10
-1.599999999999998646e-02 -2.345199312525636515e-10
-1.499999999999999944e-02 1.104572211474419419e-09
-1.399999999999999856e-02 1.507274166590022446e-10
-1.299999999999999767e-02 5.026003502273113099e-10
-1.199999999999999678e-02 -7.881288399680386192e-10
-1.099999999999999589e-02 -3.207527854431901915e-10
-9.999999999999995004e-03 4.833418387750754164e-11
-8.999999999999994116e-03 8.533579398672941352e-10
-7.999999999999993228e-03 1.359492657337924015e-10
-6.999999999999992339e-03 -1.804314697650966082e-09
-5.999999999999991451e-03 -5.245222589600473384e-10
-4.999999999999990563e-03 7.015092950979351372e-10
-3.999999999999989675e-03 8.937226514404983391e-10
-2.999999999999988787e-03 -1.935801963171002171e-09
-1.999999999999987899e-03 1.886799327888155631e-10
-9.999999999999870104e-04 2.593704695463827647e-10
0.000000000000000000e+00 -1.140134431310002583e-09
1.000000000000000888e-03 1.028901186472808149e-09
2.000000000000001776e-03 2.158892842274440227e-09
3.000000000000002665e-03 -1.596982324159057498e-09
4.000000000000003553e-03 -2.711759927720436281e-09
5.000000000000004441e-03 3.569835538286270094e-09
6.000000000000005329e-03 2.359206163760063646e-10
7.000000000000006217e-03 -3.285630656435500896e-10
8.000000000000007105e-03 2.713690383515654503e-11
9.000000000000007994e-03 -2.475077032215722284e-09
1.000000000000000888e-02 1.592340925782309569e-09
1.100000000000000977e-02 1.286730944016767353e-09
1.200000000000001066e-02 -9.657186161859954154e-10
1.300000000000001155e-02 -1.011212891199875230e-09
1.400000000000001243e-02 -9.105102227735528686e-10
1.500000000000001332e-02 1.078408473631498055e-09
1.600000000000001421e-02 -5.562128535530064255e-11
1.700000000000001510e-02 1.331713406216294970e-09
1.800000000000001599e-02 -1.223646739489936408e-09
1.900000000000001688e-02 -1.327481680135633724e-09
2.000000000000001776e-02 2.327090964371336668e-09
2.100000000000001865e-02 -2.198197179836824944e-10
2.200000000000001954e-02 -8.096856518591266649e-10
2.300000000000002043e-02 2.814930510908197903e-10
2.400000000000002132e-02 -1.811741867641103454e-09
2.499999999999999445e-02 1.529407711586827645e-10
2.599999999999999534e-02 1.609333111218802514e-09
2.699999999999999623e-02 -1.241172498112064204e-09
2.799999999999999711e-02 -1.205837207862714422e-09
2.899999999999999800e-02 6.211475778172825812e-10
2.999999999999999889e-02 5.999876151463467977e-10
3.099999999999999978e-02 -5.292104532372832182e-10
3.200000000000000067e-02 -6.106297689711936982e-10
3.300000000000000155e-02 4.078408721852611052e-10
3.400000000000000244e-02 -6.918376982412155485e-10
3.500000000000000333e-02 -1.292963958121617907e-09
3.600000000000000422e-02 4.741309567179996520e-10
3.700000000000000511e-02 -7.935341272968798876e-11
3.800000000000000600e-02 -1.258484871868859045e-09
3.900000000000000688e-02 -4.682121357291180175e-10
4.000000000000000777e-02 -1.392166382174764294e-10
4.100000000000000866e-02 2.588009806459012907e-10
4.200000000000000955e-02 2.153726086362439673e-10
4.300000000000001044e-02 -1.046075226440734696e-09
4.400000000000001132e-02 -7.966605153342243284e-10
4.500000000000001221e-02 9.424638847121968865e-11
4.600000000000001310e-02 -4.125411123823141679e-11
4.700000000000001399e-02 1.300293206440983340e-10
4.800000000000001488e-02 -1.042792519001523033e-09
4.900000000000001577e-02 -7.244267408168525435e-10
5.000000000000001665e-02 2.013038624681939837e-09
5.100000000000001754e-02 -1.869295829237671569e-09
5.200000000000001843e-02 3.862510311591904610e-09
5.300000000000001932e-02 -1.454040443604753818e-09
5.400000000000002021e-02 -3.393466840861947276e-09
5.500000000000002109e-02 9.809042467168183066e-09
5.599999999999999423e-02 -1.463715193494863342e-08
5.699999999999999512e-02 1.489763690187828615e-08
5.799999999999999600e-02 -1.907295654746121727e-09
5.899999999999999689e-02 -5.104340061734546907e-09
5.999999999999999778e-02 1.003587613013223745e-08
6.099999999999999867e-02 -8.935217010730411857e-10
6.199999999999999956e-02 -4.158550837018992752e-09
6.300000000000000044e-02 8.437382348347455263e-09
6.400000000000000133e-02 4.535252173809567466e-09
6.500000000000000222e-02 -5.344645614968612790e-09
6.600000000000000311e-02 5.749910769736743532e-09
6.700000000000000400e-02 1.039134644997830037e-08
6.800000000000000488e-02 -4.544887133306474425e-09
6.900000000000000577e-02 4.478650339478917886e-09
7.000000000000000666e-02 7.078810426719428506e-09
7.100000000000000755e-02 5.520973900274839252e-09
7.200000000000000844e-02 -6.280245656853367109e-09
7.300000000000000933e-02 1.238107216749995132e-08
7.400000000000001021e-02 3.216207744571875082e-09
7.500000000000001110e-02 -1.538627003583314945e-09
7.600000000000001199e-02 -6.122355955540115247e-10
7.700000000000001288e-02 1.074851496696282993e-08
7.800000000000001377e-02 3.767567591239640024e-09
7.900000000000001465e-02 -6.288956910793785937e-09
8.000000000000001554e-02 7.518423217334202491e-09
8.100000000000001643e-02 4.051656787851243280e-09
8.200000000000001732e-02 1.121918558055767789e-09
8.300000000000001821e-02 -4.933895070280414075e-09
8.400000000000001910e-02 4.776779860549140722e-09
8.500000000000001998e-02 2.648505414981627837e-09
8.600000000000002087e-02 -8.881386293069226667e-09
8.700000000000002176e-02 -1.265334503841586411e-10
8.800000000000002265e-02 -2.131628207280300558e-11
8.899999999999999578e-02 1.017326667351881042e-09
8.999999999999999667e-02 -7.817050118319457397e-09
9.099999999999999756e-02 -1.990827058762079105e-09
9.199999999999999845e-02 8.552206054446287453e-09
9.299999999999999933e-02 -5.425818017101846635e-09
9.400000000000000022e-02 -8.063466339081060141e-09
9.500000000000000111e-02 -7.389985512418206781e-09
9.600000000000000200e-02 -4.427874955581501126e-09
9.700000000000000289e-02 -1.003911620500730351e-08
9.800000000000000377e-02 -1.820524175855098292e-08
9.900000000000000466e-02 -6.343327640934148803e-09
1.000000000000000056e-01 -5.662741386913694441e-09
1.010000000000000064e-01 -1.110765879275277257e-08
1.020000000000000073e-01 -1.049804154718003701e-08
1.030000000000000082e-01 -1.293372520194679964e-08
1.040000000000000091e-01 -1.210666056294940063e-08
1.050000000000000100e-01 -2.460433279338758439e-08
1.060000000000000109e-01 -3.097554213127295952e-08
1.070000000000000118e-01 -2.015815425693290308e-08
1.080000000000000127e-01 -2.344711447221925482e-08
1.090000000000000135e-01 -3.040963747480418533e-08
1.100000000000000144e-01 -3.485433808236848563e-08
1.110000000000000153e-01 -3.701165951497387141e-08
1.120000000000000162e-01 -3.779337021114770323e-08
1.130000000000000171e-01 -5.631682142848148942e-08
1.140000000000000180e-01 -6.673826646874658763e-08
1.150000000000000189e-01 -6.219443093868903816e-08
1.160000000000000198e-01 -6.866139301564544439e-08
1.170000000000000207e-01 -7.748531061224639416e-08
1.180000000000000215e-01 -9.082941687665879726e-08
1.190000000000000224e-01 -1.025182427838444710e-07
1.199999999999999956e-01 -1.095168045139871538e-07
1.209999999999999964e-01 -1.299013092648237944e-07
1.219999999999999973e-01 -1.475855242460966110e-07
1.229999999999999982e-01 -1.527605490991845727e-07
1.239999999999999991e-01 -1.663647708483040333e-07
1.250000000000000000e-01 -1.836742740124464035e-07
1.260000000000000009e-01 -2.041779225692152977e-07
1.270000000000000018e-01 -2.237702574348077178e-07
1.280000000000000027e-01 -2.357555786147713661e-07
1.290000000000000036e-01 -2.599808794911950827e-07
1.300000000000000044e-01 -2.834240149240940809e-07
1.310000000000000053e-01 -2.896595105994492769e-07
1.320000000000000062e-01 -3.037494025193154812e-07
1.330000000000000071e-01 -3.237037162762135267e-07
1.340000000000000080e-01 -3.430977812968194485e-07
1.350000000000000089e-01 -3.604145604185760021e-07
1.360000000000000098e-01 -3.642999217845499516e-07
1.370000000000000107e-01 -3.683089744299650192e-07
1.380000000000000115e-01 -3.804161678999662399e-07
1.390000000000000124e-01 -3.779641701839864254e-07
1.400000000000000133e-01 -3.671666490845382214e-07
1.410000000000000142e-01 -3.613822627812623978e-07
1.420000000000000151e-01 -3.504828782752156258e-07
1.430000000000000160e-01 -3.351888153702020645e-07
1.440000000000000169e-01 -3.021268639713525772e-07
1.450000000000000178e-01 -2.552551450207829475e-07
1.460000000000000187e-01 -2.148299245163798332e-07
1.470000000000000195e-01 -1.685257302597165108e-07
1.480000000000000204e-01 -1.029111444950103760e-07
1.490000000000000213e-01 -3.508466761559247971e-08
1.500000000000000222e-01 4.214234650135040283e-08
1.510000000000000231e-01 1.318694557994604111e-07
1.520000000000000240e-01 2.307642716914415359e-07
1.530000000000000249e-01 3.433960955590009689e-07
1.540000000000000258e-01 4.580942913889884949e-07
1.550000000000000266e-01 5.715701263397932053e-07
1.560000000000000275e-01 7.010530680418014526e-07
1.570000000000000284e-01 8.429342415183782578e-07
1.580000000000000293e-01 9.832147043198347092e-07
1.590000000000000302e-01 1.126201823353767395e-06
1.600000000000000311e-01 1.270789653062820435e-06
1.610000000000000320e-01 1.417938619852066040e-06
1.620000000000000329e-01 1.563836121931672096e-06
1.630000000000000338e-01 1.697248080745339394e-06
1.640000000000000346e-01 1.826090738177299500e-06
1.650000000000000355e-01 1.960492227226495743e-06
1.660000000000000364e-01 2.082233550027012825e-06
1.670000000000000373e-01 2.178945578634738922e-06
1.680000000000000382e-01 2.257351297885179520e-06
1.689999999999999836e-01 2.316868631169199944e-06
1.699999999999999845e-01 2.363201929256320000e-06
1.709999999999999853e-01 2.392029273323714733e-06
1.719999999999999862e-01 2.384389517828822136e-06
1.729999999999999871e-01 2.353903255425393581e-06
1.739999999999999880e-01 2.300555934198200703e-06
1.749999999999999889e-01 2.209657395724207163e-06
1.759999999999999898e-01 2.085296728182584047e-06
1.769999999999999907e-01 1.931785845954436809e-06
1.779999999999999916e-01 1.755470293574035168e-06
1.789999999999999925e-01 1.547909050714224577e-06
1.799999999999999933e-01 1.309250365011394024e-06
1.809999999999999942e-01 1.032298314385116100e-06
1.819999999999999951e-01 7.301860023289918900e-07
1.829999999999999960e-01 4.157191142439842224e-07
1.839999999999999969e-01 7.674680091440677643e-08
1.849999999999999978e-01 -2.807064447551965714e-07
1.859999999999999987e-01 -6.483751349151134491e-07
1.869999999999999996e-01 -1.028296537697315216e-06
1.880000000000000004e-01 -1.412408892065286636e-06
1.890000000000000013e-01 -1.799373421818017960e-06
1.900000000000000022e-01 -2.180750016123056412e-06
1.910000000000000031e-01 -2.542219590395689011e-06
1.920000000000000040e-01 -2.884771674871444702e-06
1.930000000000000049e-01 -3.217835910618305206e-06
1.940000000000000058e-01 -3.530120011419057846e-06
1.950000000000000067e-01 -3.805442247539758682e-06
1.960000000000000075e-01 -4.043104127049446106e-06
1.970000000000000084e-01 -4.240893758833408356e-06
1.980000000000000093e-01 -4.397938027977943420e-06
1.990000000000000102e-01 -4.514236934483051300e-06
2.000000000000000111e-01 -4.579545930027961731e-06
2.010000000000000120e-01 -4.593282938003540039e-06
2.020000000000000129e-01 -4.565576091408729553e-06
2.030000000000000138e-01 -4.485249519348144531e-06
2.040000000000000147e-01 -4.346249625086784363e-06
2.050000000000000155e-01 -4.158937372267246246e-06
2.060000000000000164e-01 -3.929948434233665466e-06
2.070000000000000173e-01 -3.664579708129167557e-06
2.080000000000000182e-01 -3.361259587109088898e-06
2.090000000000000191e-01 -3.012304659932851791e-06
2.100000000000000200e-01 -2.618762664496898651e-06
2.110000000000000209e-01 -2.213520929217338562e-06
2.120000000000000218e-01 -1.792679540812969208e-06
2.130000000000000226e-01 -1.352571416646242142e-06
2.140000000000000235e-01 -9.025970939546823502e-07
2.150000000000000244e-01 -4.449102561920881271e-07
2.160000000000000253e-01 1.040461938828229904e-08
2.170000000000000262e-01 4.566973075270652771e-07
2.180000000000000271e-01 8.919760148273780942e-07
2.190000000000000280e-01 1.312870153924450278e-06
2.200000000000000289e-01 1.702617737464606762e-06
2.210000000000000298e-01 2.059488906525075436e-06
2.220000000000000306e-01 2.393790055066347122e-06
2.230000000000000315e-01 2.697895979508757591e-06
2.240000000000000324e-01 2.958753611892461777e-06
2.250000000000000333e-01 3.175082383677363396e-06
2.260000000000000342e-01 3.348919562995433807e-06
2.270000000000000351e-01 3.483495675027370453e-06
2.280000000000000360e-01 3.580062184482812881e-06
2.290000000000000369e-01 3.633263986557722092e-06
2.300000000000000377e-01 3.644090611487627029e-06
2.310000000000000386e-01 3.614288289099931717e-06
2.319999999999999840e-01 3.549444954842329025e-06
2.329999999999999849e-01 3.441236913204193115e-06
2.339999999999999858e-01 3.305962309241294861e-06
2.349999999999999867e-01 3.147986717522144318e-06
2.359999999999999876e-01 2.966320607811212540e-06
2.369999999999999885e-01 2.759334165602922440e-06
2.379999999999999893e-01 2.531101927161216736e-06
2.389999999999999902e-01 2.283195499330759048e-06
2.399999999999999911e-01 2.033601049333810806e-06
2.409999999999999920e-01 1.786975190043449402e-06
2.419999999999999929e-01 1.531559973955154419e-06
2.429999999999999938e-01 1.269509084522724152e-06
2.439999999999999947e-01 1.012929715216159821e-06
2.449999999999999956e-01 7.650814950466156006e-07
2.459999999999999964e-01 5.273032002151012421e-07
2.469999999999999973e-01 3.032037056982517242e-07
2.479999999999999982e-01 9.045470505952835083e-08
2.489999999999999991e-01 -1.064909156411886215e-07
2.500000000000000000e-01 -2.836459316313266754e-07
2.510000000000000009e-01 -4.496832843869924545e-07
2.520000000000000018e-01 -6.030313670635223389e-07
2.530000000000000027e-01 -7.290509529411792755e-07
2.540000000000000036e-01 -8.303031791001558304e-07
2.550000000000000044e-01 -9.193026926368474960e-07
2.560000000000000053e-01 -9.952200343832373619e-07
2.570000000000000062e-01 -1.057720510289072990e-06
2.580000000000000071e-01 -1.101740053854882717e-06
2.590000000000000080e-01 -1.120934030041098595e-06
2.600000000000000089e-01 -1.127693394664674997e-06
2.610000000000000098e-01 -1.129810698330402374e-06
2.620000000000000107e-01 -1.120499291573651135e-06
2.630000000000000115e-01 -1.096118467103224248e-06
2.640000000000000124e-01 -1.063532636180752888e-06
2.650000000000000133e-01 -1.025706296786665916e-06
2.660000000000000142e-01 -9.800132829695940018e-07
2.670000000000000151e-01 -9.284012776333838701e-07
2.680000000000000160e-01 -8.729512046556919813e-07
2.690000000000000169e-01 -8.157039701472967863e-07
2.700000000000000178e-01 -7.619892130605876446e-07
2.710000000000000187e-01 -7.063135853968560696e-07
2.720000000000000195e-01 -6.404152372851967812e-07
2.730000000000000204e-01 -5.756010068580508232e-07
2.740000000000000213e-01 -5.211404641158878803e-07
2.750000000000000222e-01 -4.711837391369044781e-07
2.760000000000000231e-01 -4.197863745503127575e-07
2.770000000000000240e-01 -3.679379005916416645e-07
2.780000000000000249e-01 -3.146924427710473537e-07
2.790000000000000258e-01 -2.668894012458622456e-07
2.800000000000000266e-01 -2.312153810635209084e-07
2.810000000000000275e-01 -1.966182026080787182e-07
2.820000000000000284e-01 -1.591542968526482582e-07
2.830000000000000293e-01 -1.281732693314552307e-07
2.840000000000000302e-01 -1.006264938041567802e-07
2.850000000000000311e-01 -7.275957614183425903e-08
2.860000000000000320e-01 -4.866160452365875244e-08
2.870000000000000329e-01 -3.210880095139145851e-08
2.880000000000000338e-01 -1.774242264218628407e-08
2.890000000000000346e-01 -5.504261935129761696e-09
2.900000000000000355e-01 7.919879863038659096e-09
2.910000000000000364e-01 2.423257683403789997e-08
2.920000000000000373e-01 3.353852662257850170e-08
2.930000000000000382e-01 3.274544724263250828e-08
2.940000000000000391e-01 3.358218236826360226e-08
2.950000000000000400e-01 4.140019882470369339e-08
2.960000000000000409e-01 4.729008651338517666e-08
2.969999999999999862e-01 4.933099262416362762e-08
2.979999999999999871e-01 4.893445293419063091e-08
2.989999999999999880e-01 4.469984560273587704e-08
2.999999999999999889e-01 4.284447641111910343e-08
3.009999999999999898e-01 4.511821316555142403e-08
3.019999999999999907e-01 4.324101610109210014e-08
3.029999999999999916e-01 4.005596565548330545e-08
3.039999999999999925e-01 4.049252311233431101e-08
3.049999999999999933e-01 3.862805897369980812e-08
3.059999999999999942e-01 3.162494977004826069e-08
3.069999999999999951e-01 2.702836354728788137e-08
3.079999999999999960e-01 2.818887878675013781e-08
3.089999999999999969e-01 2.925116859842091799e-08
3.099999999999999978e-01 2.857632352970540524e-08
3.109999999999999987e-01 2.287197276018559933e-08
3.119999999999999996e-01 1.344051270280033350e-08
3.130000000000000004e-01 1.203807187266647816e-08
3.140000000000000013e-01 1.771149982232600451e-08
3.150000000000000022e-01 1.790522219380363822e-08
3.160000000000000031e-01 1.153239281848073006e-08
3.170000000000000040e-01 6.198206392582505941e-09
3.180000000000000049e-01 4.354660632088780403e-09
3.190000000000000058e-01 4.357389116194099188e-09
3.200000000000000067e-01 6.480149750132113695e-09
3.210000000000000075e-01 5.448782758321613073e-09
3.220000000000000084e-01 7.094058673828840256e-10
3.230000000000000093e-01 2.273736754432320595e-11
3.240000000000000102e-01 -1.055013854056596756e-10
3.250000000000000111e-01 -4.169123712927103043e-09
3.260000000000000120e-01 -5.270521796774119139e-09
3.270000000000000129e-01 -6.557456799782812595e-10
3.280000000000000138e-01 -3.137756721116602421e-10
3.290000000000000147e-01 -4.737557901535183191e-09
3.300000000000000155e-01 -8.875758794602006674e-09
3.310000000000000164e-01 -1.062653609551489353e-08
3.320000000000000173e-01 -7.328708306886255741e-09
3.330000000000000182e-01 -1.725311449263244867e-09
3.340000000000000191e-01 -4.132289177505299449e-09
3.350000000000000200e-01 -1.208627509186044335e-08
3.360000000000000209e-01 -1.443822839064523578e-08
3.370000000000000218e-01 -9.329141903435811400e-09
3.380000000000000226e-01 -6.577920430572703481e-09
3.390000000000000235e-01 -7.068138074828311801e-09
3.400000000000000244e-01 -1.045600583893246949e-08
3.410000000000000253e-01 -1.394437276758253574e-08
3.420000000000000262e-01 -1.313674147240817547e-08
3.430000000000000271e-01 -1.028956830850802362e-08
3.440000000000000280e-01 -1.034004526445642114e-08
3.450000000000000289e-01 -1.221178536070510745e-08
3.460000000000000298e-01 -1.100534063880331814e-08
3.470000000000000306e-01 -1.107127900468185544e-08
3.480000000000000315e-01 -1.524404069641605020e-08
3.490000000000000324e-01 -1.618991518625989556e-08
3.500000000000000333e-01 -1.241278368979692459e-08
3.510000000000000342e-01 -9.383711585542187095e-09
3.520000000000000351e-01 -9.753875929163768888e-09
3.530000000000000360e-01 -1.436251295672263950e-08
3.540000000000000369e-01 -1.916669134516268969e-08
3.550000000000000377e-01 -1.636021806916687638e-08
3.560000000000000386e-01 -9.107679943554103374e-09
3.570000000000000395e-01 -8.641563908895477653e-09
3.580000000000000404e-01 -1.526518644823227078e-08
3.590000000000000413e-01 -1.851140041253529489e-08
3.599999999999999867e-01 -1.649141267989762127e-08
3.609999999999999876e-01 -1.325588527834042907e-08
3.619999999999999885e-01 -1.117018655349966139e-08
3.629999999999999893e-01 -1.235162017110269517e-08
3.639999999999999902e-01 -1.662647264311090112e-08
3.649999999999999911e-01 -1.669604898779653013e-08
3.659999999999999920e-01 -1.390026227454654872e-08
3.669999999999999929e-01 -1.479293132433667779e-08
3.679999999999999938e-01 -1.536432137072551996e-08
3.689999999999999947e-01 -1.209286892844829708e-08
3.699999999999999956e-01 -1.213629730045795441e-08
3.709999999999999964e-01 -1.693138074188027531e-08
3.719999999999999973e-01 -1.795842763385735452e-08
3.729999999999999982e-01 -1.545663508295547217e-08
3.739999999999999991e-01 -1.209900801768526435e-08
3.750000000000000000e-01 -1.023045115289278328e-08
3.760000000000000009e-01 -1.295165930059738457e-08
3.770000000000000018e-01 -1.939861249411478639e-08
3.780000000000000027e-01 -1.914554559334646910e-08
3.790000000000000036e-01 -1.195735421788413078e-08
3.800000000000000044e-01 -8.873939805198460817e-09
3.810000000000000053e-01 -1.265186710952548310e-08
3.820000000000000062e-01 -1.727460130496183410e-08
3.830000000000000071e-01 -1.798287030396750197e-08
3.840000000000000080e-01 -1.578234787302790210e-08
3.850000000000000089e-01 -1.147861894423840567e-08
3.860000000000000098e-01 -1.127432369685266167e-08
3.870000000000000107e-01 -1.622481704544043168e-08
3.880000000000000115e-01 -1.755188350216485560e-08
3.890000000000000124e-01 -1.502985469414852560e-08
3.900000000000000133e-01 -1.496164259151555598e-08
3.910000000000000142e-01 -1.533760496386094019e-08
3.920000000000000151e-01 -1.359308043902274221e-08
3.930000000000000160e-01 -1.295586571359308437e-08
3.940000000000000169e-01 -1.553837591927731410e-08
3.950000000000000178e-01 -1.747469013935187832e-08
3.960000000000000187e-01 -1.709258867776952684e-08
3.970000000000000195e-01 -1.527450876892544329e-08
3.980000000000000204e-01 -1.114233327825786546e-08
3.990000000000000213e-01 -1.169553343061124906e-08
4.000000000000000222e-01 -1.855539721873356029e-08
4.010000000000000231e-01 -2.113461050612386316e-08
4.020000000000000240e-01 -1.531134330434724689e-08
4.030000000000000249e-01 -1.083913048205431551e-08
4.040000000000000258e-01 -1.202579369419254363e-08
4.050000000000000266e-01 -1.595230969542171806e-08
4.060000000000000275e-01 -1.997409526666160673e-08
4.070000000000000284e-01 -1.886598965938901529e-08
4.080000000000000293e-01 -1.268404048460070044e-08
4.090000000000000302e-01 -1.092371348931919783e-08
4.100000000000000311e-01 -1.578530373080866411e-08
4.110000000000000320e-01 -1.899911694636102766e-08
4.120000000000000329e-01 -1.688437123448238708e-08
4.130000000000000338e-01 -1.565467755426652730e-08
4.140000000000000346e-01 -1.541963001727708615e-08
4.150000000000000355e-01 -1.465815557821770199e-08
4.160000000000000364e-01 -1.496880486229201779e-08
4.170000000000000373e-01 -1.646043301661848091e-08
4.180000000000000382e-01 -1.706763441688963212e-08
4.190000000000000391e-01 -1.755449829943245277e-08
4.200000000000000400e-01 -1.692973228273331188e-08
4.210000000000000409e-01 -1.350116463072481565e-08
4.220000000000000417e-01 -1.188868736790027469e-08
4.230000000000000426e-01 -1.702989038676605560e-08
4.240000000000000435e-01 -2.047374891844810918e-08
4.250000000000000444e-01 -1.756211531755980104e-08
4.260000000000000453e-01 -1.281881623071967624e-08
4.270000000000000462e-01 -1.142262817666050978e-08
4.280000000000000471e-01 -1.408795924362493679e-08
4.290000000000000480e-01 -1.939622507052263245e-08
4.300000000000000488e-01 -2.054378001048462465e-08
4.310000000000000497e-01 -1.409404148944304325e-08
4.320000000000000506e-01 -9.753364338394021615e-09
4.330000000000000515e-01 -1.374888825012021698e-08
4.340000000000000524e-01 -1.841101493482710794e-08
4.350000000000000533e-01 -1.852703235272201709e-08
4.360000000000000542e-01 -1.597612708792439662e-08
4.370000000000000551e-01 -1.376236014039022848e-08
4.380000000000000560e-01 -1.308512764808256179e-08
4.390000000000000568e-01 -1.517474856882472523e-08
4.400000000000000577e-01 -1.727573817333905026e-08
4.410000000000000586e-01 -1.677113914411165752e-08
4.420000000000000595e-01 -1.565285856486298144e-08
4.430000000000000604e-01 -1.613329914107453078e-08
4.440000000000000613e-01 -1.433232910130755045e-08
4.450000000000000622e-01 -1.307262209593318403e-08
4.460000000000000631e-01 -1.573783947605988942e-08
4.470000000000000639e-01 -1.914139602376963012e-08
4.480000000000000648e-01 -1.827794449127395637e-08
4.490000000000000657e-01 -1.458869292036979459e-08
4.500000000000000666e-01 -1.235204649674415123e-08
4.510000000000000675e-01 -1.380027470077038743e-08
4.520000000000000684e-01 -1.846873942668025848e-08
4.530000000000000693e-01 -2.153777245439414401e-08
4.540000000000000702e-01 -1.709375396785617340e-08
4.550000000000000711e-01 -1.109373215513187461e-08
4.560000000000000719e-01 -1.268691107725317124e-08
4.569999999999999618e-01 -1.819864792196312919e-08
4.579999999999999627e-01 -2.035659463217598386e-08
4.589999999999999636e-01 -1.807248395380156580e-08
4.599999999999999645e-01 -1.428506379852478858e-08
4.609999999999999654e-01 -1.229955159942619503e-08
4.619999999999999662e-01 -1.493950207986927126e-08
4.629999999999999671e-01 -1.941444338626752142e-08
4.639999999999999680e-01 -1.867451260295638349e-08
4.649999999999999689e-01 -1.465889454266289249e-08
4.659999999999999698e-01 -1.510733227405580692e-08
4.669999999999999707e-01 -1.545816985526471399e-08
4.679999999999999716e-01 -1.478031208534957841e-08
4.689999999999999725e-01 -1.598081666998041328e-08