 -0.20000000000000001          0.0000000000000000
 -0.19890000000000002          0.0000000000000000
 -0.19780000000000000          0.0000000000000000
 -0.19670000000000001          0.0000000000000000
 -0.19560000000000002          0.0000000000000000
 -0.19450000000000001          0.0000000000000000
 -0.19340000000000002          0.0000000000000000
 -0.19230000000000000          0.0000000000000000
 -0.19120000000000001          0.0000000000000000
 -0.19010000000000002          0.0000000000000000
 -0.18900000000000000          2.0237587596186007E-029
 -0.18790000000000001          3.1295203630913520E-028
 -0.18680000000000002          1.1844651158361245E-027
 -0.18570000000000000         -2.7389660852351684E-027
 -0.18460000000000001         -3.2955314509556993E-026
 -0.18350000000000000         -7.2258925524121859E-026
 -0.18240000000000001          1.7914338439086781E-025
 -0.18130000000000002          1.3311117627335175E-024
 -0.18020000000000000          2.3249081801163409E-024
 -0.17910000000000001         -4.1801333104295227E-024
 -0.17800000000000002         -2.8758063139351304E-023
 -0.17690000000000000         -5.0526320098352344E-023
 -0.17580000000000001          4.0425211797930580E-023
 -0.17470000000000002          3.8554573311605511E-022
 -0.17360000000000000          7.5845116298363220E-022
 -0.17250000000000001         -3.0297968141288390E-024
 -0.17140000000000000         -3.4500431074718844E-021
 -0.17030000000000001         -8.1029821167998984E-021
 -0.16920000000000002         -4.6931222964189750E-021
 -0.16810000000000000          2.0676489319123911E-020
 -0.16700000000000001          6.3478460592778759E-020
 -0.16589999999999999          6.6497081754880573E-020
 -0.16480000000000000         -7.1154832386590102E-020
 -0.16370000000000001         -3.6888949182354236E-019
 -0.16260000000000002         -5.5431611404711106E-019
 -0.16150000000000000         -3.5206202737540541E-020
 -0.16040000000000001          1.5534507738437207E-018
 -0.15930000000000000          3.2585959254768566E-018
 -0.15820000000000001          2.2740524731917410E-018
 -0.15710000000000002         -4.1857431762132960E-018
 -0.15600000000000000         -1.4137403406147900E-017
 -0.15490000000000001         -1.6951180682477681E-017
 -0.15379999999999999          2.0814606315564790E-018
 -0.15270000000000000          4.4540095948289411E-017
 -0.15160000000000001          7.9234419884037743E-017
 -0.15050000000000002          4.6768987048372747E-017
 -0.14940000000000001         -8.9362300190128807E-017
 -0.14830000000000002         -2.6513346211943318E-016
 -0.14720000000000000         -2.9182021450452518E-016
 -0.14610000000000001          2.4385181887667299E-017
 -0.14500000000000002          6.3351134666321941E-016
 -0.14390000000000000          1.0665586879524342E-015
 -0.14280000000000001          6.3186227939403370E-016
 -0.14169999999999999         -9.2967784603878402E-016
 -0.14060000000000000         -2.7534284022993991E-015
 -0.13950000000000001         -2.9511885726266496E-015
 -0.13840000000000002         -2.3973647952393592E-017
 -0.13730000000000001          5.0896011750012782E-015
 -0.13619999999999999          8.2939382494090844E-015
 -0.13510000000000000          4.7674491341720502E-015
 -0.13400000000000001         -6.0747326799100252E-015
 -0.13290000000000002         -1.7115710162097370E-014
 -0.13180000000000000         -1.6562145331946478E-014
 -0.13070000000000001          1.8109706290315606E-015
 -0.12959999999999999          2.8334935987155488E-014
 -0.12850000000000000          3.8732882054687626E-014
 -0.12740000000000001          1.2590953331489095E-014
 -0.12630000000000002         -4.1616185595273053E-014
 -0.12520000000000001         -7.9277411729489905E-014
 -0.12410000000000000         -4.8611508834126363E-014
 -0.12300000000000001          5.5754022682289947E-014
 -0.12190000000000001          1.6015423850383043E-013
 -0.12080000000000000          1.4790057199787210E-013
 -0.11970000000000000         -3.7630566929658035E-014
 -0.11860000000000001         -2.9815180272591002E-013
 -0.11750000000000001         -3.9984392207793873E-013
 -0.11640000000000000         -1.4570105105055076E-013
 -0.11530000000000000          4.0201923821175933E-013
 -0.11420000000000001          8.5409251286000520E-013
 -0.11310000000000001          7.2349624121587075E-013
 -0.11200000000000000         -1.4324667483005954E-013
 -0.11090000000000001         -1.2714423697907096E-012
 -0.10980000000000001         -1.7459408484937766E-012
 -0.10870000000000000         -8.9255686175349069E-013
 -0.10760000000000000          1.0111711815086188E-012
 -0.10650000000000001          2.6600620577771350E-012
 -0.10540000000000001          2.5711201830785901E-012
 -0.10430000000000000          3.6672626198795688E-013
 -0.10320000000000000         -2.5723271169370010E-012
 -0.10210000000000001         -3.8838919060035781E-012
 -0.10100000000000001         -2.1216882417629535E-012
  -9.9900000000000003E-002     1.6878106984946628E-012
  -9.8799999999999999E-002     4.3889436356081557E-012
  -9.7700000000000009E-002     3.1440611832772580E-012
  -9.6600000000000005E-002    -1.7516429929795296E-012
  -9.5500000000000002E-002    -6.2636298057971995E-012
  -9.4400000000000012E-002    -5.4309399859231444E-012
  -9.3300000000000008E-002     2.0787857112763986E-012
  -9.2200000000000004E-002     1.1460405541230401E-011
  -9.1100000000000000E-002     1.4252321545171753E-011
  -9.0000000000000011E-002     4.9644502918277933E-012
  -8.8900000000000007E-002    -1.2989303209420822E-011
  -8.7800000000000003E-002    -2.7528068366478031E-011
  -8.6699999999999999E-002    -2.5690262417388254E-011
  -8.5600000000000009E-002    -4.1081318034874581E-012
  -8.4500000000000006E-002     2.6049660692417653E-011
  -8.3400000000000002E-002     4.4870353960169140E-011
  -8.2299999999999998E-002     3.7439412681194995E-011
  -8.1200000000000008E-002     5.7372800087163167E-012
  -8.0100000000000005E-002    -3.1048899562513554E-011
  -7.9000000000000001E-002    -4.9407280350299843E-011
  -7.7899999999999997E-002    -3.8668072216418992E-011
  -7.6800000000000007E-002    -9.1137401445062771E-012
  -7.5700000000000003E-002     1.6211568545920763E-011
  -7.4600000000000000E-002     2.0453803581399477E-011
  -7.3500000000000010E-002     7.5562655091343522E-012
  -7.2399999999999992E-002    -5.4459420913838263E-013
  -7.1300000000000002E-002     1.6142233383309446E-011
  -7.0200000000000012E-002     5.3770383978690717E-011
  -6.9099999999999995E-002     8.0205543595557316E-011
  -6.8000000000000005E-002     5.5918429608947662E-011
  -6.6900000000000015E-002    -3.1919546866765458E-011
  -6.5799999999999997E-002    -1.4783027579845509E-010
  -6.4700000000000008E-002    -2.1974058683760234E-010
  -6.3599999999999990E-002    -1.8253351607988577E-010
  -6.2500000000000000E-002    -2.6948974302110074E-011
  -6.1400000000000010E-002     1.8149515224052948E-010
  -6.0299999999999992E-002     3.3242938957123158E-010
  -5.9200000000000003E-002     3.3534391929990193E-010
  -5.8100000000000013E-002     1.7806910113105090E-010
  -5.6999999999999995E-002    -6.2056075555982915E-011
  -5.5900000000000005E-002    -2.6524715757147987E-010
  -5.4800000000000015E-002    -3.4423242034620216E-010
  -5.3699999999999998E-002    -2.9443725235722695E-010
  -5.2600000000000008E-002    -1.8252567512977436E-010
  -5.1499999999999990E-002    -8.2223769459766061E-011
  -5.0400000000000000E-002    -9.1835020490926844E-012
  -4.9300000000000010E-002     8.8464270631138930E-011
  -4.8199999999999993E-002     2.6921709306293451E-010
  -4.7100000000000003E-002     5.1276810575373588E-010
  -4.6000000000000013E-002     6.8655092722025302E-010
  -4.4899999999999995E-002     6.1078769819644663E-010
  -4.3800000000000006E-002     1.9276473472995548E-010
  -4.2699999999999988E-002    -4.6478337845101692E-010
  -4.1599999999999998E-002    -1.0755885071489502E-009
  -4.0500000000000008E-002    -1.3186821634647572E-009
  -3.9399999999999991E-002    -1.0370364567080514E-009
  -3.8300000000000001E-002    -3.4865935139016813E-010
  -3.7200000000000011E-002     4.1738185130313354E-010
  -3.6099999999999993E-002     9.2559471198683241E-010
  -3.5000000000000003E-002     1.0390219795652911E-009
  -3.3900000000000013E-002     8.7785712032939500E-010
  -3.2799999999999996E-002     6.9018868398273980E-010
  -3.1700000000000006E-002     6.3509802972205875E-010
  -3.0599999999999988E-002     6.4824079437642013E-010
  -2.9499999999999998E-002     4.9974824278820051E-010
  -2.8400000000000009E-002     4.4871203107310631E-012
  -2.7299999999999991E-002    -7.8141437764855937E-010
  -2.6200000000000001E-002    -1.5456218527276633E-009
  -2.5100000000000011E-002    -1.9224222214120346E-009
  -2.3999999999999994E-002    -1.7785591888141994E-009
  -2.2900000000000004E-002    -1.3668458587190457E-009
  -2.1800000000000014E-002    -1.2104625080056053E-009
  -2.0699999999999996E-002    -1.7696192289307078E-009
  -1.9600000000000006E-002    -3.1081532902987874E-009
  -1.8499999999999989E-002    -4.7965782457026762E-009
  -1.7399999999999999E-002    -6.1371001613963472E-009
  -1.6300000000000009E-002    -6.5747491895251642E-009
  -1.5199999999999991E-002    -6.0229234932762665E-009
  -1.4100000000000001E-002    -4.8835038235495176E-009
  -1.3000000000000012E-002    -3.7528735674641212E-009
  -1.1899999999999994E-002    -3.0296738451340843E-009
  -1.0800000000000004E-002    -2.7134219315883001E-009
  -9.6999999999999864E-003    -2.5425983540827701E-009
  -8.5999999999999965E-003    -2.3597575005140925E-009
  -7.5000000000000067E-003    -2.4017510202867243E-009
  -6.3999999999999890E-003    -3.2484503975638290E-009
  -5.2999999999999992E-003    -5.4157958118139504E-009
  -4.2000000000000093E-003    -8.8706491041534719E-009
  -3.0999999999999917E-003    -1.2849228347988628E-008
  -2.0000000000000018E-003    -1.6175784267602467E-008
  -9.0000000000001190E-004    -1.7919337125249513E-008
   2.0000000000000573E-004    -1.7956153897102922E-008
   1.2999999999999956E-003    -1.7040370892118517E-008
   2.4000000000000132E-003    -1.6320212736786743E-008
   3.5000000000000031E-003    -1.6634823296612922E-008
   4.5999999999999930E-003    -1.8087126463228742E-008
   5.7000000000000106E-003    -2.0181129656293706E-008
   6.8000000000000005E-003    -2.2386531739471138E-008
   7.8999999999999904E-003    -2.4671468423775877E-008
   9.0000000000000080E-003    -2.7575245198363518E-008
   1.0099999999999998E-002    -3.1756179907915794E-008
   1.1199999999999988E-002    -3.7367936300825022E-008
   1.2300000000000005E-002    -4.3768348945150137E-008
   1.3399999999999995E-002    -4.9827036718852469E-008
   1.4500000000000013E-002    -5.4649063940814813E-008
   1.5600000000000003E-002    -5.8208101449963578E-008
   1.6699999999999993E-002    -6.1427442688000156E-008
   1.7800000000000010E-002    -6.5630480605705088E-008
   1.8900000000000000E-002    -7.1726951489381463E-008
   1.9999999999999990E-002    -7.9689513654557231E-008
   2.1100000000000008E-002    -8.8674354969953129E-008
   2.2199999999999998E-002    -9.7693707346024894E-008
   2.3300000000000015E-002    -1.0636713909661921E-007
   2.4400000000000005E-002    -1.1522610066094785E-007
   2.5499999999999995E-002    -1.2535879534425476E-007
   2.6600000000000013E-002    -1.3764511663794110E-007
   2.7700000000000002E-002    -1.5212643234008283E-007
   2.8799999999999992E-002    -1.6797213220343110E-007
   2.9900000000000010E-002    -1.8408866253594169E-007
   3.1000000000000000E-002    -1.9995354705315549E-007
   3.2099999999999990E-002    -2.1607688438507466E-007
   3.3200000000000007E-002    -2.3373937096948794E-007
   3.4299999999999997E-002    -2.5417364213353721E-007
   3.5400000000000015E-002    -2.7776923161582090E-007
   3.6500000000000005E-002    -3.0388062555175566E-007
   3.7599999999999995E-002    -3.3138599064841401E-007
   3.8700000000000012E-002    -3.5958527178081567E-007
   3.9800000000000002E-002    -3.8877280417182192E-007
   4.0899999999999992E-002    -4.2006692524410028E-007
   4.2000000000000010E-002    -4.5464034315045865E-007
   4.3099999999999999E-002    -4.9295027793050394E-007
   4.4200000000000017E-002    -5.3455653414857807E-007
   4.5300000000000007E-002    -5.7864781410899013E-007
   4.6399999999999997E-002    -6.2485452190230717E-007
   4.7500000000000014E-002    -6.7371360046308837E-007
   4.8600000000000004E-002    -7.2643445037101628E-007
   4.9699999999999994E-002    -7.8415399684672593E-007
   5.0800000000000012E-002    -8.4724302951144637E-007
   5.1900000000000002E-002    -9.1516443490036181E-007
   5.2999999999999992E-002    -9.8696352779370500E-007
   5.4099999999999981E-002    -1.0620258308335906E-006
   5.5200000000000027E-002    -1.1405811619624728E-006
   5.6300000000000017E-002    -1.2236451993885566E-006
   5.7400000000000007E-002    -1.3124889619575697E-006
   5.8499999999999996E-002    -1.4080156915952102E-006
   5.9599999999999986E-002    -1.5104426438483642E-006
   6.0700000000000032E-002    -1.6194671843550168E-006
   6.1800000000000022E-002    -1.7347772427456221E-006
   6.2900000000000011E-002    -1.8565516484159161E-006
   6.4000000000000001E-002    -1.9856133803841658E-006
   6.5099999999999991E-002    -2.1231157916190568E-006
   6.6199999999999981E-002    -2.2699452983943047E-006
   6.7300000000000026E-002    -2.4262392344098771E-006
   6.8400000000000016E-002    -2.5913846002367791E-006
   6.9500000000000006E-002    -2.7645457976177568E-006
   7.0599999999999996E-002    -2.9453990464389790E-006
   7.1699999999999986E-002    -3.1345878142019501E-006
   7.2800000000000031E-002    -3.3335672924295068E-006
   7.3900000000000021E-002    -3.5439297789707780E-006
   7.5000000000000011E-002    -3.7666879961761879E-006
   7.6100000000000001E-002    -4.0020208871283103E-006
   7.7199999999999991E-002    -4.2496135392866563E-006
   7.8299999999999981E-002    -4.5092597247275990E-006
   7.9400000000000026E-002    -4.7812609409447759E-006
   8.0500000000000016E-002    -5.0663456931943074E-006
   8.1600000000000006E-002    -5.3652156566386111E-006
   8.2699999999999996E-002    -5.6781564126140438E-006
   8.3799999999999986E-002    -6.0050483625673223E-006
   8.4900000000000031E-002    -6.3457437136094086E-006
   8.6000000000000021E-002    -6.7005012169829570E-006
   8.7100000000000011E-002    -7.0701617005397566E-006
   8.8200000000000001E-002    -7.4559711720212363E-006
   8.9299999999999990E-002    -7.8591829151264392E-006
   9.0399999999999980E-002    -8.2806718637584709E-006
   9.1500000000000026E-002    -8.7207108663278632E-006
   9.2600000000000016E-002    -9.1789625003002584E-006
   9.3700000000000006E-002    -9.6546928034513257E-006
   9.4799999999999995E-002    -1.0147130524273962E-005
   9.5899999999999985E-002    -1.0655909136403352E-005
   9.7000000000000031E-002    -1.1181394256709609E-005
   9.8100000000000021E-002    -1.1724627256626263E-005
   9.9200000000000010E-002    -1.2286885066714603E-005
  0.10030000000000000         -1.2869056263298262E-005
  0.10139999999999999         -1.3471278180077206E-005
  0.10249999999999998         -1.4093118807068095E-005
  0.10360000000000003         -1.4734101569047198E-005
  0.10470000000000002         -1.5394152796943672E-005
  0.10580000000000001         -1.6073627193691209E-005
  0.10690000000000000         -1.6772941307863221E-005
  0.10799999999999998         -1.7492169718025252E-005
  0.10910000000000003         -1.8230948626296595E-005
  0.11020000000000002         -1.8988746887771413E-005
  0.11130000000000001         -1.9765315300901420E-005
  0.11240000000000000         -2.0560828488669358E-005
  0.11349999999999999         -2.1375542928581126E-005
  0.11460000000000004         -2.2209425878827460E-005
  0.11570000000000003         -2.3062029868015088E-005
  0.11680000000000001         -2.3932561816764064E-005
  0.11790000000000000         -2.4820166800054722E-005
  0.11899999999999999         -2.5724122679093853E-005
  0.12009999999999998         -2.6643810997484252E-005
  0.12120000000000003         -2.7578804292716086E-005
  0.12230000000000002         -2.8528862458188087E-005
  0.12340000000000001         -2.9493858164642006E-005
  0.12450000000000000         -3.0473644073936157E-005
  0.12559999999999999         -3.1467676308238879E-005
  0.12670000000000003         -3.2474719773745164E-005
  0.12780000000000002         -3.3493128285044804E-005
  0.12890000000000001         -3.4521592169767246E-005
  0.13000000000000000         -3.5559562093112618E-005
  0.13109999999999999         -3.6607008951250464E-005
  0.13219999999999998         -3.7663812690880150E-005
  0.13330000000000003         -3.8728918298147619E-005
  0.13440000000000002         -3.9800244849175215E-005
  0.13550000000000001         -4.0875558624975383E-005
  0.13660000000000000         -4.1953429899876937E-005
  0.13769999999999999         -4.3033447582274675E-005
  0.13880000000000003         -4.4115742639405653E-005
  0.13990000000000002         -4.5200227759778500E-005
  0.14100000000000001         -4.6285756980068982E-005
  0.14210000000000000         -4.7370205720653757E-005
  0.14319999999999999         -4.8451387556269765E-005
  0.14429999999999998         -4.9527916416991502E-005
  0.14540000000000003         -5.0599130190676078E-005
  0.14650000000000002         -5.1664450438693166E-005
  0.14760000000000001         -5.2722814871231094E-005
  0.14870000000000000         -5.3772590035805479E-005
  0.14979999999999999         -5.4811705922475085E-005
  0.15090000000000003         -5.5838427215348929E-005
  0.15200000000000002         -5.6851960835047066E-005
  0.15310000000000001         -5.7851797464536503E-005
  0.15420000000000000         -5.8837340475292876E-005
  0.15529999999999999         -5.9807851357618347E-005
  0.15639999999999998         -6.0762104112654924E-005
  0.15750000000000003         -6.1698410718236119E-005
  0.15860000000000002         -6.2615014030598104E-005
  0.15970000000000001         -6.3510444306302816E-005
  0.16080000000000000         -6.4383508288301528E-005
  0.16189999999999999         -6.5233558416366577E-005
  0.16300000000000003         -6.6060871176887304E-005
  0.16410000000000002         -6.6865497501567006E-005
  0.16520000000000001         -6.7646651586983353E-005
  0.16630000000000000         -6.8403067416511476E-005
  0.16739999999999999         -6.9133056967984885E-005
  0.16850000000000004         -6.9835004978813231E-005
  0.16960000000000003         -7.0507761847693473E-005
  0.17070000000000002         -7.1150803705677390E-005
  0.17180000000000001         -7.1764123276807368E-005
  0.17290000000000000         -7.2347684181295335E-005
  0.17399999999999999         -7.2901370003819466E-005
  0.17510000000000003         -7.3424984293524176E-005
  0.17620000000000002         -7.3918046837206930E-005
  0.17730000000000001         -7.4379917350597680E-005
  0.17840000000000000         -7.4810464866459370E-005
  0.17949999999999999         -7.5209645729046315E-005
  0.18060000000000004         -7.5576856033876538E-005
  0.18170000000000003         -7.5911593739874661E-005
  0.18280000000000002         -7.6213982538320124E-005
  0.18390000000000001         -7.6484386227093637E-005
  0.18500000000000000         -7.6722848461940885E-005
  0.18609999999999999         -7.6929289207328111E-005
  0.18720000000000003         -7.7104028605390340E-005
  0.18830000000000002         -7.7247234003152698E-005
  0.18940000000000001         -7.7358490671031177E-005
  0.19050000000000000         -7.7437332947738469E-005
  0.19159999999999999         -7.7483797213062644E-005
  0.19270000000000004         -7.7498640166595578E-005
  0.19380000000000003         -7.7482778578996658E-005
  0.19490000000000002         -7.7436852734535933E-005
  0.19600000000000001         -7.7360848081298172E-005
  0.19710000000000000         -7.7253927884157747E-005
  0.19819999999999999         -7.7115764725022018E-005
  0.19930000000000003         -7.6947668276261538E-005
  0.20040000000000002         -7.6751413871534169E-005
  0.20150000000000001         -7.6527780038304627E-005
  0.20260000000000000         -7.6276061008684337E-005
  0.20369999999999999         -7.5995565566699952E-005
  0.20480000000000004         -7.5686490163207054E-005
  0.20590000000000003         -7.5349715189076960E-005
  0.20700000000000002         -7.4986644904129207E-005
  0.20810000000000001         -7.4597977800294757E-005
  0.20920000000000000         -7.4182840762659907E-005
  0.21029999999999999         -7.3739589424803853E-005
  0.21140000000000003         -7.3267299740109593E-005
  0.21250000000000002         -7.2766444645822048E-005
  0.21360000000000001         -7.2239083237946033E-005
  0.21470000000000000         -7.1687645686324686E-005
  0.21579999999999999         -7.1113179728854448E-005
  0.21690000000000004         -7.0515008701477200E-005
  0.21800000000000003         -6.9891189923509955E-005
  0.21910000000000002         -6.9240537413861603E-005
  0.22020000000000001         -6.8563524109777063E-005
  0.22130000000000000         -6.7861408751923591E-005
  0.22239999999999999         -6.7134569690097123E-005
  0.22350000000000003         -6.6382126533426344E-005
  0.22460000000000002         -6.5603548137005419E-005
  0.22570000000000001         -6.4799067331478000E-005
  0.22680000000000000         -6.3969397160690278E-005
  0.22789999999999999         -6.3115199736785144E-005
  0.22900000000000004         -6.2235943914856762E-005
  0.23010000000000003         -6.1330189055297524E-005
  0.23120000000000002         -6.0397025663405657E-005
  0.23230000000000001         -5.9437148593133315E-005
  0.23340000000000000         -5.8451816585147753E-005
  0.23450000000000004         -5.7441717217443511E-005
  0.23560000000000003         -5.6405951909255236E-005
  0.23670000000000002         -5.5343174608424306E-005
  0.23780000000000001         -5.4253010603133589E-005
  0.23890000000000000         -5.3136158385314047E-005
  0.23999999999999999         -5.1994094974361360E-005
  0.24110000000000004         -5.0827002269215882E-005
  0.24220000000000003         -4.9633545131655410E-005
  0.24330000000000002         -4.8411719035357237E-005
  0.24440000000000001         -4.7161676775431260E-005
  0.24550000000000000         -4.5885575673310086E-005
  0.24660000000000004         -4.4585725845536217E-005
  0.24770000000000003         -4.3263175030006096E-005
  0.24880000000000002         -4.1916777263395488E-005
  0.24990000000000001         -4.0543509385315701E-005
  0.25100000000000000         -3.9140930311987177E-005
  0.25209999999999999         -3.7710866308771074E-005
  0.25320000000000004         -3.6257581086829305E-005
  0.25430000000000003         -3.4784512536134571E-005
  0.25540000000000002         -3.3292180887656286E-005
  0.25650000000000001         -3.1778432457940653E-005
  0.25760000000000000         -3.0241595595725812E-005
  0.25870000000000004         -2.8682658012257889E-005
  0.25980000000000003         -2.7105337721877731E-005
  0.26090000000000002         -2.5513547370792367E-005
  0.26200000000000001         -2.3907414288260043E-005
  0.26310000000000000         -2.2284002625383437E-005
  0.26419999999999999         -2.0641404262278229E-005
  0.26530000000000004         -1.8981681932928041E-005
  0.26640000000000003         -1.7311291230726056E-005
  0.26750000000000002         -1.5635616364306770E-005
  0.26860000000000001         -1.3954850146546960E-005
  0.26970000000000000         -1.2265223631402478E-005
  0.27080000000000004         -1.0564756848907564E-005
  0.27190000000000003         -8.8563992903800681E-006
  0.27300000000000002         -7.1470799412054475E-006
  0.27410000000000001         -5.4436122809420340E-006
  0.27520000000000000         -3.7465486002474790E-006
  0.27629999999999999         -2.0512277387751965E-006
  0.27740000000000004         -3.5442297985355253E-007
  0.27850000000000003          1.3412202406470897E-006
  0.27960000000000002          3.0274325126811163E-006
  0.28070000000000001          4.6955724428698886E-006
  0.28179999999999999          6.3434099502046593E-006
  0.28290000000000004          7.9751116572879255E-006
  0.28400000000000003          9.5950745162554085E-006
  0.28510000000000002          1.1202136192878243E-005
  0.28620000000000001          1.2788745152647607E-005
  0.28730000000000000          1.4346035641210619E-005
  0.28840000000000005          1.5870702554821037E-005
  0.28950000000000004          1.7366337488056161E-005
  0.29060000000000002          1.8837819879991002E-005
  0.29170000000000001          2.0284476704546250E-005
  0.29280000000000000          2.1699133867514320E-005
  0.29389999999999999          2.3074058844940737E-005
  0.29500000000000004          2.4406292141065933E-005
  0.29610000000000003          2.5698525860207155E-005
  0.29720000000000002          2.6955087378155440E-005
  0.29830000000000001          2.8175034458399750E-005
  0.29940000000000000          2.9351240300456993E-005
  0.30050000000000004          3.0476427127723582E-005
  0.30160000000000003          3.1549530831398442E-005
  0.30270000000000002          3.2575688237557188E-005
  0.30380000000000001          3.3559957955731079E-005
  0.30490000000000000          3.4500539186410606E-005
  0.30599999999999999          3.5389366530580446E-005
  0.30709999999999998          3.6219618777977303E-005
  0.30819999999999997          3.6990062653785571E-005
  0.30930000000000007          3.7707017327193171E-005
  0.31040000000000006          3.8378620956791565E-005
  0.31150000000000005          3.9005455619189888E-005
  0.31260000000000004          3.9579510485054925E-005
  0.31370000000000003          4.0092145354719833E-005
  0.31480000000000002          4.0541759517509490E-005
  0.31590000000000001          4.0935636206995696E-005
  0.31700000000000000          4.1283277823822573E-005
  0.31809999999999999          4.1586714360164478E-005
  0.31919999999999998          4.1838891775114462E-005
  0.32029999999999997          4.2030260374303907E-005
  0.32140000000000007          4.2158881115028635E-005
  0.32250000000000006          4.2232946725562215E-005
  0.32360000000000005          4.2264025978511199E-005
  0.32470000000000004          4.2256317101418972E-005
  0.32580000000000003          4.2203893826808780E-005
  0.32690000000000002          4.2097726691281423E-005
  0.32800000000000001          4.1934781620511785E-005
  0.32910000000000000          4.1722705645952374E-005
  0.33019999999999999          4.1473642340861261E-005
  0.33129999999999998          4.1193208744516596E-005
  0.33239999999999997          4.0877017454477027E-005
  0.33350000000000007          4.0516722947359085E-005
  0.33460000000000006          4.0109338442562148E-005
  0.33570000000000005          3.9661368646193296E-005
  0.33680000000000004          3.9184349589049816E-005
  0.33790000000000003          3.8685211620759219E-005
  0.33900000000000002          3.8161411794135347E-005
  0.34010000000000001          3.7605481338687241E-005
  0.34120000000000000          3.7014167901361361E-005
  0.34229999999999999          3.6393106711329892E-005
  0.34339999999999998          3.5752498661167920E-005
  0.34449999999999997          3.5099237720714882E-005
  0.34560000000000007          3.4432003303663805E-005
  0.34670000000000006          3.3744796382961795E-005
  0.34780000000000005          3.3035004889825359E-005
  0.34890000000000004          3.2307423680322245E-005
