 -0.20000000000000001          0.0000000000000000
 -0.19890000000000002          0.0000000000000000
 -0.19780000000000000          0.0000000000000000
 -0.19670000000000001          0.0000000000000000
 -0.19560000000000002          0.0000000000000000
 -0.19450000000000001          0.0000000000000000
 -0.19340000000000002          2.5091724797253542E-024
 -0.19230000000000000          3.0694233878794893E-023
 -0.19120000000000001          1.6077336133734863E-022
 -0.19010000000000002          4.7685917230754809E-022
 -0.18900000000000000          8.2049697906721179E-022
 -0.18790000000000001          5.4092300818265338E-022
 -0.18680000000000002         -1.0093091832794036E-021
 -0.18570000000000000         -2.9212069124830570E-021
 -0.18460000000000001         -1.9751913843997733E-021
 -0.18350000000000000          4.0037843859232336E-021
 -0.18240000000000001          9.5239507777824224E-021
 -0.18130000000000002          1.5799967590749362E-021
 -0.18020000000000000         -2.2317056661280791E-020
 -0.17910000000000001         -2.9625845223627481E-020
 -0.17800000000000002          3.3306201182248914E-020
 -0.17690000000000000          1.5420397914441575E-019
 -0.17580000000000001          1.5948059012128566E-019
 -0.17470000000000002         -2.0353502754903230E-019
 -0.17360000000000000         -8.8369276482203797E-019
 -0.17250000000000001         -1.1097100444323787E-018
 -0.17140000000000000          3.3823965839388532E-019
 -0.17030000000000001          3.6525772949473415E-018
 -0.16920000000000002          6.1653199717216185E-018
 -0.16810000000000000          2.6970095659296522E-018
 -0.16700000000000001         -9.6972004483592038E-018
 -0.16589999999999999         -2.4517644936600316E-017
 -0.16480000000000000         -2.3951855051975270E-017
 -0.16370000000000001          9.1176926004555786E-018
 -0.16260000000000002          6.7344644873208731E-017
 -0.16150000000000000          1.0359811161939091E-016
 -0.16040000000000001          5.2046276933730406E-017
 -0.15930000000000000         -1.0835663022050227E-016
 -0.15820000000000001         -2.9004221293889960E-016
 -0.15710000000000002         -3.0895119116494739E-016
 -0.15600000000000000         -1.6623759434972041E-017
 -0.15490000000000001          5.1134256707087000E-016
 -0.15379999999999999          9.0144814373092951E-016
 -0.15270000000000000          6.7712697894147466E-016
 -0.15160000000000001         -3.2151663376988931E-016
 -0.15050000000000002         -1.6004453545518326E-015
 -0.14940000000000001         -2.1427079064501552E-015
 -0.14830000000000002         -1.1089471812483548E-015
 -0.14720000000000000          1.3133298786737130E-015
 -0.14610000000000001          3.6585102114949312E-015
 -0.14500000000000002          3.9942778834347985E-015
 -0.14390000000000000          1.4197768267925162E-015
 -0.14280000000000001         -2.8890411300118912E-015
 -0.14169999999999999         -6.1402515254130926E-015
 -0.14060000000000000         -5.8425630666499896E-015
 -0.13950000000000001         -1.7981861490004147E-015
 -0.13840000000000002          3.5375528478358330E-015
 -0.13730000000000001          6.8333912916454954E-015
 -0.13619999999999999          6.4189749164871718E-015
 -0.13510000000000000          3.3618858378718164E-015
 -0.13400000000000001          7.1471548210909293E-017
 -0.13290000000000002         -2.2091140189654714E-015
 -0.13180000000000000         -4.3755375773893261E-015
 -0.13070000000000001         -7.6192104383511483E-015
 -0.12959999999999999         -1.0564425311117287E-014
 -0.12850000000000000         -8.9468337862515408E-015
 -0.12740000000000001          4.9990158717318775E-016
 -0.12630000000000002          1.4797387761725928E-014
 -0.12520000000000001          2.3871790639064597E-014
 -0.12410000000000000          1.7371575098540371E-014
 -0.12300000000000001         -4.6556780545841617E-015
 -0.12190000000000001         -2.6835081194925142E-014
 -0.12080000000000000         -2.6966505132955225E-014
 -0.11970000000000000          4.7438503727450718E-015
 -0.11860000000000001          4.9985697818302061E-014
 -0.11750000000000001          6.6638758584609131E-014
 -0.11640000000000000          1.7377941398171934E-014
 -0.11530000000000000         -9.3160417260259448E-014
 -0.11420000000000001         -2.0151102195307274E-013
 -0.11310000000000001         -2.1097319312553264E-013
 -0.11200000000000000         -5.5237200447325052E-014
 -0.11090000000000001          2.3559634603452506E-013
 -0.10980000000000001          5.1587884354956093E-013
 -0.10870000000000000          5.8294932466299021E-013
 -0.10760000000000000          2.9819194531134630E-013
 -0.10650000000000001         -2.9333580378078372E-013
 -0.10540000000000001         -9.2769390259983542E-013
 -0.10430000000000000         -1.2223013400036731E-012
 -0.10320000000000000         -8.8669517691805644E-013
 -0.10210000000000001          6.2641610106516088E-014
 -0.10100000000000001          1.2235180316816363E-012
  -9.9900000000000003E-002     1.9549054215695083E-012
  -9.8799999999999999E-002     1.7148572058894862E-012
  -9.7700000000000009E-002     4.2130903800396968E-013
  -9.6600000000000005E-002    -1.3878222572885623E-012
  -9.5500000000000002E-002    -2.7404190028335051E-012
  -9.4400000000000012E-002    -2.7177695857694140E-012
  -9.3300000000000008E-002    -1.0028630486810797E-012
  -9.2200000000000004E-002     1.8291498957850871E-012
  -9.1100000000000000E-002     4.4856523009895177E-012
  -9.0000000000000011E-002     5.5492537648360596E-012
  -8.8900000000000007E-002     4.1879286497015222E-012
  -8.7800000000000003E-002     5.8849626560775192E-013
  -8.6699999999999999E-002    -4.1435340401851928E-012
  -8.5600000000000009E-002    -8.5760374496368641E-012
  -8.4500000000000006E-002    -1.1706114376452970E-011
  -8.3400000000000002E-002    -1.3451123027918843E-011
  -8.2299999999999998E-002    -1.4598272243815380E-011
  -8.1200000000000008E-002    -1.6254764895196061E-011
  -8.0100000000000005E-002    -1.9137044379724522E-011
  -7.9000000000000001E-002    -2.3132426529848260E-011
  -7.7899999999999997E-002    -2.7397962371056295E-011
  -7.6800000000000007E-002    -3.0928398730978302E-011
  -7.5700000000000003E-002    -3.3230900670089270E-011
  -7.4600000000000000E-002    -3.4674992044347874E-011
  -7.3500000000000010E-002    -3.6292944344262779E-011
  -7.2399999999999992E-002    -3.9163422504984169E-011
  -7.1300000000000002E-002    -4.3789954301542977E-011
  -7.0200000000000012E-002    -4.9895153980683560E-011
  -6.9099999999999995E-002    -5.6772610917965594E-011
  -6.8000000000000005E-002    -6.3947472317416043E-011
  -6.6900000000000015E-002    -7.1659546352353942E-011
  -6.5799999999999997E-002    -8.0777731725767410E-011
  -6.4700000000000008E-002    -9.2141662355604836E-011
  -6.3599999999999990E-002    -1.0575817999125547E-010
  -6.2500000000000000E-002    -1.2045694997020462E-010
  -6.1400000000000010E-002    -1.3437811974270630E-010
  -6.0299999999999992E-002    -1.4613762977511158E-010
  -5.9200000000000003E-002    -1.5601331337933289E-010
  -5.8100000000000013E-002    -1.6635737232206793E-010
  -5.6999999999999995E-002    -1.8080374697415635E-010
  -5.5900000000000005E-002    -2.0253487775789836E-010
  -5.4800000000000015E-002    -2.3250060210422419E-010
  -5.3699999999999998E-002    -2.6864518942737448E-010
  -5.2600000000000008E-002    -3.0673805162528822E-010
  -5.1499999999999990E-002    -3.4253297420683282E-010
  -5.0400000000000000E-002    -3.7417788312232858E-010
  -4.9300000000000010E-002    -4.0355060959562650E-010
  -4.8199999999999993E-002    -4.3569664542886244E-010
  -4.7100000000000003E-002    -4.7655396295809282E-010
  -4.6000000000000013E-002    -5.3010773548578527E-010
  -4.4899999999999995E-002    -5.9647314865074463E-010
  -4.3800000000000006E-002    -6.7193950403776626E-010
  -4.2699999999999988E-002    -7.5097328355866466E-010
  -4.1599999999999998E-002    -8.2915396770744110E-010
  -4.0500000000000008E-002    -9.0555074550024983E-010
  -3.9399999999999991E-002    -9.8338048815094226E-010
  -3.8300000000000001E-002    -1.0686926898983984E-009
  -3.7200000000000011E-002    -1.1678179534513333E-009
  -3.6099999999999993E-002    -1.2848757613426187E-009
  -3.5000000000000003E-002    -1.4205220333352031E-009
  -3.3900000000000013E-002    -1.5724186397392259E-009
  -3.2799999999999996E-002    -1.7370233029723181E-009
  -3.1700000000000006E-002    -1.9116777050243172E-009
  -3.0599999999999988E-002    -2.0959416424659594E-009
  -2.9499999999999998E-002    -2.2916555320051657E-009
  -2.8400000000000009E-002    -2.5019843974405376E-009
  -2.7299999999999991E-002    -2.7302331506717792E-009
  -2.6200000000000001E-002    -2.9791935585166129E-009
  -2.5100000000000011E-002    -3.2512590397715257E-009
  -2.3999999999999994E-002    -3.5489033933799874E-009
  -2.2900000000000004E-002    -3.8748746433725501E-009
  -2.1800000000000014E-002    -4.2317536141922574E-009
  -2.0699999999999996E-002    -4.6211448001542976E-009
  -1.9600000000000006E-002    -5.0432018561252789E-009
  -1.8499999999999989E-002    -5.4970556995215247E-009
  -1.7399999999999999E-002    -5.9821188003184034E-009
  -1.6300000000000009E-002    -6.4995906434717199E-009
  -1.5199999999999991E-002    -7.0533103802006281E-009
  -1.4100000000000001E-002    -7.6494472978083650E-009
  -1.3000000000000012E-002    -8.2951956414945016E-009
  -1.1899999999999994E-002    -8.9971390337950652E-009
  -1.0800000000000004E-002    -9.7600318937907105E-009
  -9.6999999999999864E-003    -1.0586436616222272E-008
  -8.5999999999999965E-003    -1.1477243155866290E-008
  -7.5000000000000067E-003    -1.2432758822455980E-008
  -6.3999999999999890E-003    -1.3453948177755137E-008
  -5.2999999999999992E-003    -1.4543419801782420E-008
  -4.2000000000000093E-003    -1.5705877487448561E-008
  -3.0999999999999917E-003    -1.6947957703905558E-008
  -2.0000000000000018E-003    -1.8277587443549237E-008
  -9.0000000000001190E-004    -1.9703136899806850E-008
   2.0000000000000573E-004    -2.1232636981949327E-008
   1.2999999999999956E-003    -2.2873248184396289E-008
   2.4000000000000132E-003    -2.4631003014974340E-008
   3.5000000000000031E-003    -2.6510818429414940E-008
   4.5999999999999930E-003    -2.8516819128299176E-008
   5.7000000000000106E-003    -3.0653005467229377E-008
   6.8000000000000005E-003    -3.2924180715099283E-008
   7.8999999999999904E-003    -3.5336846337941097E-008
   9.0000000000000080E-003    -3.7899685167985808E-008
   1.0099999999999998E-002    -4.0623390873406606E-008
   1.1199999999999988E-002    -4.3519829517890685E-008
   1.2300000000000005E-002    -4.6600909797689383E-008
   1.3399999999999995E-002    -4.9877542096510297E-008
   1.4500000000000013E-002    -5.3359109131179139E-008
   1.5600000000000003E-002    -5.7053544111340670E-008
   1.6699999999999993E-002    -6.0968062598476536E-008
   1.7800000000000010E-002    -6.5110150160307967E-008
   1.8900000000000000E-002    -6.9488606868617353E-008
   1.9999999999999990E-002    -7.4113991388458089E-008
   2.1100000000000008E-002    -7.8998482422321104E-008
   2.2199999999999998E-002    -8.4155324486800964E-008
   2.3300000000000015E-002    -8.9598273689261987E-008
   2.4400000000000005E-002    -9.5341299299889215E-008
   2.5499999999999995E-002    -1.0139852690826956E-007
   2.6600000000000013E-002    -1.0778395420629749E-007
   2.7700000000000002E-002    -1.1451091097569588E-007
   2.8799999999999992E-002    -1.2159146933754528E-007
   2.9900000000000010E-002    -1.2903659296625847E-007
   3.1000000000000000E-002    -1.3685711053312843E-007
   3.2099999999999990E-002    -1.4506524337321025E-007
   3.3200000000000007E-002    -1.5367531602805684E-007
   3.4299999999999997E-002    -1.6270323044409452E-007
   3.5400000000000015E-002    -1.7216522962826275E-007
   3.6500000000000005E-002    -1.8207713026185957E-007
   3.7599999999999995E-002    -1.9245450744165282E-007
   3.8700000000000012E-002    -2.0331377470483858E-007
   3.9800000000000002E-002    -2.1467222666160524E-007
   4.0899999999999992E-002    -2.2654637632513186E-007
   4.2000000000000010E-002    -2.3895006506791105E-007
   4.3099999999999999E-002    -2.5189393682012451E-007
   4.4200000000000017E-002    -2.6538754127614084E-007
   4.5300000000000007E-002    -2.7944298608417739E-007
   4.6399999999999997E-002    -2.9407686952254153E-007
   4.7500000000000014E-002    -3.0930897310099681E-007
   4.8600000000000004E-002    -3.2515859516024648E-007
   4.9699999999999994E-002    -3.4164196449637529E-007
   5.0800000000000012E-002    -3.5877218351743068E-007
   5.1900000000000002E-002    -3.7656195672752801E-007
   5.2999999999999992E-002    -3.9502558024651080E-007
   5.4099999999999981E-002    -4.1417791862841113E-007
   5.5200000000000027E-002    -4.3403156269050669E-007
   5.6300000000000017E-002    -4.5459546527126804E-007
   5.7400000000000007E-002    -4.7587712970198481E-007
   5.8499999999999996E-002    -4.9788673095463309E-007
   5.9599999999999986E-002    -5.2063938937862986E-007
   6.0700000000000032E-002    -5.4415227168647107E-007
   6.1800000000000022E-002    -5.6843975926312851E-007
   6.2900000000000011E-002    -5.9350975334382383E-007
   6.4000000000000001E-002    -6.1936600559420185E-007
   6.5099999999999991E-002    -6.4601391613905434E-007
   6.6199999999999981E-002    -6.7346388732403284E-007
   6.7300000000000026E-002    -7.0172933419598849E-007
   6.8400000000000016E-002    -7.3081986329270876E-007
   6.9500000000000006E-002    -7.6073740729043493E-007
   7.0599999999999996E-002    -7.9147849874061649E-007
   7.1699999999999986E-002    -8.2304165971436305E-007
   7.2800000000000031E-002    -8.5543234717988526E-007
   7.3900000000000021E-002    -8.8866119085651007E-007
   7.5000000000000011E-002    -9.2273580776236486E-007
   7.6100000000000001E-002    -9.5765540208958555E-007
   7.7199999999999991E-002    -9.9341252735030139E-007
   7.8299999999999981E-002    -1.0300007033947622E-006
   7.9400000000000026E-002    -1.0674204986571567E-006
   8.0500000000000016E-002    -1.1056761195504805E-006
   8.1600000000000006E-002    -1.1447676797615713E-006
   8.2699999999999996E-002    -1.1846848337881966E-006
   8.3799999999999986E-002    -1.2254097327968339E-006
   8.4900000000000031E-002    -1.2669272564380663E-006
   8.6000000000000021E-002    -1.3092321751173586E-006
   8.7100000000000011E-002    -1.3523264215109521E-006
   8.8200000000000001E-002    -1.3962089724373072E-006
   8.9299999999999990E-002    -1.4408668675969238E-006
   9.0399999999999980E-002    -1.4862775969959330E-006
   9.1500000000000026E-002    -1.5324188780141412E-006
   9.2600000000000016E-002    -1.5792775229783729E-006
   9.3700000000000006E-002    -1.6268472791125532E-006
   9.4799999999999995E-002    -1.6751189377828268E-006
   9.5899999999999985E-002    -1.7240716942978906E-006
   9.7000000000000031E-002    -1.7736754216457484E-006
   9.8100000000000021E-002    -1.8239015844301321E-006
   9.9200000000000010E-002    -1.8747322201306815E-006
  0.10030000000000000         -1.9261581201135414E-006
  0.10139999999999999         -1.9781673472607508E-006
  0.10249999999999998         -2.0307363683969015E-006
  0.10360000000000003         -2.0838297132286243E-006
  0.10470000000000002         -2.1374123662099009E-006
  0.10580000000000001         -2.1914593162364326E-006
  0.10690000000000000         -2.2459560113929911E-006
  0.10799999999999998         -2.3008865355222952E-006
  0.10910000000000003         -2.3562231490359409E-006
  0.11020000000000002         -2.4119260615407256E-006
  0.11130000000000001         -2.4679559373907978E-006
  0.11240000000000000         -2.5242832180083496E-006
  0.11349999999999999         -2.5808901682466967E-006
  0.11460000000000004         -2.6377588255854789E-006
  0.11570000000000003         -2.6948607683152659E-006
  0.11680000000000001         -2.7521555239218287E-006
  0.11790000000000000         -2.8096030746382894E-006
  0.11899999999999999         -2.8671724976447877E-006
  0.12009999999999998         -2.9248431019368581E-006
  0.12120000000000003         -2.9825932870153338E-006
  0.12230000000000002         -3.0403914479393279E-006
  0.12340000000000001         -3.0981943837105064E-006
  0.12450000000000000         -3.1559595754515612E-006
  0.12559999999999999         -3.2136551908479305E-006
  0.12670000000000003         -3.2712607662688242E-006
  0.12780000000000002         -3.3287562928308034E-006
  0.12890000000000001         -3.3861138035717886E-006
  0.13000000000000000         -3.4432944175932789E-006
  0.13109999999999999         -3.5002574350073701E-006
  0.13219999999999998         -3.5569707961258246E-006
  0.13330000000000003         -3.6134108540863963E-006
  0.13440000000000002         -3.6695562357635936E-006
  0.13550000000000001         -3.7253794289426878E-006
  0.13660000000000000         -3.7808447359566344E-006
  0.13769999999999999         -3.8359144127753098E-006
  0.13880000000000003         -3.8905595829419326E-006
  0.13990000000000002         -3.9447581912099849E-006
  0.14100000000000001         -3.9984911381907295E-006
  0.14210000000000000         -4.0517343222745694E-006
  0.14319999999999999         -4.1044554563995916E-006
  0.14429999999999998         -4.1566227082512341E-006
  0.14540000000000003         -4.2082078834937420E-006
  0.14650000000000002         -4.2591905184963252E-006
  0.14760000000000001         -4.3095546971017029E-006
  0.14870000000000000         -4.3592790461843833E-006
  0.14979999999999999         -4.4083385546400677E-006
  0.15090000000000003         -4.4567036638909485E-006
  0.15200000000000002         -4.5043479985906743E-006
  0.15310000000000001         -4.5512529140978586E-006
  0.15420000000000000         -4.5974020395078696E-006
  0.15529999999999999         -4.6427808229054790E-006
  0.15639999999999998         -4.6873724386387039E-006
  0.15750000000000003         -4.7311568778241053E-006
  0.15860000000000002         -4.7741136768308934E-006
  0.15970000000000001         -4.8162246457650326E-006
  0.16080000000000000         -4.8574761422059964E-006
  0.16189999999999999         -4.8978549784806091E-006
  0.16300000000000003         -4.9373493311577477E-006
  0.16410000000000002         -4.9759460125642363E-006
  0.16520000000000001         -5.0136277423007414E-006
  0.16630000000000000         -5.0503758757258765E-006
  0.16739999999999999         -5.0861785894085187E-006
  0.16850000000000004         -5.1210317906225100E-006
  0.16960000000000003         -5.1549332056310959E-006
  0.17070000000000002         -5.1878773774660658E-006
  0.17180000000000001         -5.2198529374436475E-006
  0.17290000000000000         -5.2508462431433145E-006
  0.17399999999999999         -5.2808441068918910E-006
  0.17510000000000003         -5.3098447096999735E-006
  0.17620000000000002         -5.3378503253043164E-006
  0.17730000000000001         -5.3648636821890250E-006
  0.17840000000000000         -5.3908784138911869E-006
  0.17949999999999999         -5.4158826969796792E-006
  0.18060000000000004         -5.4398656175180804E-006
  0.18170000000000003         -5.4628294492431451E-006
  0.18280000000000002         -5.4847869250806980E-006
  0.18390000000000001         -5.5057503232092131E-006
  0.18500000000000000         -5.5257205531233922E-006
  0.18609999999999999         -5.5446871556341648E-006
  0.18720000000000003         -5.5626392168051098E-006
  0.18830000000000002         -5.5795799198676832E-006
  0.18940000000000001         -5.5955251809791662E-006
  0.19050000000000000         -5.6104959185176995E-006
  0.19159999999999999         -5.6245012274303008E-006
  0.19270000000000004         -5.6375365602434613E-006
  0.19380000000000003         -5.6495950957469177E-006
  0.19490000000000002         -5.6606818361615296E-006
  0.19600000000000001         -5.6708172451180872E-006
  0.19710000000000000         -5.6800258789735381E-006
  0.19819999999999999         -5.6883213801484089E-006
  0.19930000000000003         -5.6957023844006471E-006
  0.20040000000000002         -5.7021666179934982E-006
  0.20150000000000001         -5.7077259043580852E-006
  0.20260000000000000         -5.7124057093460578E-006
  0.20369999999999999         -5.7162342272931710E-006
  0.20480000000000004         -5.7192269196093548E-006
  0.20590000000000003         -5.7213865147787146E-006
  0.20700000000000002         -5.7227139222959522E-006
  0.20810000000000001         -5.7232241488236468E-006
  0.20920000000000000         -5.7229453886975534E-006
  0.21029999999999999         -5.7219076552428305E-006
  0.21140000000000003         -5.7201295931008644E-006
  0.21250000000000002         -5.7176189329766203E-006
  0.21360000000000001         -5.7143834055750631E-006
  0.21470000000000000         -5.7104421102849301E-006
  0.21579999999999999         -5.7058241509366781E-006
  0.21690000000000004         -5.7005568123713601E-006
  0.21800000000000003         -5.6946573749883100E-006
  0.21910000000000002         -5.6881353884818964E-006
  0.22020000000000001         -5.6810049500199966E-006
  0.22130000000000000         -5.6732906159595586E-006
  0.22239999999999999         -5.6650233091204427E-006
  0.22350000000000003         -5.6562303143437020E-006
  0.22460000000000002         -5.6469257287972141E-006
  0.22570000000000001         -5.6371181926806457E-006
  0.22680000000000000         -5.6268227126565762E-006
  0.22789999999999999         -5.6160688473028131E-006
  0.22900000000000004         -5.6048902479233220E-006
  0.23010000000000003         -5.5933151088538580E-006
  0.23120000000000002         -5.5813579820096493E-006
  0.23230000000000001         -5.5690261433483101E-006
  0.23340000000000000         -5.5563336900377180E-006
  0.23450000000000004         -5.5433065426768735E-006
  0.23560000000000003         -5.5299760788329877E-006
  0.23670000000000002         -5.5163645811262541E-006
  0.23780000000000001         -5.5024866014719009E-006
  0.23890000000000000         -5.4883539633010514E-006
  0.23999999999999999         -5.4739853112550918E-006
  0.24110000000000004         -5.4594074754277244E-006
  0.24220000000000003         -5.4446472859126516E-006
  0.24330000000000002         -5.4297215683618560E-006
  0.24440000000000001         -5.4146385082276538E-006
  0.24550000000000000         -5.3994090194464661E-006
  0.24660000000000004         -5.3840522014070302E-006
  0.24770000000000003         -5.3685944294556975E-006
  0.24880000000000002         -5.3530575314653106E-006
  0.24990000000000001         -5.3374542403616942E-006
  0.25100000000000000         -5.3217918321024626E-006
  0.25209999999999999         -5.3060821301187389E-006
  0.25320000000000004         -5.2903465075360145E-006
  0.25430000000000003         -5.2746072469744831E-006
  0.25540000000000002         -5.2588779908546712E-006
  0.25650000000000001         -5.2431628319027368E-006
  0.25760000000000000         -5.2274649533501361E-006
  0.25870000000000004         -5.2117979976173956E-006
  0.25980000000000003         -5.1961847020720597E-006
  0.26090000000000002         -5.1806459850922693E-006
  0.26200000000000001         -5.1651882131409366E-006
  0.26310000000000000         -5.1498063839972019E-006
  0.26419999999999999         -5.1344986786716618E-006
  0.26530000000000004         -5.1192819228162989E-006
  0.26640000000000003         -5.1041847655142192E-006
  0.26750000000000002         -5.0892285798909143E-006
  0.26860000000000001         -5.0744115469569806E-006
  0.26970000000000000         -5.0597177505551372E-006
  0.27080000000000004         -5.0451385504857171E-006
  0.27190000000000003         -5.0306866796745453E-006
  0.27300000000000002         -5.0163939704361837E-006
  0.27410000000000001         -5.0022836148855276E-006
  0.27520000000000000         -4.9883533392858226E-006
  0.27629999999999999         -4.9745804062695242E-006
  0.27740000000000004         -4.9609488996793516E-006
  0.27850000000000003         -4.9474692787043750E-006
  0.27960000000000002         -4.9341711019224022E-006
  0.28070000000000001         -4.9210780161956791E-006
  0.28179999999999999         -4.9081877477874514E-006
  0.28290000000000004         -4.8954766498354729E-006
  0.28400000000000003         -4.8829256229510065E-006
  0.28510000000000002         -4.8705387598602101E-006
  0.28620000000000001         -4.8583410716673825E-006
  0.28730000000000000         -4.8463548409927171E-006
  0.28840000000000005         -4.8345759751100559E-006
  0.28950000000000004         -4.8229826461465564E-006
  0.29060000000000002         -4.8115557547134813E-006
  0.29170000000000001         -4.8002989387896378E-006
  0.29280000000000000         -4.7892317525111139E-006
  0.29389999999999999         -4.7783714762772433E-006
  0.29500000000000004         -4.7677121983724646E-006
  0.29610000000000003         -4.7572330004186369E-006
  0.29720000000000002         -4.7469188757531811E-006
  0.29830000000000001         -4.7367739171022549E-006
  0.29940000000000000         -4.7268154048651922E-006
  0.30050000000000004         -4.7170528887363616E-006
  0.30160000000000003         -4.7074777285160962E-006
  0.30270000000000002         -4.6980708248156589E-006
  0.30380000000000001         -4.6888208089512773E-006
  0.30490000000000000         -4.6797335926385131E-006
  0.30599999999999999         -4.6708214540558401E-006
  0.30709999999999998         -4.6620898501714692E-006
  0.30819999999999997         -4.6535255933122244E-006
  0.30930000000000007         -4.6451118578261230E-006
  0.31040000000000006         -4.6368409130082000E-006
  0.31150000000000005         -4.6287223085528240E-006
  0.31260000000000004         -4.6207683226384688E-006
  0.31370000000000003         -4.6129789552651346E-006
  0.31480000000000002         -4.6053387450228911E-006
  0.31590000000000001         -4.5978304115124047E-006
  0.31700000000000000         -4.5904494072601665E-006
  0.31809999999999999         -4.5832075556972995E-006
  0.31919999999999998         -4.5761153160128742E-006
  0.32029999999999997         -4.5691695049754344E-006
  0.32140000000000007         -4.5623510231962427E-006
  0.32250000000000006         -4.5556448640127201E-006
  0.32360000000000005         -4.5490505726775154E-006
  0.32470000000000004         -4.5425804273691028E-006
  0.32580000000000003         -4.5362457967712544E-006
  0.32690000000000002         -4.5300407691684086E-006
  0.32800000000000001         -4.5239476094138809E-006
  0.32910000000000000         -4.5179531298344955E-006
  0.33019999999999999         -4.5120582399249543E-006
  0.33129999999999998         -4.5062724893796258E-006
  0.33239999999999997         -4.5006008804193698E-006
  0.33350000000000007         -4.4950365918339230E-006
  0.33460000000000006         -4.4895659812027588E-006
  0.33570000000000005         -4.4841794988315087E-006
  0.33680000000000004         -4.4788807826989796E-006
  0.33790000000000003         -4.4736789277521893E-006
  0.33900000000000002         -4.4685762077278923E-006
  0.34010000000000001         -4.4635635276790708E-006
  0.34120000000000000         -4.4586286094272509E-006
  0.34229999999999999         -4.4537673602462746E-006
  0.34339999999999998         -4.4489856918517035E-006
  0.34449999999999997         -4.4442886064643972E-006
  0.34560000000000007         -4.4396701923687942E-006
  0.34670000000000006         -4.4351181713864207E-006
  0.34780000000000005         -4.4306229938229080E-006
  0.34890000000000004         -4.4261878429097123E-006
