 -0.20000000000000001          0.0000000000000000
 -0.19890000000000002          0.0000000000000000
 -0.19780000000000000          0.0000000000000000
 -0.19670000000000001          0.0000000000000000
 -0.19560000000000002          0.0000000000000000
 -0.19450000000000001          0.0000000000000000
 -0.19340000000000002          1.5031826590520523E-020
 -0.19230000000000000          1.2172979887377301E-019
 -0.19120000000000001          3.2808880810936427E-019
 -0.19010000000000002         -2.6773173940744851E-019
 -0.18900000000000000         -4.2996910279052320E-018
 -0.18790000000000001         -1.2152207986328811E-017
 -0.18680000000000002         -8.7514840268467147E-018
 -0.18570000000000000          4.3433411006754715E-017
 -0.18460000000000001          1.5881941876401016E-016
 -0.18350000000000000          2.1021784122454414E-016
 -0.18240000000000001         -1.3014388595832427E-016
 -0.18130000000000002         -1.0921678820797207E-015
 -0.18020000000000000         -2.0545485055416908E-015
 -0.17910000000000001         -1.0500867558645350E-015
 -0.17800000000000002          3.9828323507350247E-015
 -0.17690000000000000          1.1579578204775568E-014
 -0.17580000000000001          1.3475493744680763E-014
 -0.17470000000000002         -2.2809407188267416E-015
 -0.17360000000000000         -3.8115889703380437E-014
 -0.17250000000000001         -7.0961940208495722E-014
 -0.17140000000000000         -5.3463106879959865E-014
 -0.17030000000000001          5.0571986919337175E-014
 -0.16920000000000002          2.0879329623753329E-013
 -0.16810000000000000          2.9343601116657569E-013
 -0.16700000000000001          1.4445855536088237E-013
 -0.16589999999999999         -2.7907401866852921E-013
 -0.16480000000000000         -7.6572103692440496E-013
 -0.16370000000000001         -8.9510170109274867E-013
 -0.16260000000000002         -3.2203414739549741E-013
 -0.16150000000000000          8.5492003016815477E-013
 -0.16040000000000001          1.9655861140110975E-012
 -0.15930000000000000          2.1127869419268475E-012
 -0.15820000000000001          8.4613929361362916E-013
 -0.15710000000000002         -1.3534852492252947E-012
 -0.15600000000000000         -3.2743332784718193E-012
 -0.15490000000000001         -3.8154631364084590E-012
 -0.15379999999999999         -2.7764229717369693E-012
 -0.15270000000000000         -8.1377970768264918E-013
 -0.15160000000000001          1.4616755071930609E-012
 -0.15050000000000002          4.2541309017152251E-012
 -0.14940000000000001          8.0452719139478823E-012
 -0.14830000000000002          1.1797442363292721E-011
 -0.14720000000000000          1.1720660032799035E-011
 -0.14610000000000001          2.8957725974054771E-012
 -0.14500000000000002         -1.5985398768569858E-011
 -0.14390000000000000         -3.7956988246934387E-011
 -0.14280000000000001         -4.8175928524241129E-011
 -0.14169999999999999         -3.1878586576050694E-011
 -0.14060000000000000          1.3616452583520289E-011
 -0.13950000000000001          7.1439035242981674E-011
 -0.13840000000000002          1.0992748378235717E-010
 -0.13730000000000001          9.9572822209736955E-011
 -0.13619999999999999          3.2549501288725580E-011
 -0.13510000000000000         -6.8442272682656125E-011
 -0.13400000000000001         -1.5917417384159194E-010
 -0.13290000000000002         -1.9583436261516596E-010
 -0.13180000000000000         -1.5627632521386658E-010
 -0.13070000000000001         -4.8460218476931161E-011
 -0.12959999999999999          9.5742309913493528E-011
 -0.12850000000000000          2.3323334930047679E-010
 -0.12740000000000001          3.1965283198154282E-010
 -0.12630000000000002          3.1533994859778147E-010
 -0.12520000000000001          1.9403577355969759E-010
 -0.12410000000000000         -4.0429947584241788E-011
 -0.12300000000000001         -3.3580532798893614E-010
 -0.12190000000000001         -5.8894783494523040E-010
 -0.12080000000000000         -6.7461553010517150E-010
 -0.11970000000000000         -5.0244630678264457E-010
 -0.11860000000000001         -7.5748560202093529E-011
 -0.11750000000000001          4.8417941878042825E-010
 -0.11640000000000000          9.7059804637922298E-010
 -0.11530000000000000          1.1721192905156386E-009
 -0.11420000000000001          9.6463703691540559E-010
 -0.11310000000000001          3.6983746620755653E-010
 -0.11200000000000000         -4.4642312069242962E-010
 -0.11090000000000001         -1.2315877206958703E-009
 -0.10980000000000001         -1.7304242483362486E-009
 -0.10870000000000000         -1.7603737356708393E-009
 -0.10760000000000000         -1.2557679340829964E-009
 -0.10650000000000001         -2.7839083815983656E-010
 -0.10540000000000001          9.9506580752972695E-010
 -0.10430000000000000          2.2990414016987870E-009
 -0.10320000000000000          3.3197902205017726E-009
 -0.10210000000000001          3.7596552537877415E-009
 -0.10100000000000001          3.4264171500097973E-009
  -9.9900000000000003E-002     2.3256552239558914E-009
  -9.8799999999999999E-002     7.0987699052338371E-010
  -9.7700000000000009E-002    -9.6276941974338115E-010
  -9.6600000000000005E-002    -2.1713864040151520E-009
  -9.5500000000000002E-002    -2.5283519722307801E-009
  -9.4400000000000012E-002    -1.9350128166450986E-009
  -9.3300000000000008E-002    -6.1155730479711679E-010
  -9.2200000000000004E-002     1.0178008436056984E-009
  -9.1100000000000000E-002     2.5172912643256495E-009
  -9.0000000000000011E-002     3.5978744428177833E-009
  -8.8900000000000007E-002     4.1609937717623779E-009
  -8.7800000000000003E-002     4.2334438177249467E-009
  -8.6699999999999999E-002     3.8739433882994945E-009
  -8.5600000000000009E-002     3.1378344367283262E-009
  -8.4500000000000006E-002     2.1210795342341271E-009
  -8.3400000000000002E-002     1.0253040638730226E-009
  -8.2299999999999998E-002     1.6029530480743404E-010
  -8.1200000000000008E-002    -1.4946101301038794E-010
  -8.0100000000000005E-002     2.9457189465453837E-010
  -7.9000000000000001E-002     1.4700716199911312E-009
  -7.7899999999999997E-002     3.1475257955548841E-009
  -7.6800000000000007E-002     4.9982253891300843E-009
  -7.5700000000000003E-002     6.7222840627323421E-009
  -7.4600000000000000E-002     8.1239734939231312E-009
  -7.3500000000000010E-002     9.1147356329202012E-009
  -7.2399999999999992E-002     9.6788248526991083E-009
  -7.1300000000000002E-002     9.8496935052594381E-009
  -7.0200000000000012E-002     9.7155430367479312E-009
  -6.9099999999999995E-002     9.4336911615755525E-009
  -6.8000000000000005E-002     9.2199501366962977E-009
  -6.6900000000000015E-002     9.2980130261821614E-009
  -6.5799999999999997E-002     9.8257277869606696E-009
  -6.4700000000000008E-002     1.0836382458023763E-008
  -6.3599999999999990E-002     1.2232204582574013E-008
  -6.2500000000000000E-002     1.3845489199582062E-008
  -6.1400000000000010E-002     1.5547451326369810E-008
  -6.0299999999999992E-002     1.7349133685229390E-008
  -5.9200000000000003E-002     1.9424620134600445E-008
  -5.8100000000000013E-002     2.2016592993168160E-008
  -5.6999999999999995E-002     2.5256637670167947E-008
  -5.5900000000000005E-002     2.9006702817468977E-008
  -5.4800000000000015E-002     3.2842542907474126E-008
  -5.3699999999999998E-002     3.6224079735802661E-008
  -5.2600000000000008E-002     3.8771304389229044E-008
  -5.1499999999999990E-002     4.0480259144715092E-008
  -5.0400000000000000E-002     4.1744019796396969E-008
  -4.9300000000000010E-002     4.3172544650360578E-008
  -4.8199999999999993E-002     4.5333688802884353E-008
  -4.7100000000000003E-002     4.8565990340421195E-008
  -4.6000000000000013E-002     5.2930317906429991E-008
  -4.4899999999999995E-002     5.8257828783325749E-008
  -4.3800000000000006E-002     6.4216592932098138E-008
  -4.2699999999999988E-002     7.0376287908402446E-008
  -4.1599999999999998E-002     7.6318372066452866E-008
  -4.0500000000000008E-002     8.1824452990986174E-008
  -3.9399999999999991E-002     8.7074973009748646E-008
  -3.8300000000000001E-002     9.2705484178168263E-008
  -3.7200000000000011E-002     9.9607646575350373E-008
  -3.6099999999999993E-002     1.0852690479623561E-007
  -3.5000000000000003E-002     1.1967313184868544E-007
  -3.3900000000000013E-002     1.3258004116778466E-007
  -3.2799999999999996E-002     1.4629600286752975E-007
  -3.1700000000000006E-002     1.5978282874584693E-007
  -3.0599999999999988E-002     1.7229761795078957E-007
  -2.9499999999999998E-002     1.8359681064339384E-007
  -2.8400000000000009E-002     1.9394607875256042E-007
  -2.7299999999999991E-002     2.0401105871314940E-007
  -2.6200000000000001E-002     2.1468969180205022E-007
  -2.5100000000000011E-002     2.2689148693189054E-007
  -2.3999999999999994E-002     2.4127095343828842E-007
  -2.2900000000000004E-002     2.5799423042371927E-007
  -2.1800000000000014E-002     2.7667246627061104E-007
  -2.0699999999999996E-002     2.9654196964656876E-007
  -1.9600000000000006E-002     3.1682250778430898E-007
  -1.8499999999999989E-002     3.3706376711961639E-007
  -1.7399999999999999E-002     3.5730224112739961E-007
  -1.6300000000000009E-002     3.7798926655341347E-007
  -1.5199999999999991E-002     3.9979008192858601E-007
  -1.4100000000000001E-002     4.2338206185377203E-007
  -1.3000000000000012E-002     4.4930328613190795E-007
  -1.1899999999999994E-002     4.7782890533198952E-007
  -1.0800000000000004E-002     5.0886723101939424E-007
  -9.6999999999999864E-003     5.4193685627978994E-007
  -8.5999999999999965E-003     5.7630637684269459E-007
  -7.5000000000000067E-003     6.1128110928621027E-007
  -6.3999999999999890E-003     6.4648912712073070E-007
  -5.2999999999999992E-003     6.8198841063349391E-007
  -4.2000000000000093E-003     7.1814190505392617E-007
  -3.0999999999999917E-003     7.5538684995990479E-007
  -2.0000000000000018E-003     7.9408835063077277E-007
  -9.0000000000001190E-004     8.3455279309418984E-007
   2.0000000000000573E-004     8.7709810259184451E-007
   1.2999999999999956E-003     9.2202299128985032E-007
   2.4000000000000132E-003     9.6944449978764169E-007
   3.5000000000000031E-003     1.0191516821578261E-006
   4.5999999999999930E-003     1.0706601187848719E-006
   5.7000000000000106E-003     1.1234860721742734E-006
   6.8000000000000005E-003     1.1774453696489218E-006
   7.8999999999999904E-003     1.2327425338298781E-006
   9.0000000000000080E-003     1.2897902479380718E-006
   1.0099999999999998E-002     1.3489324146576109E-006
   1.1199999999999988E-002     1.4103092098594061E-006
   1.2300000000000005E-002     1.4739363223270630E-006
   1.3399999999999995E-002     1.5398480854855734E-006
   1.4500000000000013E-002     1.6081000921985833E-006
   1.5600000000000003E-002     1.6786058267825865E-006
   1.6699999999999993E-002     1.7509933059045579E-006
   1.7800000000000010E-002     1.8246907984575955E-006
   1.8900000000000000E-002     1.8992452623933787E-006
   1.9999999999999990E-002     1.9746325961023103E-006
   2.1100000000000008E-002     2.0512923128990224E-006
   2.2199999999999998E-002     2.1298412775649922E-006
   2.3300000000000015E-002     2.2107033146312460E-006
   2.4400000000000005E-002     2.2939505015528994E-006
   2.5499999999999995E-002     2.3794366370566422E-006
   2.6600000000000013E-002     2.4670489437994547E-006
   2.7700000000000002E-002     2.5568292585376184E-006
   2.8799999999999992E-002     2.6488778530620039E-006
   2.9900000000000010E-002     2.7431924536358565E-006
   3.1000000000000000E-002     2.8396354991855333E-006
   3.2099999999999990E-002     2.9380685191426892E-006
   3.3200000000000007E-002     3.0385033369384473E-006
   3.4299999999999997E-002     3.1410954761668108E-006
   3.5400000000000015E-002     3.2459770409332123E-006
   3.6500000000000005E-002     3.3530952805449488E-006
   3.7599999999999995E-002     3.4622337352629984E-006
   3.8700000000000012E-002     3.5732027754420415E-006
   3.9800000000000002E-002     3.6860299132968066E-006
   4.0899999999999992E-002     3.8009861782484222E-006
   4.2000000000000010E-002     3.9184433262562379E-006
   4.3099999999999999E-002     4.0387067201663740E-006
   4.4200000000000017E-002     4.1619600779085886E-006
   4.5300000000000007E-002     4.2883234527835157E-006
   4.6399999999999997E-002     4.4179159885970876E-006
   4.7500000000000014E-002     4.5508495531976223E-006
   4.8600000000000004E-002     4.6871946324245073E-006
   4.9699999999999994E-002     4.8270112529280595E-006
   5.0800000000000012E-002     4.9704485718393698E-006
   5.1900000000000002E-002     5.1178276407881640E-006
   5.2999999999999992E-002     5.2696213970193639E-006
   5.4099999999999981E-002     5.4263123274722602E-006
   5.5200000000000027E-002     5.5882619562908076E-006
   5.6300000000000017E-002     5.7557185755285900E-006
   5.7400000000000007E-002     5.9289286582497880E-006
   5.8499999999999996E-002     6.1082082538632676E-006
   5.9599999999999986E-002     6.2938684095570352E-006
   6.0700000000000032E-002     6.4860732891247608E-006
   6.1800000000000022E-002     6.6848178903455846E-006
   6.2900000000000011E-002     6.8901067606930155E-006
   6.4000000000000001E-002     7.1022323027136736E-006
   6.5099999999999991E-002     7.3219098339905031E-006
   6.6199999999999981E-002     7.5501106948649976E-006
   6.7300000000000026E-002     7.7877657531644218E-006
   6.8400000000000016E-002     8.0355539466836490E-006
   6.9500000000000006E-002     8.2939359344891272E-006
   7.0599999999999996E-002     8.5633664639317431E-006
   7.1699999999999986E-002     8.8444021457689814E-006
   7.2800000000000031E-002     9.1376041382318363E-006
   7.3900000000000021E-002     9.4433462436427362E-006
   7.5000000000000011E-002     9.7617867140797898E-006
   7.6100000000000001E-002     1.0093093806062825E-005
   7.7199999999999991E-002     1.0437764103699010E-005
   7.8299999999999981E-002     1.0796729839057662E-005
   7.9400000000000026E-002     1.1171129699505400E-005
   8.0500000000000016E-002     1.1561925930436701E-005
   8.1600000000000006E-002     1.1969636943831574E-005
   8.2699999999999996E-002     1.2394383702485356E-005
   8.3799999999999986E-002     1.2836174391850363E-005
   8.4900000000000031E-002     1.3295156350068282E-005
   8.6000000000000021E-002     1.3771676094620489E-005
   8.7100000000000011E-002     1.4266207472246606E-005
   8.8200000000000001E-002     1.4779288903810084E-005
   8.9299999999999990E-002     1.5311517927329987E-005
   9.0399999999999980E-002     1.5863550288486294E-005
   9.1500000000000026E-002     1.6436026271549053E-005
   9.2600000000000016E-002     1.7029416994773783E-005
   9.3700000000000006E-002     1.7643913452047855E-005
   9.4799999999999995E-002     1.8279457435710356E-005
   9.5899999999999985E-002     1.8935877960757352E-005
   9.7000000000000031E-002     1.9613054973888211E-005
   9.8100000000000021E-002     2.0310928448452614E-005
   9.9200000000000010E-002     2.1029425624874420E-005
  0.10030000000000000          2.1768482838524505E-005
  0.10139999999999999          2.2528090994455852E-005
  0.10249999999999998          2.3308290110435337E-005
  0.10360000000000003          2.4108987418003380E-005
  0.10470000000000002          2.4929764549597166E-005
  0.10580000000000001          2.5769870262593031E-005
  0.10690000000000000          2.6628329578670673E-005
  0.10799999999999998          2.7504203899297863E-005
  0.10910000000000003          2.8396780180628411E-005
  0.11020000000000002          2.9305469070095569E-005
  0.11130000000000001          3.0229564799810760E-005
  0.11240000000000000          3.1168048735707998E-005
  0.11349999999999999          3.2119682146003470E-005
  0.11460000000000004          3.3083324524341151E-005
  0.11570000000000003          3.4058070013998076E-005
  0.11680000000000001          3.5043114621657878E-005
  0.11790000000000000          3.6037385143572465E-005
  0.11899999999999999          3.7039266317151487E-005
  0.12009999999999998          3.8046699046390131E-005
  0.12120000000000003          3.9057544199749827E-005
  0.12230000000000002          4.0069899114314467E-005
  0.12340000000000001          4.1082112147705629E-005
  0.12450000000000000          4.2092568037332967E-005
  0.12559999999999999          4.3099469621665776E-005
  0.12670000000000003          4.4100885133957490E-005
  0.12780000000000002          4.5094933739164844E-005
  0.12890000000000001          4.6079832827672362E-005
  0.13000000000000000          4.7053752496140078E-005
  0.13109999999999999          4.8014568164944649E-005
  0.13219999999999998          4.8959769628709182E-005
  0.13330000000000003          4.9886672059074044E-005
  0.13440000000000002          5.0792743422789499E-005
  0.13550000000000001          5.1675800932571292E-005
  0.13660000000000000          5.2533989219227806E-005
  0.13769999999999999          5.3365591156762093E-005
  0.13880000000000003          5.4168867791304365E-005
  0.13990000000000002          5.4941967391641811E-005
  0.14100000000000001          5.5682921811239794E-005
  0.14210000000000000          5.6389606470474973E-005
  0.14319999999999999          5.7059594837483019E-005
  0.14429999999999998          5.7690322137204930E-005
  0.14540000000000003          5.8279423683416098E-005
  0.14650000000000002          5.8825047744903713E-005
  0.14760000000000001          5.9325851907487959E-005
  0.14870000000000000          5.9780599258374423E-005
  0.14979999999999999          6.0187820054125041E-005
  0.15090000000000003          6.0545786254806444E-005
  0.15200000000000002          6.0852838942082599E-005
  0.15310000000000001          6.1107712099328637E-005
  0.15420000000000000          6.1309532611630857E-005
  0.15529999999999999          6.1457423726096749E-005
  0.15639999999999998          6.1550243117380887E-005
  0.15750000000000003          6.1586652009282261E-005
  0.15860000000000002          6.1565609939862043E-005
  0.15970000000000001          6.1486876802518964E-005
  0.16080000000000000          6.1350889154709876E-005
  0.16189999999999999          6.1158163589425385E-005
  0.16300000000000003          6.0908612795174122E-005
  0.16410000000000002          6.0601490986300632E-005
  0.16520000000000001          6.0236088756937534E-005
  0.16630000000000000          5.9812402469106019E-005
  0.16739999999999999          5.9331337979529053E-005
  0.16850000000000004          5.8794241340365261E-005
  0.16960000000000003          5.8202247601002455E-005
  0.17070000000000002          5.7556022511562333E-005
  0.17180000000000001          5.6856017181416973E-005
  0.17290000000000000          5.6103130191331729E-005
  0.17399999999999999          5.5298791266977787E-005
  0.17510000000000003          5.4444659326691180E-005
  0.17620000000000002          5.3542436944553629E-005
  0.17730000000000001          5.2593713917303830E-005
  0.17840000000000000          5.1600141887320206E-005
  0.17949999999999999          5.0563743570819497E-005
  0.18060000000000004          4.9487010983284563E-005
  0.18170000000000003          4.8372508899774402E-005
  0.18280000000000002          4.7222452849382535E-005
  0.18390000000000001          4.6038727305131033E-005
  0.18500000000000000          4.4823169446317479E-005
  0.18609999999999999          4.3577951146289706E-005
  0.18720000000000003          4.2305586248403415E-005
  0.18830000000000002          4.1008734115166590E-005
  0.18940000000000001          3.9690105040790513E-005
  0.19050000000000000          3.8352489355020225E-005
  0.19159999999999999          3.6998873838456348E-005
  0.19270000000000004          3.5632307117339224E-005
  0.19380000000000003          3.4255546779604629E-005
  0.19490000000000002          3.2870859286049381E-005
  0.19600000000000001          3.1480180041398853E-005
  0.19710000000000000          3.0085584512562491E-005
  0.19819999999999999          2.8689644750556909E-005
  0.19930000000000003          2.7295354811940342E-005
  0.20040000000000002          2.5905668735504150E-005
  0.20150000000000001          2.4523165848222561E-005
  0.20260000000000000          2.3150214474298991E-005
  0.20369999999999999          2.1789286620332859E-005
  0.20480000000000004          2.0443083485588431E-005
  0.20590000000000003          1.9114288079435937E-005
  0.20700000000000002          1.7805057723307982E-005
  0.20810000000000001          1.6516776668140665E-005
  0.20920000000000000          1.5250539036060218E-005
  0.21029999999999999          1.4007900063006673E-005
  0.21140000000000003          1.2791108019882813E-005
  0.21250000000000002          1.1602625818341039E-005
  0.21360000000000001          1.0444418876431882E-005
  0.21470000000000000          9.3175758593133651E-006
  0.21579999999999999          8.2226115409866907E-006
  0.21690000000000004          7.1602194111619610E-006
  0.21800000000000003          6.1317150539252907E-006
  0.21910000000000002          5.1386555242061149E-006
  0.22020000000000001          4.1821440390776843E-006
  0.22130000000000000          3.2626992378936848E-006
  0.22239999999999999          2.3804875581845408E-006
  0.22350000000000003          1.5357018128270283E-006
  0.22460000000000002          7.2900019176813657E-007
  0.22570000000000001         -3.8790066270166790E-008
  0.22680000000000000         -7.6735335596822551E-007
  0.22789999999999999         -1.4570597386409645E-006
  0.22900000000000004         -2.1085024854983203E-006
  0.23010000000000003         -2.7220539777772501E-006
  0.23120000000000002         -3.2977072805806529E-006
  0.23230000000000001         -3.8352832234522793E-006
  0.23340000000000000         -4.3350655687390827E-006
  0.23450000000000004         -4.7979660848795902E-006
  0.23560000000000003         -5.2251352826715447E-006
  0.23670000000000002         -5.6174544624809641E-006
  0.23780000000000001         -5.9753369896498043E-006
  0.23890000000000000         -6.2991975937620737E-006
  0.23999999999999999         -6.5899207584152464E-006
  0.24110000000000004         -6.8487947828543838E-006
  0.24220000000000003         -7.0773148763692006E-006
  0.24330000000000002         -7.2768557402014267E-006
  0.24440000000000001         -7.4485810728219803E-006
  0.24550000000000000         -7.5937391557090450E-006
  0.24660000000000004         -7.7138138294685632E-006
  0.24770000000000003         -7.8102957559167407E-006
  0.24880000000000002         -7.8842749644536525E-006
  0.24990000000000001         -7.9363944678334519E-006
  0.25100000000000000         -7.9672263382235542E-006
  0.25209999999999999         -7.9778847066336311E-006
  0.25320000000000004         -7.9702840594109148E-006
  0.25430000000000003         -7.9466353781754151E-006
  0.25540000000000002         -7.9088449638220482E-006
  0.25650000000000001         -7.8583134381915443E-006
  0.25760000000000000         -7.7961112765478902E-006
  0.25870000000000004         -7.7234617492649704E-006
  0.25980000000000003         -7.6418027674662881E-006
  0.26090000000000002         -7.5524017120187636E-006
  0.26200000000000001         -7.4560643952281680E-006
  0.26310000000000000         -7.3532673923182301E-006
  0.26419999999999999         -7.2447464845026843E-006
  0.26530000000000004         -7.1318518166663125E-006
  0.26640000000000003         -7.0165406214073300E-006
  0.26750000000000002         -6.9006982812425122E-006
  0.26860000000000001         -6.7854498411179520E-006
  0.26970000000000000         -6.6712314037431497E-006
  0.27080000000000004         -6.5582648858253378E-006
  0.27190000000000003         -6.4471187215531245E-006
  0.27300000000000002         -6.3388633861904964E-006
  0.27410000000000001         -6.2346725826500915E-006
  0.27520000000000000         -6.1353111959761009E-006
  0.27629999999999999         -6.0412467064452358E-006
  0.27740000000000004         -5.9530138969421387E-006
  0.27850000000000003         -5.8714058468467556E-006
  0.27960000000000002         -5.7973074945039116E-006
  0.28070000000000001         -5.7312040553370025E-006
  0.28179999999999999         -5.6729827520030085E-006
  0.28290000000000004         -5.6222233979497105E-006
  0.28400000000000003         -5.5788023018976673E-006
  0.28510000000000002         -5.5430973588954657E-006
  0.28620000000000001         -5.5157233873615041E-006
  0.28730000000000000         -5.4970628298178781E-006
  0.28840000000000005         -5.4870070016477257E-006
  0.28950000000000004         -5.4852512221259531E-006
  0.29060000000000002         -5.4917541092436295E-006
  0.29170000000000001         -5.5067043831513729E-006
  0.29280000000000000         -5.5300615713349544E-006
  0.29389999999999999         -5.5613290896872059E-006
  0.29500000000000004         -5.5997275012487080E-006
  0.29610000000000003         -5.6446360758855008E-006
  0.29720000000000002         -5.6959052017191425E-006
  0.29830000000000001         -5.7536390158929862E-006
  0.29940000000000000         -5.8176469792670105E-006
  0.30050000000000004         -5.8872592489933595E-006
  0.30160000000000003         -5.9614731071633287E-006
  0.30270000000000002         -6.0394677348085679E-006
  0.30380000000000001         -6.1209443629195448E-006
  0.30490000000000000         -6.2057283685135189E-006
  0.30599999999999999         -6.2932867876952514E-006
  0.30709999999999998         -6.3824304561421741E-006
  0.30819999999999997         -6.4716386987129226E-006
  0.30930000000000007         -6.5598378569120541E-006
  0.31040000000000006         -6.6467014221416321E-006
  0.31150000000000005         -6.7322516770218499E-006
  0.31260000000000004         -6.8161480157868937E-006
  0.31370000000000003         -6.8973008637840394E-006
  0.31480000000000002         -6.9742504820169415E-006
  0.31590000000000001         -7.0457385845656972E-006
  0.31700000000000000         -7.1109884629549924E-006
  0.31809999999999999         -7.1694835241942201E-006
  0.31919999999999998         -7.2204256866825745E-006
  0.32029999999999997         -7.2624638960405719E-006
  0.32140000000000007         -7.2941911639645696E-006
  0.32250000000000006         -7.3147680268448312E-006
  0.32360000000000005         -7.3239607445430011E-006
  0.32470000000000004         -7.3217756835219916E-006
  0.32580000000000003         -7.3077922024822328E-006
  0.32690000000000002         -7.2809552875696681E-006
  0.32800000000000001         -7.2399352575303055E-006
  0.32910000000000000         -7.1834788286651019E-006
  0.33019999999999999         -7.1105982897279318E-006
  0.33129999999999998         -7.0204655457928311E-006
  0.33239999999999997         -6.9122916102060117E-006
  0.33350000000000007         -6.7853679865947925E-006
  0.33460000000000006         -6.6391289692546707E-006
  0.33570000000000005         -6.4731798374850769E-006
  0.33680000000000004         -6.2871113186702132E-006
  0.33790000000000003         -6.0802844927820843E-006
  0.33900000000000002         -5.8518339756119531E-006
  0.34010000000000001         -5.6009484978858382E-006
  0.34120000000000000         -5.3270987336873077E-006
  0.34229999999999999         -5.0300909606448840E-006
  0.34339999999999998         -4.7099119910853915E-006
  0.34449999999999997         -4.3662898860930000E-006
  0.34560000000000007         -3.9987307900446467E-006
  0.34670000000000006         -3.6069309317099396E-006
  0.34780000000000005         -3.1909460176393623E-006
  0.34890000000000004         -2.7510818654263858E-006
