 -0.20000000000000001          0.0000000000000000
 -0.19890000000000002          0.0000000000000000
 -0.19780000000000000          0.0000000000000000
 -0.19670000000000001          0.0000000000000000
 -0.19560000000000002          0.0000000000000000
 -0.19450000000000001          0.0000000000000000
 -0.19340000000000002          0.0000000000000000
 -0.19230000000000000          0.0000000000000000
 -0.19120000000000001          0.0000000000000000
 -0.19010000000000002          0.0000000000000000
 -0.18900000000000000         -1.7036034162183078E-019
 -0.18790000000000001         -1.4643748990027588E-018
 -0.18680000000000002         -3.7140351600988064E-018
 -0.18570000000000000          1.0436578320431565E-017
 -0.18460000000000001          1.0503235015732926E-016
 -0.18350000000000000          3.3299056854317567E-016
 -0.18240000000000001          3.4526836405318596E-016
 -0.18130000000000002         -1.3018538527878381E-015
 -0.18020000000000000         -6.7051759144196119E-015
 -0.17910000000000001         -1.3858204406073937E-014
 -0.17800000000000002         -6.9244070994103381E-015
 -0.17690000000000000          4.6458567922640429E-014
 -0.17580000000000001          1.6195625027713711E-013
 -0.17470000000000002          2.5149313512794202E-013
 -0.17360000000000000          4.5006953350822110E-014
 -0.17250000000000001         -7.8912738973521690E-013
 -0.17140000000000000         -2.1300721603223494E-012
 -0.17030000000000001         -2.6686506737066962E-012
 -0.16920000000000002          1.4580300671234586E-013
 -0.16810000000000000          8.1486718414569559E-012
 -0.16700000000000001          1.8280866403985740E-011
 -0.16589999999999999          1.9184407534789116E-011
 -0.16480000000000000         -5.0776353607839830E-012
 -0.16370000000000001         -5.9202566460303530E-011
 -0.16260000000000002         -1.1423199192117650E-010
 -0.16150000000000000         -1.0058637950338678E-010
 -0.16040000000000001          5.4035696056553562E-011
 -0.15930000000000000          3.3556535328216341E-010
 -0.15820000000000001          5.5635757112426631E-010
 -0.15710000000000002          3.8350575493062422E-010
 -0.15600000000000000         -4.1935999117725942E-010
 -0.15490000000000001         -1.5977371647935001E-009
 -0.15379999999999999         -2.1802055716335644E-009
 -0.15270000000000000         -8.8253349073141862E-010
 -0.15160000000000001          2.6840112354875600E-009
 -0.15050000000000002          6.6393939235354082E-009
 -0.14940000000000001          6.8008079168180302E-009
 -0.14830000000000002         -6.2906918563143677E-010
 -0.14720000000000000         -1.4224644573346268E-008
 -0.14610000000000001         -2.4090125450015876E-008
 -0.14500000000000002         -1.5557883870087608E-008
 -0.14390000000000000          1.8194153739159447E-008
 -0.14280000000000001          6.1448517385542800E-008
 -0.14169999999999999          7.4413989636923361E-008
 -0.14060000000000000          1.7631222704039828E-008
 -0.13950000000000001         -1.0431671881860893E-007
 -0.13840000000000002         -2.1361753965720709E-007
 -0.13730000000000001         -1.8778706589728245E-007
 -0.13619999999999999          4.3360259383007360E-008
 -0.13510000000000000          3.8933839618948696E-007
 -0.13400000000000001          5.8709912309495849E-007
 -0.13290000000000002          3.5946615639659285E-007
 -0.13180000000000000         -3.1812618317417218E-007
 -0.13070000000000001         -1.0558350140854600E-006
 -0.12959999999999999         -1.2162003031335189E-006
 -0.12850000000000000         -4.1058197552956699E-007
 -0.12740000000000001          1.0170640507567441E-006
 -0.12630000000000002          2.0187501377222361E-006
 -0.12520000000000001          1.5874747987254523E-006
 -0.12410000000000000         -2.3539743665423885E-007
 -0.12300000000000001         -2.0312345441197976E-006
 -0.12190000000000001         -1.9959450128226308E-006
 -0.12080000000000000          2.4336472392860742E-007
 -0.11970000000000000          2.6165014332946157E-006
 -0.11860000000000001          1.9119754597340943E-006
 -0.11750000000000001         -2.9468806133081671E-006
 -0.11640000000000000         -8.3659551819437183E-006
 -0.11530000000000000         -7.5442394518177025E-006
 -0.11420000000000001          3.5700497846846702E-006
 -0.11310000000000001          2.0005911210319027E-005
 -0.11200000000000000          2.7800035240943544E-005
 -0.11090000000000001          1.3536328879126813E-005
 -0.10980000000000001         -2.1767735233879648E-005
 -0.10870000000000000         -5.6421846238663420E-005
 -0.10760000000000000         -5.9098125348100439E-005
 -0.10650000000000001         -1.3780877452518325E-005
 -0.10540000000000001          5.9596153732854873E-005
 -0.10430000000000000          1.0982865933328867E-004
 -0.10320000000000000          8.8998349383473396E-005
 -0.10210000000000001         -4.9669447435007896E-006
 -0.10100000000000001         -1.1395694309612736E-004
  -9.9900000000000003E-002    -1.5454155800398439E-004
  -9.8799999999999999E-002    -8.3683335105888546E-005
  -9.7700000000000009E-002     5.6202250561909750E-005
  -9.6600000000000005E-002     1.5833837096579373E-004
  -9.5500000000000002E-002     1.3441302871797234E-004
  -9.4400000000000012E-002    -3.3486180655017961E-006
  -9.3300000000000008E-002    -1.3684047735296190E-004
  -9.2200000000000004E-002    -1.3470424164552242E-004
  -9.1100000000000000E-002     2.3362952561001293E-005
  -9.0000000000000011E-002     2.0208851492498070E-004
  -8.8900000000000007E-002     2.0731470431201160E-004
  -8.7800000000000003E-002    -3.4856915590353310E-005
  -8.6699999999999999E-002    -3.6813353653997183E-004
  -8.5600000000000009E-002    -4.8853672342374921E-004
  -8.4500000000000006E-002    -1.9146337581332773E-004
  -8.3400000000000002E-002     4.0516362059861422E-004
  -8.2299999999999998E-002     8.7345566134899855E-004
  -8.1200000000000008E-002     7.7043363125994802E-004
  -8.0100000000000005E-002     1.8773771444102749E-005
  -7.9000000000000001E-002    -9.4075535889714956E-004
  -7.7899999999999997E-002    -1.4029358280822635E-003
  -7.6800000000000007E-002    -9.1940676793456078E-004
  -7.5700000000000003E-002     3.0132240499369800E-004
  -7.4600000000000000E-002     1.4624157920479774E-003
  -7.3500000000000010E-002     1.7227751668542624E-003
  -7.2399999999999992E-002     8.3411257946863770E-004
  -7.1300000000000002E-002    -6.2811427051201463E-004
  -7.0200000000000012E-002    -1.6561562661081553E-003
  -6.9099999999999995E-002    -1.5548735391348600E-003
  -6.8000000000000005E-002    -4.6851049410179257E-004
  -6.6900000000000015E-002     7.3839211836457253E-004
  -6.5799999999999997E-002     1.1716089211404324E-003
  -6.4700000000000008E-002     6.2633573543280363E-004
  -6.3599999999999990E-002    -2.5538066984154284E-004
  -6.2500000000000000E-002    -5.4219528101384640E-004
  -6.1400000000000010E-002     1.4865437697153538E-004
  -6.0299999999999992E-002     1.2316589709371328E-003
  -5.9200000000000003E-002     1.5533157857134938E-003
  -5.8100000000000013E-002     3.6234312574379146E-004
  -5.6999999999999995E-002    -1.9032798008993268E-003
  -5.5900000000000005E-002    -3.7036882713437080E-003
  -5.4800000000000015E-002    -3.4257960505783558E-003
  -5.3699999999999998E-002    -6.7429343471303582E-004
  -5.2600000000000008E-002     3.1544808298349380E-003
  -5.1499999999999990E-002     5.5766552686691284E-003
  -5.0400000000000000E-002     4.6677361242473125E-003
  -4.9300000000000010E-002     5.6107755517587066E-004
  -4.8199999999999993E-002    -4.3332539498806000E-003
  -4.7100000000000003E-002    -6.7292959429323673E-003
  -4.6000000000000013E-002    -4.6819387935101986E-003
  -4.4899999999999995E-002     8.8509096531197429E-004
  -4.3800000000000006E-002     6.5278606489300728E-003
  -4.2699999999999988E-002     8.4610162302851677E-003
  -4.1599999999999998E-002     5.1692239940166473E-003
  -4.0500000000000008E-002    -1.4117766404524446E-003
  -3.9399999999999991E-002    -7.1210088208317757E-003
  -3.8300000000000001E-002    -8.4583824500441551E-003
  -3.7200000000000011E-002    -5.0642248243093491E-003
  -3.6099999999999993E-002     1.0978282080031931E-004
  -3.5000000000000003E-002     3.1615453772246838E-003
  -3.3900000000000013E-002     2.3546933662146330E-003
  -3.2799999999999996E-002    -5.1382789388298988E-004
  -3.1700000000000006E-002    -1.7277937149628997E-003
  -3.0599999999999988E-002     9.3098636716604233E-004
  -2.9499999999999998E-002     5.7872235774993896E-003
  -2.8400000000000009E-002     8.1379646435379982E-003
  -2.7299999999999991E-002     4.0599941276013851E-003
  -2.6200000000000001E-002    -5.7406532578170300E-003
  -2.5100000000000011E-002    -1.5362862497568130E-002
  -2.3999999999999994E-002    -1.7437620088458061E-002
  -2.2900000000000004E-002    -8.7348716333508492E-003
  -2.1800000000000014E-002     6.5916418097913265E-003
  -2.0699999999999996E-002     1.8970835953950882E-002
  -1.9600000000000006E-002     1.9669326022267342E-002
  -1.8499999999999989E-002     7.0540234446525574E-003
  -1.7399999999999999E-002    -1.1738394387066364E-002
  -1.6300000000000009E-002    -2.5209313258528709E-002
  -1.5199999999999991E-002    -2.5117252022027969E-002
  -1.4100000000000001E-002    -1.2043716385960579E-002
  -1.3000000000000012E-002     5.0184880383312702E-003
  -1.1899999999999994E-002     1.4822661876678467E-002
  -1.0800000000000004E-002     1.1517419479787350E-002
  -9.6999999999999864E-003    -1.5227787662297487E-003
  -8.5999999999999965E-003    -1.4345639385282993E-002
  -7.5000000000000067E-003    -1.7694311216473579E-002
  -6.3999999999999890E-003    -9.7843091934919357E-003
  -5.2999999999999992E-003     2.2814762778580189E-003
  -4.2000000000000093E-003     7.6465588063001633E-003
  -3.0999999999999917E-003    -9.8268865258432925E-005
  -2.0000000000000018E-003    -1.7542907968163490E-002
  -9.0000000000001190E-004    -3.3130012452602386E-002
   2.0000000000000573E-004    -3.5190965980291367E-002
   1.2999999999999956E-003    -2.0869836211204529E-002
   2.4000000000000132E-003     7.0801470428705215E-004
   3.5000000000000031E-003     1.3956018723547459E-002
   4.5999999999999930E-003     7.6908036135137081E-003
   5.7000000000000106E-003    -1.6331333667039871E-002
   6.8000000000000005E-003    -4.3764933943748474E-002
   7.8999999999999904E-003    -5.7268936187028885E-002
   9.0000000000000080E-003    -4.8772517591714859E-002
   1.0099999999999998E-002    -2.5488229468464851E-002
   1.1199999999999988E-002    -5.0543532706797123E-003
   1.2300000000000005E-002    -3.1618101056665182E-003
   1.3399999999999995E-002    -2.2655526176095009E-002
   1.4500000000000013E-002    -5.2006810903549194E-002
   1.5600000000000003E-002    -7.4014283716678619E-002
   1.6699999999999993E-002    -7.8042358160018921E-002
   1.7800000000000010E-002    -6.6785328090190887E-002
   1.8900000000000000E-002    -5.3077626973390579E-002
   1.9999999999999990E-002    -4.9857769161462784E-002
   2.1100000000000008E-002    -6.1148852109909058E-002
   2.2199999999999998E-002    -8.0460354685783386E-002
   2.3300000000000015E-002    -9.6968807280063629E-002
   2.4400000000000005E-002   -0.10414925962686539
   2.5499999999999995E-002   -0.10430648922920227
   2.6600000000000013E-002   -0.10612342506647110
   2.7700000000000002E-002   -0.11759623140096664
   2.8799999999999992E-002   -0.13978420197963715
   2.9900000000000010E-002   -0.16581171751022339
   3.1000000000000000E-002   -0.18568408489227295
   3.2099999999999990E-002   -0.19358120858669281
   3.3200000000000007E-002   -0.19260722398757935
   3.4299999999999997E-002   -0.19353994727134705
   3.5400000000000015E-002   -0.20794288814067841
   3.6500000000000005E-002   -0.23990781605243683
   3.7599999999999995E-002   -0.28227669000625610
   3.8700000000000012E-002   -0.32064983248710632
   3.9800000000000002E-002   -0.34329646825790405
   4.0899999999999992E-002   -0.35023206472396851
   4.2000000000000010E-002   -0.35440891981124878
   4.3099999999999999E-002   -0.37323698401451111
   4.4200000000000017E-002   -0.41612115502357483
   4.5300000000000007E-002   -0.47736707329750061
   4.6399999999999997E-002   -0.54026430845260620
   4.7500000000000014E-002   -0.58947545289993286
   4.8600000000000004E-002   -0.62209916114807129
   4.9699999999999994E-002   -0.64868432283401489
   5.0800000000000012E-002   -0.68394523859024048
   5.1900000000000002E-002   -0.73525959253311157
   5.2999999999999992E-002   -0.79865789413452148
   5.4099999999999981E-002   -0.86496412754058838
   5.5200000000000027E-002   -0.92967587709426880
   5.6300000000000017E-002   -0.99701684713363647
   5.7400000000000007E-002    -1.0749005079269409
   5.8499999999999996E-002    -1.1659594774246216
   5.9599999999999986E-002    -1.2635897397994995
   6.0700000000000032E-002    -1.3573403358459473
   6.1800000000000022E-002    -1.4425930976867676
   6.2900000000000011E-002    -1.5257867574691772
   6.4000000000000001E-002    -1.6204692125320435
   6.5099999999999991E-002    -1.7372726202011108
   6.6199999999999981E-002    -1.8765095472335815
   6.7300000000000026E-002    -2.0287747383117676
   6.8400000000000016E-002    -2.1816148757934570
   6.9500000000000006E-002    -2.3268792629241943
   7.0599999999999996E-002    -2.4637780189514160
   7.1699999999999986E-002    -2.5983793735504150
   7.2800000000000031E-002    -2.7415332794189453
   7.3900000000000021E-002    -2.9060032367706299
   7.5000000000000011E-002    -3.1017577648162842
   7.6100000000000001E-002    -3.3297827243804932
   7.7199999999999991E-002    -3.5789384841918945
   7.8299999999999981E-002    -3.8305740356445312
   7.9400000000000026E-002    -4.0705986022949219
   8.0500000000000016E-002    -4.3002581596374512
   8.1600000000000006E-002    -4.5358896255493164
   8.2699999999999996E-002    -4.7956614494323730
   8.3799999999999986E-002    -5.0844535827636719
   8.4900000000000031E-002    -5.3905868530273438
   8.6000000000000021E-002    -5.6997361183166504
   8.7100000000000011E-002    -6.0120506286621094
   8.8200000000000001E-002    -6.3462281227111816
   8.9299999999999990E-002    -6.7233004570007324
   9.0399999999999980E-002    -7.1441254615783691
   9.1500000000000026E-002    -7.5827784538269043
   9.2600000000000016E-002    -8.0057611465454102
   9.3700000000000006E-002    -8.4016561508178711
   9.4799999999999995E-002    -8.7958927154541016
   9.5899999999999985E-002    -9.2336673736572266
   9.7000000000000031E-002    -9.7450189590454102
   9.8100000000000021E-002    -10.320581436157227
   9.9200000000000010E-002    -10.919937133789062
  0.10030000000000000         -11.502781867980957
  0.10139999999999999         -12.058487892150879
  0.10249999999999998         -12.607709884643555
  0.10360000000000003         -13.181994438171387
  0.10470000000000002         -13.799839973449707
  0.10580000000000001         -14.463376045227051
  0.10690000000000000         -15.169178962707520
  0.10799999999999998         -15.918922424316406
  0.10910000000000003         -16.712867736816406
  0.11020000000000002         -17.538061141967773
  0.11130000000000001         -18.366884231567383
  0.11240000000000000         -19.177434921264648
  0.11349999999999999         -19.976545333862305
  0.11460000000000004         -20.802299499511719
  0.11570000000000003         -21.695827484130859
  0.11680000000000001         -22.666547775268555
  0.11790000000000000         -23.684047698974609
  0.11899999999999999         -24.705177307128906
  0.12009999999999998         -25.715272903442383
  0.12120000000000003         -26.739088058471680
  0.12230000000000002         -27.813505172729492
  0.12340000000000001         -28.948423385620117
  0.12450000000000000         -30.114158630371094
  0.12559999999999999         -31.273923873901367
  0.12670000000000003         -32.425220489501953
  0.12780000000000002         -33.611305236816406
  0.12890000000000001         -34.881389617919922
  0.13000000000000000         -36.243118286132812
  0.13109999999999999         -37.647064208984375
  0.13219999999999998         -39.031383514404297
  0.13330000000000003         -40.375690460205078
  0.13440000000000002         -41.717372894287109
  0.13550000000000001         -43.116485595703125
  0.13660000000000000         -44.597263336181641
  0.13769999999999999         -46.126266479492188
  0.13880000000000003         -47.652320861816406
  0.13990000000000002         -49.162029266357422
  0.14100000000000001         -50.696079254150391
  0.14210000000000000         -52.308265686035156
  0.14319999999999999         -54.004280090332031
  0.14429999999999998         -55.727783203125000
  0.14540000000000003         -57.411212921142578
  0.14650000000000002         -59.040405273437500
  0.14760000000000001         -60.675857543945312
  0.14870000000000000         -62.391918182373047
  0.14979999999999999         -64.207733154296875
  0.15090000000000003         -66.065025329589844
  0.15200000000000002         -67.886367797851562
  0.15310000000000001         -69.653594970703125
  0.15420000000000000         -71.420333862304688
  0.15529999999999999         -73.263809204101562
  0.15639999999999998         -75.193664550781250
  0.15750000000000003         -77.140830993652344
  0.15860000000000002         -79.021080017089844
  0.15970000000000001         -80.822471618652344
  0.16080000000000000         -82.619316101074219
  0.16189999999999999         -84.501350402832031
  0.16300000000000003         -86.490844726562500
  0.16410000000000002         -88.509071350097656
  0.16520000000000001         -90.458686828613281
  0.16630000000000000         -92.317451477050781
  0.16739999999999999         -94.153686523437500
  0.16850000000000004         -96.056343078613281
  0.16960000000000003         -98.033645629882812
  0.17070000000000002         -100.00813293457031
  0.17180000000000001         -101.88469696044922
  0.17290000000000000         -103.65677642822266
  0.17399999999999999         -105.41280364990234
  0.17510000000000003         -107.25212860107422
  0.17620000000000002         -109.18146514892578
  0.17730000000000001         -111.09992980957031
  0.17840000000000000         -112.89555358886719
  0.17949999999999999         -114.55728149414062
  0.18060000000000004         -116.18536376953125
  0.18170000000000003         -117.88767242431641
  0.18280000000000002         -119.67132568359375
  0.18390000000000001         -121.43397521972656
  0.18500000000000000         -123.05107116699219
  0.18609999999999999         -124.51328277587891
  0.18720000000000003         -125.92018127441406
  0.18830000000000002         -127.38883209228516
  0.18940000000000001         -128.92936706542969
  0.19050000000000000         -130.43737792968750
  0.19159999999999999         -131.80363464355469
  0.19270000000000004         -133.01597595214844
  0.19380000000000003         -134.16447448730469
  0.19490000000000002         -135.36430358886719
  0.19600000000000001         -136.60710144042969
  0.19710000000000000         -137.77665710449219
  0.19819999999999999         -138.76203918457031
  0.19930000000000003         -139.56669616699219
  0.20040000000000002         -140.31523132324219
  0.20150000000000001         -141.13836669921875
  0.20260000000000000         -142.03552246093750
  0.20369999999999999         -142.87339782714844
  0.20480000000000004         -143.51567077636719
  0.20590000000000003         -143.94018554687500
  0.20700000000000002         -144.26254272460938
  0.20810000000000001         -144.61302185058594
  0.20920000000000000         -145.00634765625000
  0.21029999999999999         -145.32957458496094
  0.21140000000000003         -145.45616149902344
  0.21250000000000002         -145.39170837402344
  0.21360000000000001         -145.25234985351562
  0.21470000000000000         -145.16578674316406
  0.21579999999999999         -145.12539672851562
  0.21690000000000004         -144.99623107910156
  0.21800000000000003         -144.63960266113281
  0.21910000000000002         -144.05700683593750
  0.22020000000000001         -143.37586975097656
  0.22130000000000000         -142.73477172851562
  0.22239999999999999         -142.15530395507812
  0.22350000000000003         -141.50621032714844
  0.22460000000000002         -140.65730285644531
  0.22570000000000001         -139.60365295410156
  0.22680000000000000         -138.46546936035156
  0.22789999999999999         -137.36006164550781
  0.22900000000000004         -136.28326416015625
  0.23010000000000003         -135.10597229003906
  0.23120000000000002         -133.72129821777344
  0.23230000000000001         -132.14926147460938
  0.23340000000000000         -130.53031921386719
  0.23450000000000004         -128.98284912109375
  0.23560000000000003         -127.49349975585938
  0.23670000000000002         -125.91600036621094
  0.23780000000000001         -124.12707519531250
  0.23890000000000000         -122.14070892333984
  0.23999999999999999         -120.10142517089844
  0.24110000000000004         -118.13937377929688
  0.24220000000000003         -116.25946044921875
  0.24330000000000002         -114.33762359619141
  0.24440000000000001         -112.25382995605469
  0.24550000000000000         -110.00680541992188
  0.24660000000000004         -107.70391082763672
  0.24770000000000003         -105.45516204833984
  0.24880000000000002         -103.27290344238281
  0.24990000000000001         -101.06565093994141
  0.25100000000000000         -98.741455078125000
  0.25209999999999999         -96.304969787597656
  0.25320000000000004         -93.858543395996094
  0.25430000000000003         -91.492111206054688
  0.25540000000000002         -89.203155517578125
  0.25650000000000001         -86.906333923339844
  0.25760000000000000         -84.521118164062500
  0.25870000000000004         -82.053016662597656
  0.25980000000000003         -79.590507507324219
  0.26090000000000002         -77.217140197753906
  0.26200000000000001         -74.939659118652344
  0.26310000000000000         -72.682746887207031
  0.26419999999999999         -70.382003784179688
  0.26530000000000004         -68.036193847656250
  0.26640000000000003         -65.715370178222656
  0.26750000000000002         -63.493270874023438
  0.26860000000000001         -61.369697570800781
  0.26970000000000000         -59.283172607421875
  0.27080000000000004         -57.184375762939453
  0.27190000000000003         -55.077621459960938
  0.27300000000000002         -53.032630920410156
  0.27410000000000001         -51.102825164794922
  0.27520000000000000         -49.284732818603516
  0.27629999999999999         -47.519931793212891
  0.27740000000000004         -45.756149291992188
  0.27850000000000003         -43.996448516845703
  0.27960000000000002         -42.304920196533203
  0.28070000000000001         -40.746353149414062
  0.28179999999999999         -39.328636169433594
  0.28290000000000004         -38.006568908691406
  0.28400000000000003         -36.712909698486328
  0.28510000000000002         -35.420631408691406
  0.28620000000000001         -34.170345306396484
  0.28730000000000000         -33.026695251464844
  0.28840000000000005         -32.019485473632812
  0.28950000000000004         -31.135917663574219
  0.29060000000000002         -30.318344116210938
  0.29170000000000001         -29.528459548950195
  0.29280000000000000         -28.769851684570312
  0.29389999999999999         -28.094675064086914
  0.29500000000000004         -27.543445587158203
  0.29610000000000003         -27.118007659912109
  0.29720000000000002         -26.778392791748047
  0.29830000000000001         -26.472360610961914
  0.29940000000000000         -26.191005706787109
  0.30050000000000004         -25.969507217407227
  0.30160000000000003         -25.857223510742188
  0.30270000000000002         -25.876255035400391
  0.30380000000000001         -25.993019104003906
  0.30490000000000000         -26.149381637573242
  0.30599999999999999         -26.309858322143555
  0.30709999999999998         -26.493661880493164
  0.30819999999999997         -26.752487182617188
  0.30930000000000007         -27.121015548706055
  0.31040000000000006         -27.569967269897461
  0.31150000000000005         -28.044519424438477
  0.31260000000000004         -28.512317657470703
  0.31370000000000003         -29.008232116699219
  0.31480000000000002         -29.591260910034180
  0.31590000000000001         -30.291118621826172
  0.31700000000000000         -31.058504104614258
  0.31809999999999999         -31.810972213745117
  0.31919999999999998         -32.503276824951172
  0.32029999999999997         -33.176242828369141
  0.32140000000000007         -33.919319152832031
  0.32250000000000006         -34.781490325927734
  0.32360000000000005         -35.731208801269531
  0.32470000000000004         -36.677242279052734
  0.32580000000000003         -37.553718566894531
  0.32690000000000002         -38.373535156250000
  0.32800000000000001         -39.208694458007812
  0.32910000000000000         -40.118141174316406
  0.33019999999999999         -41.091430664062500
  0.33129999999999998         -42.058029174804688
  0.33239999999999997         -42.957836151123047
  0.33350000000000007         -43.812213897705078
  0.33460000000000006         -44.682121276855469
  0.33570000000000005         -45.607280731201172
  0.33680000000000004         -46.558105468750000
  0.33790000000000003         -47.465892791748047
  0.33900000000000002         -48.297737121582031
  0.34010000000000001         -49.097782135009766
  0.34120000000000000         -49.934234619140625
  0.34229999999999999         -50.833976745605469
  0.34339999999999998         -51.730655670166016
  0.34449999999999997         -52.529163360595703
  0.34560000000000007         -53.206611633300781
  0.34670000000000006         -53.841396331787109
  0.34780000000000005         -54.535850524902344
  0.34890000000000004         -55.317356109619141
