 -0.20000000000000001          0.0000000000000000
 -0.19890000000000002          0.0000000000000000
 -0.19780000000000000          0.0000000000000000
 -0.19670000000000001          0.0000000000000000
 -0.19560000000000002          0.0000000000000000
 -0.19450000000000001          0.0000000000000000
 -0.19340000000000002          4.2503205591747381E-020
 -0.19230000000000000          2.2246872648129065E-019
 -0.19120000000000001          2.8180223672338817E-019
 -0.19010000000000002         -1.1206997592555221E-018
 -0.18900000000000000         -5.5720614869052041E-018
 -0.18790000000000001         -1.0417064302601173E-017
 -0.18680000000000002         -4.2300353892941504E-018
 -0.18570000000000000          2.6495427163767828E-017
 -0.18460000000000001          7.3801034399644764E-017
 -0.18350000000000000          8.8550862478994899E-017
 -0.18240000000000001          6.0627098711024830E-018
 -0.18130000000000002         -1.7275948996321348E-016
 -0.18020000000000000         -3.1862772202414355E-016
 -0.17910000000000001         -2.4662870389767591E-016
 -0.17800000000000002          6.8043711752470638E-017
 -0.17690000000000000          3.4541169790967565E-016
 -0.17580000000000001          2.1395246242847345E-016
 -0.17470000000000002         -2.5011593854158073E-016
 -0.17360000000000000         -2.3093781559646701E-016
 -0.17250000000000001          1.1775746376679685E-015
 -0.17140000000000000          3.5077599462239958E-015
 -0.17030000000000001          4.0790303060712836E-015
 -0.16920000000000002         -4.4452119665321546E-016
 -0.16810000000000000         -1.0149967854861235E-014
 -0.16700000000000001         -1.8769274329200257E-014
 -0.16589999999999999         -1.5795946432914480E-014
 -0.16480000000000000          5.0019091245219032E-015
 -0.16370000000000001          3.6100581481428540E-014
 -0.16260000000000002          5.5397933419396167E-014
 -0.16150000000000000          3.9526091140340740E-014
 -0.16040000000000001         -1.5196052288682552E-014
 -0.15930000000000000         -8.1195893921178058E-014
 -0.15820000000000001         -1.1202386132440452E-013
 -0.15710000000000002         -7.5393237117768475E-014
 -0.15600000000000000          1.6987962347062504E-014
 -0.15490000000000001          1.1042375510067362E-013
 -0.15379999999999999          1.4499142717613686E-013
 -0.15270000000000000          1.0311111637911599E-013
 -0.15160000000000001          2.5218894897715969E-014
 -0.15050000000000002         -2.6058226621424335E-014
 -0.14940000000000001         -2.6961180683859295E-014
 -0.14830000000000002         -2.2591402083478509E-014
 -0.14720000000000000         -8.8313586315860792E-014
 -0.14610000000000001         -2.4502131551994332E-013
 -0.14500000000000002         -4.0241115019205217E-013
 -0.14390000000000000         -3.9598765889588115E-013
 -0.14280000000000001         -1.1039118160162513E-013
 -0.14169999999999999          4.0026104175877427E-013
 -0.14060000000000000          9.0079950876983244E-013
 -0.13950000000000001          1.1030331379183240E-012
 -0.13840000000000002          8.5140499251482956E-013
 -0.13730000000000001          2.2820279194954257E-013
 -0.13619999999999999         -5.0443720381327144E-013
 -0.13510000000000000         -1.0804394488459476E-012
 -0.13400000000000001         -1.3830454793570516E-012
 -0.13290000000000002         -1.4556169854531930E-012
 -0.13180000000000000         -1.3727533649739915E-012
 -0.13070000000000001         -1.0951091379204029E-012
 -0.12959999999999999         -4.4524296359183208E-013
 -0.12850000000000000          7.6420478018622660E-013
 -0.12740000000000001          2.5533789492493295E-012
 -0.12630000000000002          4.6993390082072322E-012
 -0.12520000000000001          6.8310027773187588E-012
 -0.12410000000000000          8.6266991813909189E-012
 -0.12300000000000001          9.9679309945031991E-012
 -0.12190000000000001          1.0945571705944625E-011
 -0.12080000000000000          1.1735450285154989E-011
 -0.11970000000000000          1.2456320697129249E-011
 -0.11860000000000001          1.3122538645992879E-011
 -0.11750000000000001          1.3719190714022935E-011
 -0.11640000000000000          1.4333233384899706E-011
 -0.11530000000000000          1.5237056408268007E-011
 -0.11420000000000001          1.6853312148623477E-011
 -0.11310000000000001          1.9599101855338629E-011
 -0.11200000000000000          2.3674621291158537E-011
 -0.11090000000000001          2.8902344059722166E-011
 -0.10980000000000001          3.4721753250365833E-011
 -0.10870000000000000          4.0386298472138620E-011
 -0.10760000000000000          4.5299486384208543E-011
 -0.10650000000000001          4.9319714978678600E-011
 -0.10540000000000001          5.2845929021660002E-011
 -0.10430000000000000          5.6615878651910055E-011
 -0.10320000000000000          6.1345505064646100E-011
 -0.10210000000000001          6.7460148578389823E-011
 -0.10100000000000001          7.5095367424447994E-011
  -9.9900000000000003E-002     8.4313445114502059E-011
  -9.8799999999999999E-002     9.5284051482290317E-011
  -9.7700000000000009E-002     1.0820679074985260E-010
  -9.6600000000000005E-002     1.2301061558250668E-010
  -9.5500000000000002E-002     1.3912949958782920E-010
  -9.4400000000000012E-002     1.5566142819167559E-010
  -9.3300000000000008E-002     1.7191746637390263E-010
  -9.2200000000000004E-002     1.8799865830753899E-010
  -9.1100000000000000E-002     2.0494066166331852E-010
  -9.0000000000000011E-002     2.2426414891807031E-010
  -8.8900000000000007E-002     2.4723470493092789E-010
  -8.7800000000000003E-002     2.7436894423082513E-010
  -8.6699999999999999E-002     3.0550939555950647E-010
  -8.5600000000000009E-002     3.4031402695866063E-010
  -8.4500000000000006E-002     3.7868511104654482E-010
  -8.3400000000000002E-002     4.2077996642574863E-010
  -8.2299999999999998E-002     4.6667897324325467E-010
  -8.1200000000000008E-002     5.1612236706687657E-010
  -8.0100000000000005E-002     5.6865584463493757E-010
  -7.9000000000000001E-002     6.2412242041175566E-010
  -7.7899999999999997E-002     6.8309080614169519E-010
  -7.6800000000000007E-002     7.4684736173223820E-010
  -7.5700000000000003E-002     8.1695161746607544E-010
  -7.4600000000000000E-002     8.9470875153095624E-010
  -7.3500000000000010E-002     9.8092822753413491E-010
  -7.2399999999999992E-002     1.0760409230314680E-009
  -7.1300000000000002E-002     1.1803517052655180E-009
  -7.0200000000000012E-002     1.2941886451400612E-009
  -6.9099999999999995E-002     1.4179278862158414E-009
  -6.8000000000000005E-002     1.5520527085754772E-009
  -6.6900000000000015E-002     1.6973263905483988E-009
  -6.5799999999999997E-002     1.8549346503249060E-009
  -6.4700000000000008E-002     2.0263708488954208E-009
  -6.3599999999999990E-002     2.2130450805235217E-009
  -6.2500000000000000E-002     2.4159136913226191E-009
  -6.1400000000000010E-002     2.6354878279732508E-009
  -6.0299999999999992E-002     2.8722784151113497E-009
  -5.9200000000000003E-002     3.1273175160606065E-009
  -5.8100000000000013E-002     3.4023028838702794E-009
  -5.6999999999999995E-002     3.6992628960063571E-009
  -5.5900000000000005E-002     4.0201104667402705E-009
  -5.4800000000000015E-002     4.3665608906450622E-009
  -5.3699999999999998E-002     4.7404915548553766E-009
  -5.2600000000000008E-002     5.1443196369404259E-009
  -5.1499999999999990E-002     5.5808735410777452E-009
  -5.0400000000000000E-002     6.0527201029002687E-009
  -4.9300000000000010E-002     6.5615202160528348E-009
  -4.8199999999999993E-002     7.1080803465405320E-009
  -4.7100000000000003E-002     7.6932051840116070E-009
  -4.6000000000000013E-002     8.3187225996538042E-009
  -4.4899999999999995E-002     8.9878495757032776E-009
  -4.3800000000000006E-002     9.7046326530401793E-009
  -4.2699999999999988E-002     1.0473016232026398E-008
  -4.1599999999999998E-002     1.1296388713333090E-008
  -4.0500000000000008E-002     1.2177924446632263E-008
  -3.9399999999999991E-002     1.3121246311697874E-008
  -3.8300000000000001E-002     1.4130622005836584E-008
  -3.7200000000000011E-002     1.5210416037802798E-008
  -3.6099999999999993E-002     1.6364339217034020E-008
  -3.5000000000000003E-002     1.7595306545103713E-008
  -3.3900000000000013E-002     1.8906195720091693E-008
  -3.2799999999999996E-002     2.0300907621617298E-008
  -3.1700000000000006E-002     2.1784817505476540E-008
  -3.0599999999999988E-002     2.3364213674880904E-008
  -2.9499999999999998E-002     2.5045258311706271E-008
  -2.8400000000000009E-002     2.6833330224462334E-008
  -2.7299999999999991E-002     2.8733238011113360E-008
  -2.6200000000000001E-002     3.0749866652967698E-008
  -2.5100000000000011E-002     3.2888543444186705E-008
  -2.3999999999999994E-002     3.5154798183611432E-008
  -2.2900000000000004E-002     3.7553959941760086E-008
  -2.1800000000000014E-002     4.0091219233317394E-008
  -2.0699999999999996E-002     4.2772335007156686E-008
  -1.9600000000000006E-002     4.5604423348776611E-008
  -1.8499999999999989E-002     4.8596003665578914E-008
  -1.7399999999999999E-002     5.1756231300713870E-008
  -1.6300000000000009E-002     5.5093824613549262E-008
  -1.5199999999999991E-002     5.8616542730759604E-008
  -1.4100000000000001E-002     6.2331473316134056E-008
  -1.3000000000000012E-002     6.6245611662906250E-008
  -1.1899999999999994E-002     7.0366070303861065E-008
  -1.0800000000000004E-002     7.4699833874091061E-008
  -9.6999999999999864E-003     7.9253531737320881E-008
  -8.5999999999999965E-003     8.4033800362702551E-008
  -7.5000000000000067E-003     8.9048107554388843E-008
  -6.3999999999999890E-003     9.4305349307431513E-008
  -5.2999999999999992E-003     9.9815544274404779E-008
  -4.2000000000000093E-003     1.0558886742728473E-007
  -3.0999999999999917E-003     1.1163466950847395E-007
  -2.0000000000000018E-003     1.1796140597652799E-007
  -9.0000000000001190E-004     1.2457721254577133E-007
   2.0000000000000573E-004     1.3149060862360567E-007
   1.2999999999999956E-003     1.3871039072909980E-007
   2.4000000000000132E-003     1.4624505695337332E-007
   3.5000000000000031E-003     1.5410239484481027E-007
   4.5999999999999930E-003     1.6228977983700778E-007
   5.7000000000000106E-003     1.7081501368920446E-007
   6.8000000000000005E-003     1.7968685028790491E-007
   7.8999999999999904E-003     1.8891466879722117E-007
   9.0000000000000080E-003     1.9850735100135024E-007
   1.0099999999999998E-002     2.0847255655098362E-007
   1.1199999999999988E-002     2.1881683665014499E-007
   1.2300000000000005E-002     2.2954647249661849E-007
   1.3399999999999995E-002     2.4066810055955615E-007
   1.4500000000000013E-002     2.5218878363375139E-007
   1.5600000000000003E-002     2.6411504450151845E-007
   1.6699999999999993E-002     2.7645245381790568E-007
   1.7800000000000010E-002     2.8920578643009749E-007
   1.8900000000000000E-002     3.0237967507673099E-007
   1.9999999999999990E-002     3.1597915040037536E-007
   2.1100000000000008E-002     3.3000944199556575E-007
   2.2199999999999998E-002     3.4447515417922997E-007
   2.3300000000000015E-002     3.5937981124333730E-007
   2.4400000000000005E-002     3.7472594272002710E-007
   2.5499999999999995E-002     3.9051550970725006E-007
   2.6600000000000013E-002     4.0675035961611916E-007
   2.7700000000000002E-002     4.2343182826697763E-007
   2.8799999999999992E-002     4.4056028514204795E-007
   2.9900000000000010E-002     4.5813490601175687E-007
   3.1000000000000000E-002     4.7615384346499129E-007
   3.2099999999999990E-002     4.9461465323474014E-007
   3.3200000000000007E-002     5.1351452157176988E-007
   3.4299999999999997E-002     5.3284992418411113E-007
   3.5400000000000015E-002     5.5261642728509265E-007
   3.6500000000000005E-002     5.7280885812359840E-007
   3.7599999999999995E-002     5.9342158920116077E-007
   3.8700000000000012E-002     6.1444899301931272E-007
   3.9800000000000002E-002     6.3588510101907399E-007
   4.0899999999999992E-002     6.5772297830334335E-007
   4.2000000000000010E-002     6.7995432573296732E-007
   4.3099999999999999E-002     7.0256942308332061E-007
   4.4200000000000017E-002     7.2555752694823832E-007
   4.5300000000000007E-002     7.4890692758343552E-007
   4.6399999999999997E-002     7.7260489206308710E-007
   4.7500000000000014E-002     7.9663755059299112E-007
   4.8600000000000004E-002     8.2098978282373059E-007
   4.9699999999999994E-002     8.4564601365853778E-007
   5.0800000000000012E-002     8.7059078168748232E-007
   5.1900000000000002E-002     8.9580896656114724E-007
   5.2999999999999992E-002     9.2128482265250831E-007
   5.4099999999999981E-002     9.4700146746616376E-007
   5.5200000000000027E-002     9.7294048373440259E-007
   5.6300000000000017E-002     9.9908254469481233E-007
   5.7400000000000007E-002     1.0254076414639539E-006
   5.8499999999999996E-002     1.0518951967241996E-006
   5.9599999999999986E-002     1.0785238373500579E-006
   6.0700000000000032E-002     1.1052711670344973E-006
   6.1800000000000022E-002     1.1321137662889476E-006
   6.2900000000000011E-002     1.1590284429985134E-006
   6.4000000000000001E-002     1.1859923461088125E-006
   6.5099999999999991E-002     1.2129833066864898E-006
   6.6199999999999981E-002     1.2399785873640003E-006
   6.7300000000000026E-002     1.2669547686527735E-006
   6.8400000000000016E-002     1.2938871805090239E-006
   6.9500000000000006E-002     1.3207511528889657E-006
   7.0599999999999996E-002     1.3475219020619760E-006
   7.1699999999999986E-002     1.3741748716711067E-006
   7.2800000000000031E-002     1.4006844821778702E-006
   7.3900000000000021E-002     1.4270244719227532E-006
   7.5000000000000011E-002     1.4531680108120531E-006
   7.6100000000000001E-002     1.4790891782467700E-006
   7.7199999999999991E-002     1.5047631904962798E-006
   7.8299999999999981E-002     1.5301661733246611E-006
   7.9400000000000026E-002     1.5552743661828307E-006
   8.0500000000000016E-002     1.5800642358953793E-006
   8.1600000000000006E-002     1.6045125903474125E-006
   8.2699999999999996E-002     1.6285969195450609E-006
   8.3799999999999986E-002     1.6522958503628332E-006
   8.4900000000000031E-002     1.6755882370489129E-006
   8.6000000000000021E-002     1.6984521380436198E-006
   8.7100000000000011E-002     1.7208651570399230E-006
   8.8200000000000001E-002     1.7428054661649796E-006
   8.9299999999999990E-002     1.7642528291616754E-006
   9.0399999999999980E-002     1.7851886013886237E-006
   9.1500000000000026E-002     1.8055952750728154E-006
   9.2600000000000016E-002     1.8254559108754304E-006
   9.3700000000000006E-002     1.8447536831444859E-006
   9.4799999999999995E-002     1.8634733578437270E-006
   9.5899999999999985E-002     1.8816016336131398E-006
   9.7000000000000031E-002     1.8991271417689531E-006
   9.8100000000000021E-002     1.9160388546879073E-006
   9.9200000000000010E-002     1.9323254036862301E-006
  0.10030000000000000          1.9479750790196365E-006
  0.10139999999999999          1.9629771941253809E-006
  0.10249999999999998          1.9773233361774712E-006
  0.10360000000000003          1.9910073660866713E-006
  0.10470000000000002          2.0040238268847700E-006
  0.10580000000000001          2.0163681710982577E-006
  0.10690000000000000          2.0280363060009780E-006
  0.10799999999999998          2.0390264126035262E-006
  0.10910000000000003          2.0493389456532540E-006
  0.11020000000000002          2.0589761788869154E-006
  0.11130000000000001          2.0679415229096416E-006
  0.11240000000000000          2.0762370240845120E-006
  0.11349999999999999          2.0838649561482820E-006
  0.11460000000000004          2.0908278202113797E-006
  0.11570000000000003          2.0971303911209902E-006
  0.11680000000000001          2.1027790353400269E-006
  0.11790000000000000          2.1077814835734534E-006
  0.11899999999999999          2.1121454665262354E-006
  0.12009999999999998          2.1158796243980391E-006
  0.12120000000000003          2.1189953258726377E-006
  0.12230000000000002          2.1215055312495310E-006
  0.12340000000000001          2.1234247924439469E-006
  0.12450000000000000          2.1247674339974392E-006
  0.12559999999999999          2.1255470983305340E-006
  0.12670000000000003          2.1257774278637580E-006
  0.12780000000000002          2.1254729745123396E-006
  0.12890000000000001          2.1246503365545859E-006
  0.13000000000000000          2.1233256575214537E-006
  0.13109999999999999          2.1215153083175747E-006
  0.13219999999999998          2.1192349777265545E-006
  0.13330000000000003          2.1165012640267009E-006
  0.13440000000000002          2.1133323571120486E-006
  0.13550000000000001          2.1097484932397124E-006
  0.13660000000000000          2.1057694539194554E-006
  0.13769999999999999          2.1014143385400161E-006
  0.13880000000000003          2.0967017917427797E-006
  0.13990000000000002          2.0916504581691333E-006
  0.14100000000000001          2.0862798919551642E-006
  0.14210000000000000          2.0806105567316626E-006
  0.14319999999999999          2.0746624613820677E-006
  0.14429999999999998          2.0684542505477661E-006
  0.14540000000000003          2.0620029772544153E-006
  0.14650000000000002          2.0553266040223756E-006
  0.14760000000000001          2.0484440028667090E-006
  0.14870000000000000          2.0413754100445298E-006
  0.14979999999999999          2.0341401523182511E-006
  0.15090000000000003          2.0267566469555831E-006
  0.15200000000000002          2.0192417196085092E-006
  0.15310000000000001          2.0116124233026874E-006
  0.15420000000000000          2.0038862658111256E-006
  0.15529999999999999          1.9960803001594844E-006
  0.15639999999999998          1.9882106698787191E-006
  0.15750000000000003          1.9802919268840577E-006
  0.15860000000000002          1.9723374862223516E-006
  0.15970000000000001          1.9643603081931017E-006
  0.16080000000000000          1.9563747173378599E-006
  0.16189999999999999          1.9483948108245043E-006
  0.16300000000000003          1.9404335489525349E-006
  0.16410000000000002          1.9325027551530754E-006
  0.16520000000000001          1.9246135707362220E-006
  0.16630000000000000          1.9167771370120710E-006
  0.16739999999999999          1.9090055047854210E-006
  0.16850000000000004          1.9013095879926943E-006
  0.16960000000000003          1.8936988226414209E-006
  0.17070000000000002          1.8861807120628905E-006
  0.17180000000000001          1.8787617364068537E-006
  0.17290000000000000          1.8714489442572484E-006
  0.17399999999999999          1.8642498389453648E-006
  0.17510000000000003          1.8571710143077911E-006
  0.17620000000000002          1.8502176999390616E-006
  0.17730000000000001          1.8433937611916593E-006
  0.17840000000000000          1.8367030634180668E-006
  0.17949999999999999          1.8301501540917933E-006
  0.18060000000000004          1.8237403764942108E-006
  0.18170000000000003          1.8174780507251533E-006
  0.18280000000000002          1.8113653368345377E-006
  0.18390000000000001          1.8054026895697144E-006
  0.18500000000000000          1.7995902226175213E-006
  0.18609999999999999          1.7939291865331739E-006
  0.18720000000000003          1.7884214003060747E-006
  0.18830000000000002          1.7830681144914395E-006
  0.18940000000000001          1.7778687606550793E-006
  0.19050000000000000          1.7728211787470771E-006
  0.19159999999999999          1.7679240045253810E-006
  0.19270000000000004          1.7631766695558017E-006
  0.19380000000000003          1.7585790601515018E-006
  0.19490000000000002          1.7541307215651307E-006
  0.19600000000000001          1.7498296074336090E-006
  0.19710000000000000          1.7456725345254804E-006
  0.19819999999999999          1.7416568880434774E-006
  0.19930000000000003          1.7377810763718721E-006
  0.20040000000000002          1.7340433942080987E-006
  0.20150000000000001          1.7304414541285648E-006
  0.20260000000000000          1.7269709360334370E-006
  0.20369999999999999          1.7236268377018557E-006
  0.20480000000000004          1.7204046116603121E-006
  0.20590000000000003          1.7173014157378629E-006
  0.20700000000000002          1.7143148625109160E-006
  0.20810000000000001          1.7114417687480154E-006
  0.20920000000000000          1.7086781554098408E-006
  0.21029999999999999          1.7060198160833963E-006
  0.21140000000000003          1.7034633401635505E-006
  0.21250000000000002          1.7010067949740618E-006
  0.21360000000000001          1.6986480204650137E-006
  0.21470000000000000          1.6963836060312744E-006
  0.21579999999999999          1.6942085494519846E-006
  0.21690000000000004          1.6921177348194464E-006
  0.21800000000000003          1.6901067283469889E-006
  0.21910000000000002          1.6881723468031556E-006
  0.22020000000000001          1.6863119753906791E-006
  0.22130000000000000          1.6845223171912654E-006
  0.22239999999999999          1.6827992794787566E-006
  0.22350000000000003          1.6811392242743456E-006
  0.22460000000000002          1.6795396504676027E-006
  0.22570000000000001          1.6779991938164748E-006
  0.22680000000000000          1.6765159216447208E-006
  0.22789999999999999          1.6750867644077226E-006
  0.22900000000000004          1.6737074020056462E-006
  0.23010000000000003          1.6723738553991715E-006
  0.23120000000000002          1.6710830550436800E-006
  0.23230000000000001          1.6698327272024179E-006
  0.23340000000000000          1.6686208255123055E-006
  0.23450000000000004          1.6674443941155622E-006
  0.23560000000000003          1.6663004771544073E-006
  0.23670000000000002          1.6651871419525995E-006
  0.23780000000000001          1.6641038200759504E-006
  0.23890000000000000          1.6630507388981351E-006
  0.23999999999999999          1.6620272162981274E-006
  0.24110000000000004          1.6610312059128483E-006
  0.24220000000000003          1.6600595245108417E-006
  0.24330000000000002          1.6591096709816778E-006
  0.24440000000000001          1.6581800537096281E-006
  0.24550000000000000          1.6572698768868289E-006
  0.24660000000000004          1.6563777762712274E-006
  0.24770000000000003          1.6555014781260689E-006
  0.24880000000000002          1.6546384813409241E-006
  0.24990000000000001          1.6537875353605781E-006
  0.25100000000000000          1.6529494359928943E-006
  0.25209999999999999          1.6521256611667635E-006
  0.25320000000000004          1.6513171203768873E-006
  0.25430000000000003          1.6505236999364282E-006
  0.25540000000000002          1.6497440356033331E-006
  0.25650000000000001          1.6489772178829010E-006
  0.25760000000000000          1.6482231330882936E-006
  0.25870000000000004          1.6474816675326732E-006
  0.25980000000000003          1.6467527075292022E-006
  0.26090000000000002          1.6460351162095033E-006
  0.26200000000000001          1.6453279840788749E-006
  0.26310000000000000          1.6446313111373168E-006
  0.26419999999999999          1.6439466890005572E-006
  0.26530000000000004          1.6432762777185131E-006
  0.26640000000000003          1.6426216689069120E-006
  0.26750000000000002          1.6419836583736183E-006
  0.26860000000000001          1.6413621324317942E-006
  0.26970000000000000          1.6407577732024661E-006
  0.27080000000000004          1.6401711491198224E-006
  0.27190000000000003          1.6396030559917275E-006
  0.27300000000000002          1.6390538348786943E-006
  0.27410000000000001          1.6385237131543984E-006
  0.27520000000000000          1.6380137140003795E-006
  0.27629999999999999          1.6375256564060406E-006
  0.27740000000000004          1.6370623825423250E-006
  0.27850000000000003          1.6366262798328249E-006
  0.27960000000000002          1.6362198493879701E-006
  0.28070000000000001          1.6358447965103265E-006
  0.28179999999999999          1.6355032812498108E-006
  0.28290000000000004          1.6351974636563396E-006
  0.28400000000000003          1.6349297311535052E-006
  0.28510000000000002          1.6347013342965225E-006
  0.28620000000000001          1.6345128415195800E-006
  0.28730000000000000          1.6343647075700288E-006
  0.28840000000000005          1.6342582966899213E-006
  0.28950000000000004          1.6341964510502008E-006
  0.29060000000000002          1.6341828086296742E-006
  0.29170000000000001          1.6342208937203109E-006
  0.29280000000000000          1.6343137758667295E-006
  0.29389999999999999          1.6344639561793597E-006
  0.29500000000000004          1.6346746178896579E-006
  0.29610000000000003          1.6349491716027556E-006
  0.29720000000000002          1.6352910279237845E-006
  0.29830000000000001          1.6357029153368499E-006
  0.29940000000000000          1.6361868802050308E-006
  0.30050000000000004          1.6367445141440554E-006
  0.30160000000000003          1.6373785456380288E-006
  0.30270000000000002          1.6380924989789206E-006
  0.30380000000000001          1.6388908079534018E-006
  0.30490000000000000          1.6397772242271172E-006
  0.30599999999999999          1.6407548173446854E-006
  0.30709999999999998          1.6418262021033739E-006
  0.30819999999999997          1.6429937659267749E-006
  0.30930000000000007          1.6442608057331823E-006
  0.31040000000000006          1.6456302773803771E-006
  0.31150000000000005          1.6471054777866528E-006
  0.31260000000000004          1.6486897038703033E-006
  0.31370000000000003          1.6503865936101361E-006
  0.31480000000000002          1.6522003534191468E-006
  0.31590000000000001          1.6541356444576819E-006
  0.31700000000000000          1.6561967868255748E-006
  0.31809999999999999          1.6583873048147949E-006
  0.31919999999999998          1.6607099269094475E-006
  0.32029999999999997          1.6631671542199625E-006
  0.32140000000000007          1.6657617152304450E-006
  0.32250000000000006          1.6684970205460271E-006
  0.32360000000000005          1.6713761397113272E-006
  0.32470000000000004          1.6744021422709635E-006
  0.32580000000000003          1.6775784388300677E-006
  0.32690000000000002          1.6809086673674468E-006
  0.32800000000000001          1.6843969206092593E-006
  0.32910000000000000          1.6880475186553379E-006
  0.33019999999999999          1.6918635310503017E-006
  0.33129999999999998          1.6958471178440673E-006
  0.33239999999999997          1.7000000980260380E-006
  0.33350000000000007          1.7043245179592926E-006
  0.33460000000000006          1.7088235608752878E-006
  0.33570000000000005          1.7135006373791551E-006
  0.33680000000000004          1.7183592717628636E-006
  0.33790000000000003          1.7234020788236817E-006
  0.33900000000000002          1.7286317870457136E-006
  0.34010000000000001          1.7340510112262274E-006
  0.34120000000000000          1.7396630482835174E-006
  0.34229999999999999          1.7454711951358769E-006
  0.34339999999999998          1.7514778392068987E-006
  0.34449999999999997          1.7576842310517969E-006
  0.34560000000000007          1.7640915075389495E-006
  0.34670000000000006          1.7707013739709217E-006
  0.34780000000000005          1.7775163314581444E-006
  0.34890000000000004          1.7845389947978839E-006
