 -0.20000000000000001          0.0000000000000000
 -0.19890000000000002          0.0000000000000000
 -0.19780000000000000          0.0000000000000000
 -0.19670000000000001          0.0000000000000000
 -0.19560000000000002          0.0000000000000000
 -0.19450000000000001          0.0000000000000000
 -0.19340000000000002          0.0000000000000000
 -0.19230000000000000          3.2953351651061480E-023
 -0.19120000000000001          2.6783892654558857E-022
 -0.19010000000000002          7.0121843340740843E-022
 -0.18900000000000000         -7.6549315389058464E-022
 -0.18790000000000001         -9.9359012631180352E-021
 -0.18680000000000002         -2.6102587342318634E-020
 -0.18570000000000000         -1.0470460271631894E-020
 -0.18460000000000001          1.2658995026161661E-019
 -0.18350000000000000          4.0550433144547243E-019
 -0.18240000000000001          4.8301050860683756E-019
 -0.18130000000000002         -4.7222660665977203E-019
 -0.18020000000000000         -2.9872517332380242E-018
 -0.17910000000000001         -5.3660579456131743E-018
 -0.17800000000000002         -2.5050906357227020E-018
 -0.17690000000000000          1.0773677581104076E-017
 -0.17580000000000001          3.0399043021278927E-017
 -0.17470000000000002          3.4873186853961899E-017
 -0.17360000000000000         -6.2293644306485367E-018
 -0.17250000000000001         -9.7951743670879446E-017
 -0.17140000000000000         -1.7961067625242442E-016
 -0.17030000000000001         -1.3039536209943019E-016
 -0.16920000000000002          1.3628799825991095E-016
 -0.16810000000000000          5.2587775832487220E-016
 -0.16700000000000001          7.0396230619947098E-016
 -0.16589999999999999          2.7878263044082779E-016
 -0.16480000000000000         -7.9557606628551602E-016
 -0.16370000000000001         -1.8996774249821881E-015
 -0.16260000000000002         -1.9411780159911494E-015
 -0.16150000000000000         -1.9054936561238486E-016
 -0.16040000000000001          2.7495909195318635E-015
 -0.15930000000000000          4.8037169673911112E-015
 -0.15820000000000001          3.7117868898113322E-015
 -0.15710000000000002         -8.6815567255777684E-016
 -0.15600000000000000         -6.2225500936012677E-015
 -0.15490000000000001         -8.0005184131836694E-015
 -0.15379999999999999         -3.8066617796838655E-015
 -0.15270000000000000          3.8393225230970440E-015
 -0.15160000000000001          8.4598694626773600E-015
 -0.15050000000000002          4.9813291885184973E-015
 -0.14940000000000001         -4.4352686467638049E-015
 -0.14830000000000002         -1.0049493653690664E-014
 -0.14720000000000000         -2.2042738609466235E-015
 -0.14610000000000001          1.7849476169578930E-014
 -0.14500000000000002          3.3955897447111860E-014
 -0.14390000000000000          2.4747046724121410E-014
 -0.14280000000000001         -1.7229631011305389E-014
 -0.14169999999999999         -7.1942689164935375E-014
 -0.14060000000000000         -9.8625758439014471E-014
 -0.13950000000000001         -6.3356024799284677E-014
 -0.13840000000000002          3.0742471285663542E-014
 -0.13730000000000001          1.3585902964696056E-013
 -0.13619999999999999          1.8576294474013932E-013
 -0.13510000000000000          1.4074594896669457E-013
 -0.13400000000000001          1.7976473513426662E-014
 -0.13290000000000002         -1.1817670865325869E-013
 -0.13180000000000000         -2.0074314931693704E-013
 -0.13070000000000001         -2.0515932160590500E-013
 -0.12959999999999999         -1.5785978210378082E-013
 -0.12850000000000000         -1.0126811498742394E-013
 -0.12740000000000001         -4.6499723559481621E-014
 -0.12630000000000002          4.1038349883051536E-014
 -0.12520000000000001          2.0370207257092154E-013
 -0.12410000000000000          4.2854218437748948E-013
 -0.12300000000000001          6.1495237070954833E-013
 -0.12190000000000001          6.1241268133060967E-013
 -0.12080000000000000          3.1528970515122545E-013
 -0.11970000000000000         -2.4681672721252323E-013
 -0.11860000000000001         -8.9001570870161917E-013
 -0.11750000000000001         -1.3506614446670562E-012
 -0.11640000000000000         -1.4129883244354269E-012
 -0.11530000000000000         -1.0136326457008127E-012
 -0.11420000000000001         -2.6293355513684613E-013
 -0.11310000000000001          6.2216161042516482E-013
 -0.11200000000000000          1.4240149857902562E-012
 -0.11090000000000001          2.0010174073270548E-012
 -0.10980000000000001          2.2942858550478729E-012
 -0.10870000000000000          2.2754283266618325E-012
 -0.10760000000000000          1.8874511328870192E-012
 -0.10650000000000001          1.0333382370261712E-012
 -0.10540000000000001         -3.7197710731941280E-013
 -0.10430000000000000         -2.3253191906713599E-012
 -0.10320000000000000         -4.7044321563327607E-012
 -0.10210000000000001         -7.3297045516396153E-012
 -0.10100000000000001         -1.0095801798726267E-011
  -9.9900000000000003E-002    -1.3080420427358241E-011
  -9.8799999999999999E-002    -1.6526823312656980E-011
  -9.7700000000000009E-002    -2.0671589440190985E-011
  -9.6600000000000005E-002    -2.5508635134730007E-011
  -9.5500000000000002E-002    -3.0656078370272510E-011
  -9.4400000000000012E-002    -3.5451884483617135E-011
  -9.3300000000000008E-002    -3.9258329226354860E-011
  -9.2200000000000004E-002    -4.1804427974856395E-011
  -9.1100000000000000E-002    -4.3357425288936824E-011
  -9.0000000000000011E-002    -4.4627874312697102E-011
  -8.8900000000000007E-002    -4.6494769839755534E-011
  -8.7800000000000003E-002    -4.9744826313702362E-011
  -8.6699999999999999E-002    -5.4968144619360615E-011
  -8.5600000000000009E-002    -6.2590654881233831E-011
  -8.4500000000000006E-002    -7.2897951564065977E-011
  -8.3400000000000002E-002    -8.5931810278605525E-011
  -8.2299999999999998E-002    -1.0130069005853670E-010
  -8.1200000000000008E-002    -1.1809393740680463E-010
  -8.0100000000000005E-002    -1.3508019702790364E-010
  -7.9000000000000001E-002    -1.5118641061295790E-010
  -7.7899999999999997E-002    -1.6603009245219624E-010
  -7.6800000000000007E-002    -1.8019440106709084E-010
  -7.5700000000000003E-002    -1.9506868342844541E-010
  -7.4600000000000000E-002    -2.1233642621965032E-010
  -7.3500000000000010E-002    -2.3339549737322329E-010
  -7.2399999999999992E-002    -2.5900581679394463E-010
  -7.1300000000000002E-002    -2.8929128537136251E-010
  -7.0200000000000012E-002    -3.2400360172601950E-010
  -6.9099999999999995E-002    -3.6283523408009444E-010
  -6.8000000000000005E-002    -4.0560199643380201E-010
  -6.6900000000000015E-002    -4.5225409528448779E-010
  -6.5799999999999997E-002    -5.0280729579910144E-010
  -6.4700000000000008E-002    -5.5733023751614041E-010
  -6.3599999999999990E-002    -6.1605726076052747E-010
  -6.2500000000000000E-002    -6.7957300897703021E-010
  -6.1400000000000010E-002    -7.4892009260807413E-010
  -6.0299999999999992E-002    -8.2549017621502685E-010
  -5.9200000000000003E-002    -9.1068746987943427E-010
  -5.8100000000000013E-002    -1.0055248855778132E-009
  -5.6999999999999995E-002    -1.1104072106249419E-009
  -5.5900000000000005E-002    -1.2252757697339689E-009
  -5.4800000000000015E-002    -1.3500621731665774E-009
  -5.3699999999999998E-002    -1.4851777585533910E-009
  -5.2600000000000008E-002    -1.6317261986031895E-009
  -5.1499999999999990E-002    -1.7913224237275926E-009
  -5.0400000000000000E-002    -1.9656876126816769E-009
  -4.9300000000000010E-002    -2.1563490992804191E-009
  -4.8199999999999993E-002    -2.3646622437922815E-009
  -4.7100000000000003E-002    -2.5920801061118937E-009
  -4.6000000000000013E-002    -2.8403823737477296E-009
  -4.4899999999999995E-002    -3.1116165200018031E-009
  -4.3800000000000006E-002    -3.4077787258723902E-009
  -4.2699999999999988E-002    -3.7305221134431577E-009
  -4.1599999999999998E-002    -4.0811807267004951E-009
  -4.0500000000000008E-002    -4.4611447869158383E-009
  -3.9399999999999991E-002    -4.8723105550152468E-009
  -3.8300000000000001E-002    -5.3172541925050609E-009
  -3.7200000000000011E-002    -5.7989835156035952E-009
  -3.6099999999999993E-002    -6.3204685929463267E-009
  -3.5000000000000003E-002    -6.8843224454440133E-009
  -3.3900000000000013E-002    -7.4928800941620466E-009
  -3.2799999999999996E-002    -8.1486328795676854E-009
  -3.1700000000000006E-002    -8.8547222887314092E-009
  -3.0599999999999988E-002    -9.6151877571060140E-009
  -2.9499999999999998E-002    -1.0434859198937829E-008
  -2.8400000000000009E-002    -1.1318996406828319E-008
  -2.7299999999999991E-002    -1.2272900029586253E-008
  -2.6200000000000001E-002    -1.3301680645838587E-008
  -2.5100000000000011E-002    -1.4410232118677868E-008
  -2.3999999999999994E-002    -1.5603376368744648E-008
  -2.2900000000000004E-002    -1.6886064102550336E-008
  -2.1800000000000014E-002    -1.8263552448161136E-008
  -2.0699999999999996E-002    -1.9741488443969502E-008
  -1.9600000000000006E-002    -2.1325936572225146E-008
  -1.8499999999999989E-002    -2.3023401851673952E-008
  -1.7399999999999999E-002    -2.4840884904619998E-008
  -1.6300000000000009E-002    -2.6785944129414929E-008
  -1.5199999999999991E-002    -2.8866665502391697E-008
  -1.4100000000000001E-002    -3.1091463625898541E-008
  -1.3000000000000012E-002    -3.3468769089495254E-008
  -1.1899999999999994E-002    -3.6006856163339762E-008
  -1.0800000000000004E-002    -3.8713938721457453E-008
  -9.6999999999999864E-003    -4.1598628541805738E-008
  -8.5999999999999965E-003    -4.4670432686189088E-008
  -7.5000000000000067E-003    -4.7940016401071261E-008
  -6.3999999999999890E-003    -5.1419025481891367E-008
  -5.2999999999999992E-003    -5.5119670605563442E-008
  -4.2000000000000093E-003    -5.9054318768403391E-008
  -3.0999999999999917E-003    -6.3235383152004943E-008
  -2.0000000000000018E-003    -6.7675436810077372E-008
  -9.0000000000001190E-004    -7.2387308591714827E-008
   2.0000000000000573E-004    -7.7384036956118507E-008
   1.2999999999999956E-003    -8.2678738522190542E-008
   2.4000000000000132E-003    -8.8284565435969853E-008
   3.5000000000000031E-003    -9.4214996693153807E-008
   4.5999999999999930E-003    -1.0048427157016704E-007
   5.7000000000000106E-003    -1.0710770936839253E-007
   6.8000000000000005E-003    -1.1410172362502635E-007
   7.8999999999999904E-003    -1.2148352368512860E-007
   9.0000000000000080E-003    -1.2927081627367443E-007
   1.0099999999999998E-002    -1.3748146443504083E-007
   1.1199999999999988E-002    -1.4613338805702369E-007
   1.2300000000000005E-002    -1.5524450702741888E-007
   1.3399999999999995E-002    -1.6483262754718453E-007
   1.4500000000000013E-002    -1.7491542791958636E-007
   1.5600000000000003E-002    -1.8551065750216367E-007
   1.6699999999999993E-002    -1.9663640671296889E-007
   1.7800000000000010E-002    -2.0831144809108082E-007
   1.8900000000000000E-002    -2.2055527892916871E-007
   1.9999999999999990E-002    -2.3338803600836400E-007
   2.1100000000000008E-002    -2.4683038191142259E-007
   2.2199999999999998E-002    -2.6090336291417771E-007
   2.3300000000000015E-002    -2.7562808213588141E-007
   2.4400000000000005E-002    -2.9102554321980278E-007
   2.5499999999999995E-002    -3.0711632348356943E-007
   2.6600000000000013E-002    -3.2392037496720150E-007
   2.7700000000000002E-002    -3.4145730865020596E-007
   2.8799999999999992E-002    -3.5974679235550866E-007
   2.9900000000000010E-002    -3.7880906234022405E-007
   3.1000000000000000E-002    -3.9866472434368916E-007
   3.2099999999999990E-002    -4.1933429884011275E-007
   3.3200000000000007E-002    -4.4083765260438668E-007
   3.4299999999999997E-002    -4.6319379976011987E-007
   3.5400000000000015E-002    -4.8642135652698926E-007
   3.6500000000000005E-002    -5.1053899596809060E-007
   3.7599999999999995E-002    -5.3556556167677627E-007
   3.8700000000000012E-002    -5.6151935723391944E-007
   3.9800000000000002E-002    -5.8841777672569151E-007
   4.0899999999999992E-002    -6.1627707736988668E-007
   4.2000000000000010E-002    -6.4511283426327282E-007
   4.3099999999999999E-002    -6.7494016775526688E-007
   4.4200000000000017E-002    -7.0577408450844814E-007
   4.5300000000000007E-002    -7.3762868169069407E-007
   4.6399999999999997E-002    -7.7051657854099176E-007
   4.7500000000000014E-002    -8.0444908689969452E-007
   4.8600000000000004E-002    -8.3943655226903502E-007
   4.9699999999999994E-002    -8.7548903593415162E-007
   5.0800000000000012E-002    -9.1261642864992609E-007
   5.1900000000000002E-002    -9.5082748430286301E-007
   5.2999999999999992E-002    -9.9012891041638795E-007
   5.4099999999999981E-002    -1.0305253681508475E-006
   5.5200000000000027E-002    -1.0720194723035092E-006
   5.6300000000000017E-002    -1.1146129281769390E-006
   5.7400000000000007E-002    -1.1583065315790009E-006
   5.8499999999999996E-002    -1.2030997140755062E-006
   5.9599999999999986E-002    -1.2489898608691874E-006
   6.0700000000000032E-002    -1.2959727655470488E-006
   6.1800000000000022E-002    -1.3440429711408797E-006
   6.2900000000000011E-002    -1.3931936564404168E-006
   6.4000000000000001E-002    -1.4434173181143706E-006
   6.5099999999999991E-002    -1.4947042927815346E-006
   6.6199999999999981E-002    -1.5470426433239481E-006
   6.7300000000000026E-002    -1.6004184999474091E-006
   6.8400000000000016E-002    -1.6548158328077989E-006
   6.9500000000000006E-002    -1.7102178162531345E-006
   7.0599999999999996E-002    -1.7666059193288675E-006
   7.1699999999999986E-002    -1.8239594510305324E-006
   7.2800000000000031E-002    -1.8822552192432340E-006
   7.3900000000000021E-002    -1.9414676444284851E-006
   7.5000000000000011E-002    -2.0015695554320700E-006
   7.6100000000000001E-002    -2.0625327579182340E-006
   7.7199999999999991E-002    -2.1243274659354938E-006
   7.8299999999999981E-002    -2.1869218471692875E-006
   7.9400000000000026E-002    -2.2502822503156494E-006
   8.0500000000000016E-002    -2.3143725229601841E-006
   8.1600000000000006E-002    -2.3791558305674698E-006
   8.2699999999999996E-002    -2.4445937469863566E-006
   8.3799999999999986E-002    -2.5106467091973173E-006
   8.4900000000000031E-002    -2.5772731078177458E-006
   8.6000000000000021E-002    -2.6444288323546061E-006
   8.7100000000000011E-002    -2.7120677259517834E-006
   8.8200000000000001E-002    -2.7801431770058116E-006
   8.9299999999999990E-002    -2.8486078917921986E-006
   9.0399999999999980E-002    -2.9174136670917505E-006
   9.1500000000000026E-002    -2.9865109354432207E-006
   9.2600000000000016E-002    -3.0558478556486079E-006
   9.3700000000000006E-002    -3.1253707675205078E-006
   9.4799999999999995E-002    -3.1950260108715156E-006
   9.5899999999999985E-002    -3.2647592433932004E-006
   9.7000000000000031E-002    -3.3345161227771314E-006
   9.8100000000000021E-002    -3.4042413972201757E-006
   9.9200000000000010E-002    -3.4738779959297972E-006
  0.10030000000000000         -3.5433679386187578E-006
  0.10139999999999999         -3.6126532449998194E-006
  0.10249999999999998         -3.6816763895330951E-006
  0.10360000000000003         -3.7503798466786975E-006
  0.10470000000000002         -3.8187049540283624E-006
  0.10580000000000001         -3.8865932765475009E-006
  0.10690000000000000         -3.9539859244541731E-006
  0.10799999999999998         -4.0208260543295182E-006
  0.10910000000000003         -4.0870581869967282E-006
  0.11020000000000002         -4.1526263885316439E-006
  0.11130000000000001         -4.2174751797574572E-006
  0.11240000000000000         -4.2815490814973600E-006
  0.11349999999999999         -4.3447930693218950E-006
  0.11460000000000004         -4.4071521188016050E-006
  0.11570000000000003         -4.4685734792437870E-006
  0.11680000000000001         -4.5290053094504401E-006
  0.11790000000000000         -4.5883962229709141E-006
  0.11899999999999999         -4.6466966523439623E-006
  0.12009999999999998         -4.7038588490977418E-006
  0.12120000000000003         -4.7598377932445146E-006
  0.12230000000000002         -4.8145907385332976E-006
  0.12340000000000001         -4.8680772124498617E-006
  0.12450000000000000         -4.9202567424799781E-006
  0.12559999999999999         -4.9710897656041197E-006
  0.12670000000000003         -5.0205394472868647E-006
  0.12780000000000002         -5.0685721362242475E-006
  0.12890000000000001         -5.1151555453543551E-006
  0.13000000000000000         -5.1602601160993800E-006
  0.13109999999999999         -5.2038585636182688E-006
  0.13219999999999998         -5.2459245125646703E-006
  0.13330000000000003         -5.2864352255710401E-006
  0.13440000000000002         -5.3253716032486409E-006
  0.13550000000000001         -5.3627163651981391E-006
  0.13660000000000000         -5.3984558689990081E-006
  0.13769999999999999         -5.4325773817254230E-006
  0.13880000000000003         -5.4650704441883136E-006
  0.13990000000000002         -5.4959286899247672E-006
  0.14100000000000001         -5.5251484809559770E-006
  0.14210000000000000         -5.5527284530398902E-006
  0.14319999999999999         -5.5786699704185594E-006
  0.14429999999999998         -5.6029757615760900E-006
  0.14540000000000003         -5.6256517382280435E-006
  0.14650000000000002         -5.6467060858267359E-006
  0.14760000000000001         -5.6661515372979920E-006
  0.14870000000000000         -5.6840035540517420E-006
  0.14979999999999999         -5.7002794164873194E-006
  0.15090000000000003         -5.7149991334881634E-006
  0.15200000000000002         -5.7281845329271164E-006
  0.15310000000000001         -5.7398610806558281E-006
  0.15420000000000000         -5.7500569710100535E-006
  0.15529999999999999         -5.7588013078202493E-006
  0.15639999999999998         -5.7661259234009776E-006
  0.15750000000000003         -5.7720635595615022E-006
  0.15860000000000002         -5.7766483223531395E-006
  0.15970000000000001         -5.7799170463113114E-006
  0.16080000000000000         -5.7819097492028959E-006
  0.16189999999999999         -5.7826678130368236E-006
  0.16300000000000003         -5.7822344388114288E-006
  0.16410000000000002         -5.7806541917670984E-006
  0.16520000000000001         -5.7779730013862718E-006
  0.16630000000000000         -5.7742395256354939E-006
  0.16739999999999999         -5.7695033319760114E-006
  0.16850000000000004         -5.7638148973637726E-006
  0.16960000000000003         -5.7572265177441295E-006
  0.17070000000000002         -5.7497891248203814E-006
  0.17180000000000001         -5.7415559240325820E-006
  0.17290000000000000         -5.7325792113260832E-006
  0.17399999999999999         -5.7229131016356405E-006
  0.17510000000000003         -5.7126121646433603E-006
  0.17620000000000002         -5.7017309700313490E-006
  0.17730000000000001         -5.6903245422290638E-006
  0.17840000000000000         -5.6784488151606638E-006
  0.17949999999999999         -5.6661601774976589E-006
  0.18060000000000004         -5.6535154726589099E-006
  0.18170000000000003         -5.6405683608318213E-006
  0.18280000000000002         -5.6273729569511488E-006
  0.18390000000000001         -5.6139815569622442E-006
  0.18500000000000000         -5.6004482757998630E-006
  0.18609999999999999         -5.5868258641567081E-006
  0.18720000000000003         -5.5731675274728332E-006
  0.18830000000000002         -5.5595237427041866E-006
  0.18940000000000001         -5.5459445320593659E-006
  0.19050000000000000         -5.5324790082522668E-006
  0.19159999999999999         -5.5191762839967851E-006
  0.19270000000000004         -5.5060850172594655E-006
  0.19380000000000003         -5.4932520470174495E-006
  0.19490000000000002         -5.4807219385111239E-006
  0.19600000000000001         -5.4685360737494193E-006
  0.19710000000000000         -5.4567349252465647E-006
  0.19819999999999999         -5.4453585107694380E-006
  0.19930000000000003         -5.4344459385902155E-006
  0.20040000000000002         -5.4240344979916699E-006
  0.20150000000000001         -5.4141596592671704E-006
  0.20260000000000000         -5.4048541642259806E-006
  0.20369999999999999         -5.3961489356879611E-006
  0.20480000000000004         -5.3880735322309192E-006
  0.20590000000000003         -5.3806566029379610E-006
  0.20700000000000002         -5.3739245231554378E-006
  0.20810000000000001         -5.3679018492402975E-006
  0.20920000000000000         -5.3626113185600843E-006
  0.21029999999999999         -5.3580738494929392E-006
  0.21140000000000003         -5.3543080866802484E-006
  0.21250000000000002         -5.3513317652686965E-006
  0.21360000000000001         -5.3491594371735118E-006
  0.21470000000000000         -5.3478047448152211E-006
  0.21579999999999999         -5.3472799663722981E-006
  0.21690000000000004         -5.3475951062864624E-006
  0.21800000000000003         -5.3487588047573809E-006
  0.21910000000000002         -5.3507774282479659E-006
  0.22020000000000001         -5.3536555242317263E-006
  0.22130000000000000         -5.3573958211927675E-006
  0.22239999999999999         -5.3620005928678438E-006
  0.22350000000000003         -5.3674698392569553E-006
  0.22460000000000002         -5.3738021961180493E-006
  0.22570000000000001         -5.3809944802196696E-006
  0.22680000000000000         -5.3890403250989038E-006
  0.22789999999999999         -5.3979320000507869E-006
  0.22900000000000004         -5.4076622291177046E-006
  0.23010000000000003         -5.4182219173526391E-006
  0.23120000000000002         -5.4296019698085729E-006
  0.23230000000000001         -5.4417928367911372E-006
  0.23340000000000000         -5.4547822401218582E-006
  0.23450000000000004         -5.4685565373802092E-006
  0.23560000000000003         -5.4831020861456636E-006
  0.23670000000000002         -5.4984038797556423E-006
  0.23780000000000001         -5.5144460020528641E-006
  0.23890000000000000         -5.5312111726379953E-006
  0.23999999999999999         -5.5486798373749480E-006
  0.24110000000000004         -5.5668315326329321E-006
  0.24220000000000003         -5.5856457947811577E-006
  0.24330000000000002         -5.6051017054414842E-006
  0.24440000000000001         -5.6251783462357707E-006
  0.24550000000000000         -5.6458534345438238E-006
  0.24660000000000004         -5.6671055972401518E-006
  0.24770000000000003         -5.6889116422098596E-006
  0.24880000000000002         -5.7112488320854027E-006
  0.24990000000000001         -5.7340926105098333E-006
  0.25100000000000000         -5.7574193306209054E-006
  0.25209999999999999         -5.7812035265669692E-006
  0.25320000000000004         -5.8054206419910770E-006
  0.25430000000000003         -5.8300447562942281E-006
  0.25540000000000002         -5.8550499488774221E-006
  0.25650000000000001         -5.8804107538890094E-006
  0.25760000000000000         -5.9061007959826384E-006
  0.25870000000000004         -5.9320927903172560E-006
  0.25980000000000003         -5.9583608162938617E-006
  0.26090000000000002         -5.9848789533134550E-006
  0.26200000000000001         -6.0116208260296844E-006
  0.26310000000000000         -6.0385591496014968E-006
  0.26419999999999999         -6.0656670939351898E-006
  0.26530000000000004         -6.0929169194423594E-006
  0.26640000000000003         -6.1202804317872506E-006
  0.26750000000000002         -6.1477312556235120E-006
  0.26860000000000001         -6.1752430156047922E-006
  0.26970000000000000         -6.2027893363847397E-006
  0.27080000000000004         -6.2303438426170032E-006
  0.27190000000000003         -6.2578783399658278E-006
  0.27300000000000002         -6.2853664530848619E-006
  0.27410000000000001         -6.3127808971330523E-006
  0.27520000000000000         -6.3400957515113987E-006
  0.27629999999999999         -6.3672841861261986E-006
  0.27740000000000004         -6.3943202803784516E-006
  0.27850000000000003         -6.4211772041744553E-006
  0.27960000000000002         -6.4478285821678583E-006
  0.28070000000000001         -6.4742489485070109E-006
  0.28179999999999999         -6.5004142015823163E-006
  0.28290000000000004         -6.5262993302894756E-006
  0.28400000000000003         -6.5518793235241901E-006
  0.28510000000000002         -6.5771282606874593E-006
  0.28620000000000001         -6.6020202211802825E-006
  0.28730000000000000         -6.6265297391510103E-006
  0.28840000000000005         -6.6506308940006420E-006
  0.28950000000000004         -6.6742995841195807E-006
  0.29060000000000002         -6.6975126173929311E-006
  0.29170000000000001         -6.7202477112004999E-006
  0.29280000000000000         -6.7424834924167953E-006
  0.29389999999999999         -6.7641976784216240E-006
  0.29500000000000004         -6.7853679865947925E-006
  0.29610000000000003         -6.8059716795687564E-006
  0.29720000000000002         -6.8259860199759714E-006
  0.29830000000000001         -6.8453891799435951E-006
  0.29940000000000000         -6.8641597863461357E-006
  0.30050000000000004         -6.8822773755528033E-006
  0.30160000000000003         -6.8997228481748607E-006
  0.30270000000000002         -6.9164771048235707E-006
  0.30380000000000001         -6.9325224103522487E-006
  0.30490000000000000         -6.9478423938562628E-006
  0.30599999999999999         -6.9624220486730337E-006
  0.30709999999999998         -6.9762445491505787E-006
  0.30819999999999997         -6.9892948886263184E-006
  0.30930000000000007         -7.0015557867009193E-006
  0.31040000000000006         -7.0130108724697493E-006
  0.31150000000000005         -7.0236446845228784E-006
  0.31260000000000004         -7.0334449446818326E-006
  0.31370000000000003         -7.0424002842628397E-006
  0.31480000000000002         -7.0504997893294785E-006
  0.31590000000000001         -7.0577348196820822E-006
  0.31700000000000000         -7.0640958256262820E-006
  0.31809999999999999         -7.0695755312044639E-006
  0.31919999999999998         -7.0741675699537154E-006
  0.32029999999999997         -7.0778655754111242E-006
  0.32140000000000007         -7.0806650001031812E-006
  0.32250000000000006         -7.0825612965563778E-006
  0.32360000000000005         -7.0835508267919067E-006
  0.32470000000000004         -7.0836308623256627E-006
  0.32580000000000003         -7.0827995841682423E-006
  0.32690000000000002         -7.0810579018143471E-006
  0.32800000000000001         -7.0784085437480826E-006
  0.32910000000000000         -7.0748546932009049E-006
  0.33019999999999999         -7.0704013523936737E-006
  0.33129999999999998         -7.0650539782945998E-006
  0.33239999999999997         -7.0588189373665955E-006
  0.33350000000000007         -7.0517025960725732E-006
  0.33460000000000006         -7.0437140493595507E-006
  0.33570000000000005         -7.0348623921745457E-006
  0.33680000000000004         -7.0251599026960321E-006
  0.33790000000000003         -7.0146197685971856E-006
  0.33900000000000002         -7.0032556322985329E-006
  0.34010000000000001         -6.9910820457153022E-006
  0.34120000000000000         -6.9781149250047747E-006
  0.34229999999999999         -6.9643710958189331E-006
  0.34339999999999998         -6.9498701122938655E-006
  0.34449999999999997         -6.9346315285656601E-006
  0.34560000000000007         -6.9186762630124576E-006
  0.34670000000000006         -6.9020247792650480E-006
  0.34780000000000005         -6.8846993599436246E-006
  0.34890000000000004         -6.8667236519104335E-006
