 -0.20000000000000001          0.0000000000000000
 -0.19890000000000002          0.0000000000000000
 -0.19780000000000000          0.0000000000000000
 -0.19670000000000001          0.0000000000000000
 -0.19560000000000002          0.0000000000000000
 -0.19450000000000001          0.0000000000000000
 -0.19340000000000002          1.4978796558437631E-020
 -0.19230000000000000          1.2174497246813453E-019
 -0.19120000000000001          3.0375685095141655E-019
 -0.19010000000000002         -4.6969641626233717E-019
 -0.18900000000000000         -4.8350547280587398E-018
 -0.18790000000000001         -1.1516861311174793E-017
 -0.18680000000000002         -2.4298122885954895E-019
 -0.18570000000000000          6.9405701027005058E-017
 -0.18460000000000001          1.8907945904643323E-016
 -0.18350000000000000          1.6200935807825966E-016
 -0.18240000000000001         -3.9896861178277329E-016
 -0.18130000000000002         -1.5773919764637675E-015
 -0.18020000000000000         -2.2244688204750606E-015
 -0.17910000000000001          2.1916418997855425E-016
 -0.17800000000000002          7.3362438357277987E-015
 -0.17690000000000000          1.4956424973836500E-014
 -0.17580000000000001          1.0954321353002019E-014
 -0.17470000000000002         -1.6649277917164633E-014
 -0.17360000000000000         -6.0374970268454314E-014
 -0.17250000000000001         -7.8809686912279658E-014
 -0.17140000000000000         -1.4747096027515651E-014
 -0.17030000000000001          1.4359031270862882E-013
 -0.16920000000000002          2.9830594916978315E-013
 -0.16810000000000000          2.5803374736378670E-013
 -0.16700000000000001         -1.1231598604725251E-013
 -0.16589999999999999         -6.8160836133243641E-013
 -0.16480000000000000         -9.9020910828556685E-013
 -0.16370000000000001         -5.2072804618621960E-013
 -0.16260000000000002          7.7687650149732557E-013
 -0.16150000000000000          2.1321677062813293E-012
 -0.16040000000000001          2.2701209401870814E-012
 -0.15930000000000000          4.3736159984451850E-013
 -0.15820000000000001         -2.5781241291128465E-012
 -0.15710000000000002         -4.5156079396535542E-012
 -0.15600000000000000         -3.2419830708896313E-012
 -0.15490000000000001          1.0981312430560775E-012
 -0.15379999999999999          5.3817458302296561E-012
 -0.15270000000000000          5.5756957210995051E-012
 -0.15160000000000001          5.1909371983141495E-013
 -0.15050000000000002         -5.8614263616363349E-012
 -0.14940000000000001         -6.8321923639425020E-012
 -0.14830000000000002          1.0140885527143428E-012
 -0.14720000000000000          1.2681349893794991E-011
 -0.14610000000000001          1.6436442484835112E-011
 -0.14500000000000002          3.1352587626792827E-012
 -0.14390000000000000         -2.3266151158440884E-011
 -0.14280000000000001         -4.3949878458793279E-011
 -0.14169999999999999         -3.6998237806784573E-011
 -0.14060000000000000          3.9030280743479473E-012
 -0.13950000000000001          5.8803739655388654E-011
 -0.13840000000000002          9.0552294829127078E-011
 -0.13730000000000001          7.0463850032620456E-011
 -0.13619999999999999          2.2213223014461159E-012
 -0.13510000000000000         -7.6266583326489723E-011
 -0.13400000000000001         -1.1769211993861717E-010
 -0.13290000000000002         -9.9418015486740785E-011
 -0.13180000000000000         -3.9537550317048087E-011
 -0.13070000000000001          1.9492440647694842E-011
 -0.12959999999999999          4.7223277371832850E-011
 -0.12850000000000000          5.0618211011599357E-011
 -0.12740000000000001          6.4684757550281802E-011
 -0.12630000000000002          1.1372808944587476E-010
 -0.12520000000000001          1.7613811797989598E-010
 -0.12410000000000000          1.8693196990327010E-010
 -0.12300000000000001          8.3577519904842745E-011
 -0.12190000000000001         -1.3621027916688178E-010
 -0.12080000000000000         -3.9055883527261415E-010
 -0.11970000000000000         -5.4786608583157204E-010
 -0.11860000000000001         -5.0174758792209673E-010
 -0.11750000000000001         -2.3771482005052746E-010
 -0.11640000000000000          1.5319487345344385E-010
 -0.11530000000000000          5.2275211936958499E-010
 -0.11420000000000001          7.4354283841060465E-010
 -0.11310000000000001          7.6679479432684161E-010
 -0.11200000000000000          6.2675259426825392E-010
 -0.11090000000000001          3.9557765396658340E-010
 -0.10980000000000001          1.2473223842679459E-010
 -0.10870000000000000         -1.8492496423050397E-010
 -0.10760000000000000         -5.6458643316048551E-010
 -0.10650000000000001         -1.0270128081302232E-009
 -0.10540000000000001         -1.5266624631138370E-009
 -0.10430000000000000         -1.9692978359131530E-009
 -0.10320000000000000         -2.2747208561213483E-009
 -0.10210000000000001         -2.4506228157861187E-009
 -0.10100000000000001         -2.6139619357934407E-009
  -9.9900000000000003E-002    -2.9231921327976806E-009
  -9.8799999999999999E-002    -3.4505318602384705E-009
  -9.7700000000000009E-002    -4.0826413361116920E-009
  -9.6600000000000005E-002    -4.5384038749318734E-009
  -9.5500000000000002E-002    -4.5196588693841022E-009
  -9.4400000000000012E-002    -3.9101144544417821E-009
  -9.3300000000000008E-002    -2.8875206670164744E-009
  -9.2200000000000004E-002    -1.8632260179174409E-009
  -9.1100000000000000E-002    -1.2833849538651521E-009
  -9.0000000000000011E-002    -1.4260650438302491E-009
  -8.8900000000000007E-002    -2.3258868164788282E-009
  -8.7800000000000003E-002    -3.8515355349488800E-009
  -8.6699999999999999E-002    -5.8390154933363192E-009
  -8.5600000000000009E-002    -8.1499127446704733E-009
  -8.4500000000000006E-002    -1.0609615408441186E-008
  -8.3400000000000002E-002    -1.2910336799620836E-008
  -8.2299999999999998E-002    -1.4619148558381312E-008
  -8.1200000000000008E-002    -1.5354318705362857E-008
  -8.0100000000000005E-002    -1.5042028067568936E-008
  -7.9000000000000001E-002    -1.4068129772226712E-008
  -7.7899999999999997E-002    -1.3185453617836629E-008
  -7.6800000000000007E-002    -1.3199359827353874E-008
  -7.5700000000000003E-002    -1.4610010090621017E-008
  -7.4600000000000000E-002    -1.7421273312834273E-008
  -7.3500000000000010E-002    -2.1213347523030279E-008
  -7.2399999999999992E-002    -2.5407167925095564E-008
  -7.1300000000000002E-002    -2.9544446888962739E-008
  -7.0200000000000012E-002    -3.3429067514134658E-008
  -6.9099999999999995E-002    -3.7090174487275362E-008
  -6.8000000000000005E-002    -4.0644930976441174E-008
  -6.6900000000000015E-002    -4.4184233161104203E-008
  -6.5799999999999997E-002    -4.7761904653498277E-008
  -6.4700000000000008E-002    -5.1477268669941623E-008
  -6.3599999999999990E-002    -5.5564903789218079E-008
  -6.2500000000000000E-002    -6.0392181921997690E-008
  -6.1400000000000010E-002    -6.6325966940894432E-008
  -6.0299999999999992E-002    -7.3530642907826405E-008
  -5.9200000000000003E-002    -8.1833974263645359E-008
  -5.8100000000000013E-002    -9.0781689721097791E-008
  -5.6999999999999995E-002    -9.9886761972811655E-008
  -5.5900000000000005E-002    -1.0893410262724501E-007
  -5.4800000000000015E-002    -1.1813727240905791E-007
  -5.3699999999999998E-002    -1.2802911442122422E-007
  -5.2600000000000008E-002    -1.3915671104314242E-007
  -5.1499999999999990E-002    -1.5180063428488211E-007
  -5.0400000000000000E-002    -1.6592122165093315E-007
  -4.9300000000000010E-002    -1.8135214929770882E-007
  -4.8199999999999993E-002    -1.9805959539098694E-007
  -4.7100000000000003E-002    -2.1623645807267167E-007
  -4.6000000000000013E-002    -2.3615282884748012E-007
  -4.4899999999999995E-002    -2.5790734525799053E-007
  -4.3800000000000006E-002    -2.8132072316111589E-007
  -4.2699999999999988E-002    -3.0609186296715052E-007
  -4.1599999999999998E-002    -3.3210122296623013E-007
  -4.0500000000000008E-002    -3.5960454169980949E-007
  -3.9399999999999991E-002    -3.8914075162210793E-007
  -3.8300000000000001E-002    -4.2121484966628486E-007
  -3.7200000000000011E-002    -4.5600648945764988E-007
  -3.6099999999999993E-002    -4.9333601737089339E-007
  -3.5000000000000003E-002    -5.3291455515136477E-007
  -3.3900000000000013E-002    -5.7468673730909359E-007
  -3.2799999999999996E-002    -6.1901891967863776E-007
  -3.1700000000000006E-002    -6.6661550590652041E-007
  -3.0599999999999988E-002    -7.1824410952103790E-007
  -2.9499999999999998E-002    -7.7445866963898879E-007
  -2.8400000000000009E-002    -8.3547348594947834E-007
  -2.7299999999999991E-002    -9.0122040319329244E-007
  -2.6200000000000001E-002    -9.7151439604203915E-007
  -2.5100000000000011E-002    -1.0462247246323386E-006
  -2.3999999999999994E-002    -1.1253777074671234E-006
  -2.2900000000000004E-002    -1.2091705912098405E-006
  -2.1800000000000014E-002    -1.2979195389561937E-006
  -2.0699999999999996E-002    -1.3919927823735634E-006
  -1.9600000000000006E-002    -1.4917792441337951E-006
  -1.8499999999999989E-002    -1.5977036582626170E-006
  -1.7399999999999999E-002    -1.7102460105888895E-006
  -1.6300000000000009E-002    -1.8299001567356754E-006
  -1.5199999999999991E-002    -1.9570534277590923E-006
  -1.4100000000000001E-002    -2.0918644167977618E-006
  -1.3000000000000012E-002    -2.2342680949805072E-006
  -1.1899999999999994E-002    -2.3841664642532123E-006
  -1.0800000000000004E-002    -2.5417143660888541E-006
  -9.6999999999999864E-003    -2.7074977424490498E-006
  -8.5999999999999965E-003    -2.8824492801504675E-006
  -7.5000000000000067E-003    -3.0675428206450306E-006
  -6.3999999999999890E-003    -3.2634800390951568E-006
  -5.2999999999999992E-003    -3.4705872167251073E-006
  -4.2000000000000093E-003    -3.6889596231048927E-006
  -3.0999999999999917E-003    -3.9186884350783657E-006
  -2.0000000000000018E-003    -4.1599632822908461E-006
  -9.0000000000001190E-004    -4.4129992602393031E-006
   2.0000000000000573E-004    -4.6779205149505287E-006
   1.2999999999999956E-003    -4.9547807066119276E-006
   2.4000000000000132E-003    -5.2437508202274330E-006
   3.5000000000000031E-003    -5.5453201639465988E-006
   4.5999999999999930E-003    -5.8603236539056525E-006
   5.7000000000000106E-003    -6.1897499108454213E-006
   6.8000000000000005E-003    -6.5344656832166947E-006
   7.8999999999999904E-003    -6.8950480454077478E-006
   9.0000000000000080E-003    -7.2717916737019550E-006
   1.0099999999999998E-002    -7.6648111644317396E-006
   1.1199999999999988E-002    -8.0741210695123300E-006
   1.2300000000000005E-002    -8.4996599980513565E-006
   1.3399999999999995E-002    -8.9413288151263259E-006
   1.4500000000000013E-002    -9.3991047833696939E-006
   1.5600000000000003E-002    -9.8731779871741310E-006
   1.6699999999999993E-002    -1.0364004083385225E-005
   1.7800000000000010E-002    -1.0872215170820709E-005
   1.8900000000000000E-002    -1.1398451533750631E-005
   1.9999999999999990E-002    -1.1943240679102018E-005
   2.1100000000000008E-002    -1.2506965504144318E-005
   2.2199999999999998E-002    -1.3089849744574167E-005
   2.3300000000000015E-002    -1.3691898857359774E-005
   2.4400000000000005E-002    -1.4312845451058820E-005
   2.5499999999999995E-002    -1.4952208402974065E-005
   2.6600000000000013E-002    -1.5609541151206940E-005
   2.7700000000000002E-002    -1.6284730008919723E-005
   2.8799999999999992E-002    -1.6978059647954069E-005
   2.9900000000000010E-002    -1.7689955711830407E-005
   3.1000000000000000E-002    -1.8420560081722215E-005
   3.2099999999999990E-002    -1.9169508959748782E-005
   3.3200000000000007E-002    -1.9936129319830798E-005
   3.4299999999999997E-002    -2.0719871827168390E-005
   3.5400000000000015E-002    -2.1520570953725837E-005
   3.6500000000000005E-002    -2.2338294002111070E-005
   3.7599999999999995E-002    -2.3172895453171805E-005
   3.8700000000000012E-002    -2.4023744117585011E-005
   3.9800000000000002E-002    -2.4889886844903231E-005
   4.0899999999999992E-002    -2.5770472348085605E-005
   4.2000000000000010E-002    -2.6665027689887211E-005
   4.3099999999999999E-002    -2.7573292754823342E-005
   4.4200000000000017E-002    -2.8494758225861005E-005
   4.5300000000000007E-002    -2.9428396373987198E-005
   4.6399999999999997E-002    -3.0372913897735998E-005
   4.7500000000000014E-002    -3.1327257602242753E-005
   4.8600000000000004E-002    -3.2290907256538048E-005
   4.9699999999999994E-002    -3.3263604564126581E-005
   5.0800000000000012E-002    -3.4244731068611145E-005
   5.1900000000000002E-002    -3.5232918889960274E-005
   5.2999999999999992E-002    -3.6226276279194281E-005
   5.4099999999999981E-002    -3.7222969694994390E-005
   5.5200000000000027E-002    -3.8221660361159593E-005
   5.6300000000000017E-002    -3.9221416955115274E-005
   5.7400000000000007E-002    -4.0221217204816639E-005
   5.8499999999999996E-002    -4.1219638660550117E-005
   5.9599999999999986E-002    -4.2215029679937288E-005
   6.0700000000000032E-002    -4.3205935071455315E-005
   6.1800000000000022E-002    -4.4191288907313719E-005
   6.2900000000000011E-002    -4.5170130761107430E-005
   6.4000000000000001E-002    -4.6141125494614244E-005
   6.5099999999999991E-002    -4.7102399548748508E-005
   6.6199999999999981E-002    -4.8051886551547796E-005
   6.7300000000000026E-002    -4.8987807531375438E-005
   6.8400000000000016E-002    -4.9908823712030426E-005
   6.9500000000000006E-002    -5.0813687266781926E-005
   7.0599999999999996E-002    -5.1700742915272713E-005
   7.1699999999999986E-002    -5.2567840612027794E-005
   7.2800000000000031E-002    -5.3412757551996037E-005
   7.3900000000000021E-002    -5.4233725677477196E-005
   7.5000000000000011E-002    -5.5029504437698051E-005
   7.6100000000000001E-002    -5.5798940593376756E-005
   7.7199999999999991E-002    -5.6540488003520295E-005
   7.8299999999999981E-002    -5.7252193073509261E-005
   7.9400000000000026E-002    -5.7932116760639474E-005
   8.0500000000000016E-002    -5.8578822063282132E-005
   8.1600000000000006E-002    -5.9191334003116935E-005
   8.2699999999999996E-002    -5.9768550272565335E-005
   8.3799999999999986E-002    -6.0308815591270104E-005
   8.4900000000000031E-002    -6.0810023569501936E-005
   8.6000000000000021E-002    -6.1270235164556652E-005
   8.7100000000000011E-002    -6.1688282585237175E-005
   8.8200000000000001E-002    -6.2063627410680056E-005
   8.9299999999999990E-002    -6.2395687564276159E-005
   9.0399999999999980E-002    -6.2683277064934373E-005
   9.1500000000000026E-002    -6.2924627854954451E-005
   9.2600000000000016E-002    -6.3118073740042746E-005
   9.3700000000000006E-002    -6.3262712501455098E-005
   9.4799999999999995E-002    -6.3358304032590240E-005
   9.5899999999999985E-002    -6.3404644606634974E-005
   9.7000000000000031E-002    -6.3401013903785497E-005
   9.8100000000000021E-002    -6.3346225942950696E-005
   9.9200000000000010E-002    -6.3239225710276514E-005
  0.10030000000000000         -6.3079598476178944E-005
  0.10139999999999999         -6.2867467931937426E-005
  0.10249999999999998         -6.2602935940958560E-005
  0.10360000000000003         -6.2285689637064934E-005
  0.10470000000000002         -6.1915226979181170E-005
  0.10580000000000001         -6.1491489759646356E-005
  0.10690000000000000         -6.1015198298264295E-005
  0.10799999999999998         -6.0487491282401606E-005
  0.10910000000000003         -5.9909212723141536E-005
  0.11020000000000002         -5.9280569985276088E-005
  0.11130000000000001         -5.8601406635716558E-005
  0.11240000000000000         -5.7871777244145051E-005
  0.11349999999999999         -5.7092263887170702E-005
  0.11460000000000004         -5.6263907026732340E-005
  0.11570000000000003         -5.5387779866578057E-005
  0.11680000000000001         -5.4464784625452012E-005
  0.11790000000000000         -5.3495932661462575E-005
  0.11899999999999999         -5.2482828323263675E-005
  0.12009999999999998         -5.1427716243779287E-005
  0.12120000000000003         -5.0332855607848614E-005
  0.12230000000000002         -4.9199930799659342E-005
  0.12340000000000001         -4.8029945901362225E-005
  0.12450000000000000         -4.6823832235531881E-005
  0.12559999999999999         -4.5583154133055359E-005
  0.12670000000000003         -4.4310185330687091E-005
  0.12780000000000002         -4.3007297790609300E-005
  0.12890000000000001         -4.1676506953081116E-005
  0.13000000000000000         -4.0319562685908750E-005
  0.13109999999999999         -3.8938265788601711E-005
  0.13219999999999998         -3.7534937291638926E-005
  0.13330000000000003         -3.6112403904553503E-005
  0.13440000000000002         -3.4673397749429569E-005
  0.13550000000000001         -3.3220243494724855E-005
  0.13660000000000000         -3.1754872907185927E-005
  0.13769999999999999         -3.0279279599199072E-005
  0.13880000000000003         -2.8796092010452412E-005
  0.13990000000000002         -2.7308216886012815E-005
  0.14100000000000001         -2.5818229914875701E-005
  0.14210000000000000         -2.4328192012035288E-005
  0.14319999999999999         -2.2839845769340172E-005
  0.14429999999999998         -2.1355277567636222E-005
  0.14540000000000003         -1.9877248632838018E-005
  0.14650000000000002         -1.8408960386295803E-005
  0.14760000000000001         -1.6953381418716162E-005
  0.14870000000000000         -1.5512761819991283E-005
  0.14979999999999999         -1.4089026990404818E-005
  0.15090000000000003         -1.2684272405749653E-005
  0.15200000000000002         -1.1301011909381486E-005
  0.15310000000000001         -9.9419094112818129E-006
  0.15420000000000000         -8.6091131379362196E-006
  0.15529999999999999         -7.3041187533817720E-006
  0.15639999999999998         -6.0281458900135476E-006
  0.15750000000000003         -4.7826392801653128E-006
  0.15860000000000002         -3.5696277791430475E-006
  0.15970000000000001         -2.3914792564028176E-006
  0.16080000000000000         -1.2502699746619328E-006
  0.16189999999999999         -1.4753840105186100E-007
  0.16300000000000003          9.1538367996690795E-007
  0.16410000000000002          1.9370349946257193E-006
  0.16520000000000001          2.9157488370401552E-006
  0.16630000000000000          3.8499297261296306E-006
  0.16739999999999999          4.7383809942402877E-006
  0.16850000000000004          5.5803652685426641E-006
  0.16960000000000003          6.3754509938007686E-006
  0.17070000000000002          7.1231283982342575E-006
  0.17180000000000001          7.8227749327197671E-006
  0.17290000000000000          8.4738312580157071E-006
  0.17399999999999999          9.0758449005079456E-006
  0.17510000000000003          9.6284438768634573E-006
  0.17620000000000002          1.0131068847840652E-005
  0.17730000000000001          1.0582988579699304E-005
  0.17840000000000000          1.0983702850353438E-005
  0.17949999999999999          1.1333329894114286E-005
  0.18060000000000004          1.1632771929726005E-005
  0.18170000000000003          1.1883114893862512E-005
  0.18280000000000002          1.2084962691005785E-005
  0.18390000000000001          1.2238383533258457E-005
  0.18500000000000000          1.2343320122454315E-005
  0.18609999999999999          1.2400214473018423E-005
  0.18720000000000003          1.2410120689310133E-005
  0.18830000000000002          1.2374176549201366E-005
  0.18940000000000001          1.2293115105421748E-005
  0.19050000000000000          1.2167293789389078E-005
  0.19159999999999999          1.1997120054729749E-005
  0.19270000000000004          1.1783675290644169E-005
  0.19380000000000003          1.1528849427122623E-005
  0.19490000000000002          1.1234788871661294E-005
  0.19600000000000001          1.0903207112278324E-005
  0.19710000000000000          1.0535135515965521E-005
  0.19819999999999999          1.0131282579095569E-005
  0.19930000000000003          9.6926978585543111E-006
  0.20040000000000002          9.2210912043810822E-006
  0.20150000000000001          8.7185017036972567E-006
  0.20260000000000000          8.1868347479030490E-006
  0.20369999999999999          7.6275882747722790E-006
  0.20480000000000004          7.0420269366877619E-006
  0.20590000000000003          6.4315490817534737E-006
  0.20700000000000002          5.7977817959908862E-006
  0.20810000000000001          5.1424958655843511E-006
  0.20920000000000000          4.4674493437923957E-006
  0.21029999999999999          3.7742900076409569E-006
  0.21140000000000003          3.0646849609183846E-006
  0.21250000000000002          2.3403865725413198E-006
  0.21360000000000001          1.6030899132601917E-006
  0.21470000000000000          8.5429712726181606E-007
  0.21579999999999999          9.5413682288381096E-008
  0.21690000000000004         -6.7205866116637480E-007
  0.21800000000000003         -1.4463877278103610E-006
  0.21910000000000002         -2.2257024738792097E-006
  0.22020000000000001         -3.0083895126153948E-006
  0.22130000000000000         -3.7932143186480971E-006
  0.22239999999999999         -4.5790443436999340E-006
  0.22350000000000003         -5.3644648687622976E-006
  0.22460000000000002         -6.1476143855543341E-006
  0.22570000000000001         -6.9263610384950880E-006
  0.22680000000000000         -7.6989626904833131E-006
  0.22789999999999999         -8.4645216702483594E-006
  0.22900000000000004         -9.2226155175012536E-006
  0.23010000000000003         -9.9727767519652843E-006
  0.23120000000000002         -1.0714139534684364E-005
  0.23230000000000001         -1.1445378731878009E-005
  0.23340000000000000         -1.2165149200882297E-005
  0.23450000000000004         -1.2872545084974263E-005
  0.23560000000000003         -1.3566885172622278E-005
  0.23670000000000002         -1.4247250874177553E-005
  0.23780000000000001         -1.4912372535036411E-005
  0.23890000000000000         -1.5560770407319069E-005
  0.23999999999999999         -1.6191192116821185E-005
  0.24110000000000004         -1.6802920072223060E-005
  0.24220000000000003         -1.7395679606124759E-005
  0.24330000000000002         -1.7969345208257437E-005
  0.24440000000000001         -1.8523600374464877E-005
  0.24550000000000000         -1.9057957615586929E-005
  0.24660000000000004         -1.9571922166505828E-005
  0.24770000000000003         -2.0065022908966057E-005
  0.24880000000000002         -2.0536730517051183E-005
  0.24990000000000001         -2.0986532035749406E-005
  0.25100000000000000         -2.1413965441752225E-005
  0.25209999999999999         -2.1818652385263704E-005
  0.25320000000000004         -2.2200340026756749E-005
  0.25430000000000003         -2.2558797354577109E-005
  0.25540000000000002         -2.2893738787388429E-005
  0.25650000000000001         -2.3204798708320595E-005
  0.25760000000000000         -2.3491706087952480E-005
  0.25870000000000004         -2.3754557332722470E-005
  0.25980000000000003         -2.3993645299924538E-005
  0.26090000000000002         -2.4209002731367946E-005
  0.26200000000000001         -2.4400223992415704E-005
  0.26310000000000000         -2.4566697902628221E-005
  0.26419999999999999         -2.4707989723538049E-005
  0.26530000000000004         -2.4824092179187573E-005
  0.26640000000000003         -2.4915540052461438E-005
  0.26750000000000002         -2.4982935428852215E-005
  0.26860000000000001         -2.5026425646501593E-005
  0.26970000000000000         -2.5045703296200372E-005
  0.27080000000000004         -2.5040317268576473E-005
  0.27190000000000003         -2.5010182071127929E-005
  0.27300000000000002         -2.4955623302957974E-005
  0.27410000000000001         -2.4876993848010898E-005
  0.27520000000000000         -2.4774390112725087E-005
  0.27629999999999999         -2.4647664758958854E-005
  0.27740000000000004         -2.4496734113199636E-005
  0.27850000000000003         -2.4321867385879159E-005
  0.27960000000000002         -2.4123653929564171E-005
  0.28070000000000001         -2.3902728571556509E-005
  0.28179999999999999         -2.3659389626118354E-005
  0.28290000000000004         -2.3393406081595458E-005
  0.28400000000000003         -2.3104239517124370E-005
  0.28510000000000002         -2.2791507944930345E-005
  0.28620000000000001         -2.2455225916928612E-005
  0.28730000000000000         -2.2095693566370755E-005
  0.28840000000000005         -2.1713580281357281E-005
  0.28950000000000004         -2.1309853764250875E-005
  0.29060000000000002         -2.0885487174382433E-005
  0.29170000000000001         -2.0441188098629937E-005
  0.29280000000000000         -1.9977123884018511E-005
  0.29389999999999999         -1.9492947103572078E-005
  0.29500000000000004         -1.8988219380844384E-005
  0.29610000000000003         -1.8462789739714935E-005
  0.29720000000000002         -1.7917007426149212E-005
  0.29830000000000001         -1.7351600035908632E-005
  0.29940000000000000         -1.6767362467362545E-005
  0.30050000000000004         -1.6165013221325353E-005
  0.30160000000000003         -1.5545205314992927E-005
  0.30270000000000002         -1.4908805496816058E-005
  0.30380000000000001         -1.4256931535783224E-005
  0.30490000000000000         -1.3590556591225322E-005
  0.30599999999999999         -1.2910011719213799E-005
  0.30709999999999998         -1.2215019523864612E-005
  0.30819999999999997         -1.1505075235618278E-005
  0.30930000000000007         -1.0780022421386093E-005
  0.31040000000000006         -1.0040605957328808E-005
  0.31150000000000005         -9.2884092737222090E-006
  0.31260000000000004         -8.5251786003937013E-006
  0.31370000000000003         -7.7521835919469595E-006
  0.31480000000000002         -6.9702605287602637E-006
  0.31590000000000001         -6.1800437833881006E-006
  0.31700000000000000         -5.3823155212739948E-006
  0.31809999999999999         -4.5780711843690369E-006
  0.31919999999999998         -3.7682295896956930E-006
  0.32029999999999997         -2.9535365229094168E-006
  0.32140000000000007         -2.1345556433516322E-006
  0.32250000000000006         -1.3118142305756919E-006
  0.32360000000000005         -4.8610223757350468E-007
  0.32470000000000004          3.4144858318541083E-007
  0.32580000000000003          1.1693249462041422E-006
  0.32690000000000002          1.9958592929469887E-006
  0.32800000000000001          2.8196570838190382E-006
  0.32910000000000000          3.6395881579665001E-006
  0.33019999999999999          4.4548082769324537E-006
  0.33129999999999998          5.2647155825980008E-006
  0.33239999999999997          6.0686934375553392E-006
  0.33350000000000007          6.8657745941891335E-006
  0.33460000000000006          7.6545647971215658E-006
  0.33570000000000005          8.4334533312357962E-006
  0.33680000000000004          9.2010623120586388E-006
  0.33790000000000003          9.9564604170154780E-006
  0.33900000000000002          1.0698917321860790E-005
  0.34010000000000001          1.1427564459154382E-005
  0.34120000000000000          1.2141185834479984E-005
  0.34229999999999999          1.2838397196901496E-005
  0.34339999999999998          1.3517997103917878E-005
  0.34449999999999997          1.4179174286255147E-005
  0.34560000000000007          1.4821388504060451E-005
  0.34670000000000006          1.5443969459738582E-005
  0.34780000000000005          1.6045783922891133E-005
  0.34890000000000004          1.6625408534309827E-005
