 -0.20000000000000001          0.0000000000000000
 -0.19890000000000002          0.0000000000000000
 -0.19780000000000000          0.0000000000000000
 -0.19670000000000001          0.0000000000000000
 -0.19560000000000002          0.0000000000000000
 -0.19450000000000001          0.0000000000000000
 -0.19340000000000002          0.0000000000000000
 -0.19230000000000000          0.0000000000000000
 -0.19120000000000001          0.0000000000000000
 -0.19010000000000002          0.0000000000000000
 -0.18900000000000000          2.0124664064274265E-027
 -0.18790000000000001         -3.1287154110414456E-026
 -0.18680000000000002         -4.6217822158133901E-025
 -0.18570000000000000         -2.1302056730094432E-024
 -0.18460000000000001         -2.9521809868793700E-024
 -0.18350000000000000          1.2534576954516679E-023
 -0.18240000000000001          7.0534723041113933E-023
 -0.18130000000000002          1.2950684042625210E-022
 -0.18020000000000000         -7.3191770652966587E-023
 -0.17910000000000001         -9.1780192411894146E-022
 -0.17800000000000002         -1.9593368200613179E-021
 -0.17690000000000000         -5.9660310803610840E-022
 -0.17580000000000001          6.5078414497770279E-021
 -0.17470000000000002          1.5815607685895793E-020
 -0.17360000000000000          8.9894612395153212E-021
 -0.17250000000000001         -3.3938341653649888E-020
 -0.17140000000000000         -8.6299462501973277E-020
 -0.17030000000000001         -3.9293363536476139E-020
 -0.16920000000000002          2.0110293560236740E-019
 -0.16810000000000000          4.4527008296637597E-019
 -0.16700000000000001          7.9927140943851781E-020
 -0.16589999999999999         -1.3464340396988761E-018
 -0.16480000000000000         -2.7296044111721511E-018
 -0.16370000000000001         -7.6796957674040999E-019
 -0.16260000000000002          7.1587444486534097E-018
 -0.16150000000000000          1.6294864151614832E-017
 -0.16040000000000001          1.0826113387314425E-017
 -0.15930000000000000         -2.4825126168259753E-017
 -0.15820000000000001         -7.7237566180665332E-017
 -0.15710000000000002         -8.2997740946574297E-017
 -0.15600000000000000          3.7289206060939431E-017
 -0.15490000000000001          2.7183055458667891E-016
 -0.15379999999999999          4.1545729924116032E-016
 -0.15270000000000000          1.3920758848019851E-016
 -0.15160000000000001         -6.7006251240313698E-016
 -0.15050000000000002         -1.4981180570511191E-015
 -0.14940000000000001         -1.2398567585212173E-015
 -0.14830000000000002          8.9876167285959409E-016
 -0.14720000000000000          4.0197164004232133E-015
 -0.14610000000000001          5.0960310021038856E-015
 -0.14500000000000002          9.3871907571777642E-016
 -0.14390000000000000         -7.8850449525833324E-015
 -0.14280000000000001         -1.4596590131249823E-014
 -0.14169999999999999         -9.5638566307448304E-015
 -0.14060000000000000          1.0141492443190795E-014
 -0.13950000000000001          3.2164392270482914E-014
 -0.13840000000000002          3.2616768850688913E-014
 -0.13730000000000001         -3.5214632452445008E-015
 -0.13619999999999999         -5.8485910613224196E-014
 -0.13510000000000000         -8.0832286393842101E-014
 -0.13400000000000001         -2.4087675620397195E-014
 -0.13290000000000002          9.5301364185212262E-014
 -0.13180000000000000          1.7721794084296638E-013
 -0.13070000000000001          1.0242739138409049E-013
 -0.12959999999999999         -1.4030431276425975E-013
 -0.12850000000000000         -3.7456504369502708E-013
 -0.12740000000000001         -3.2490836735475648E-013
 -0.12630000000000002          1.2865469594617457E-013
 -0.12520000000000001          7.2373189255806047E-013
 -0.12410000000000000          8.8729533703063579E-013
 -0.12300000000000001          1.9115942552841436E-013
 -0.12190000000000001         -1.1043144480457623E-012
 -0.12080000000000000         -1.9649043676850386E-012
 -0.11970000000000000         -1.2804306226410489E-012
 -0.11860000000000001          1.0136306941369022E-012
 -0.11750000000000001          3.3745148602520869E-012
 -0.11640000000000000          3.4969464390161020E-012
 -0.11530000000000000          3.1419192334652957E-013
 -0.11420000000000001         -4.4081201362733413E-012
 -0.11310000000000001         -6.6868923592755536E-012
 -0.11200000000000000         -3.4130591148456846E-012
 -0.11090000000000001          4.2370976519046089E-012
 -0.10980000000000001          1.0384895200721278E-011
 -0.10870000000000000          8.5551097456226799E-012
 -0.10760000000000000         -2.1629694563207735E-012
 -0.10650000000000001         -1.4307294932125458E-011
 -0.10540000000000001         -1.6527643836861117E-011
 -0.10430000000000000         -3.3883278127699867E-012
 -0.10320000000000000          1.7406302094125081E-011
 -0.10210000000000001          2.8275028152169313E-011
 -0.10100000000000001          1.5632915101315703E-011
  -9.9900000000000003E-002    -1.5828506907955564E-011
  -9.8799999999999999E-002    -4.2125296306760873E-011
  -9.7700000000000009E-002    -3.7091382049103672E-011
  -9.6600000000000005E-002     3.5619784032048241E-012
  -9.5500000000000002E-002     5.2166212322068972E-011
  -9.4400000000000012E-002     6.6280377020166981E-011
  -9.3300000000000008E-002     2.4125670211594397E-011
  -9.2200000000000004E-002    -5.0190868822186374E-011
  -9.1100000000000000E-002    -9.7564824275142570E-011
  -9.0000000000000011E-002    -6.9372826927427411E-011
  -8.8900000000000007E-002     2.6298968211491136E-011
  -8.7800000000000003E-002     1.1966160007315096E-010
  -8.6699999999999999E-002     1.2865555842900278E-010
  -8.5600000000000009E-002     2.9199857809469876E-011
  -8.4500000000000006E-002    -1.1274049749321335E-010
  -8.3400000000000002E-002    -1.8293343229114356E-010
  -8.2299999999999998E-002    -1.1039723302186388E-010
  -8.1200000000000008E-002     6.3947999673352740E-011
  -8.0100000000000005E-002     2.0570427305965922E-010
  -7.9000000000000001E-002     1.8976645255186497E-010
  -7.7899999999999997E-002     9.9693447941362479E-012
  -7.6800000000000007E-002    -1.9912178850223228E-010
  -7.5700000000000003E-002    -2.5941254699901606E-010
  -7.4600000000000000E-002    -9.7228079753985952E-011
  -7.3500000000000010E-002     1.7900507465196114E-010
  -7.2399999999999992E-002     3.4690642025658747E-010
  -7.1300000000000002E-002     2.4393606579131699E-010
  -7.0200000000000012E-002    -8.7677205773406541E-011
  -6.9099999999999995E-002    -4.0969319603512133E-010
  -6.8000000000000005E-002    -4.5959189232114284E-010
  -6.6900000000000015E-002    -1.6061076080209347E-010
  -6.5799999999999997E-002     2.9718436045378382E-010
  -6.4700000000000008E-002     5.8136701008848490E-010
  -6.3599999999999990E-002     4.6451062440944213E-010
  -6.2500000000000000E-002     8.2384090868692361E-012
  -6.1400000000000010E-002    -4.6441511747374875E-010
  -6.0299999999999992E-002    -6.0031285498141074E-010
  -5.9200000000000003E-002    -2.8498572945956369E-010
  -5.8100000000000013E-002     2.5525098701351112E-010
  -5.6999999999999995E-002     6.0590915618163876E-010
  -5.5900000000000005E-002     4.7144982362468113E-010
  -5.4800000000000015E-002    -8.5933551940975406E-011
  -5.3699999999999998E-002    -6.6194655312656892E-010
  -5.2600000000000008E-002    -7.8919948354183589E-010
  -5.1499999999999990E-002    -2.9236066345639244E-010
  -5.0400000000000000E-002     5.4136628513390406E-010
  -4.9300000000000010E-002     1.1247044406914597E-009
  -4.8199999999999993E-002     9.8007590931814548E-010
  -4.7100000000000003E-002     1.1506591512944198E-010
  -4.6000000000000013E-002    -9.2586349698109416E-010
  -4.4899999999999995E-002    -1.4120409286277891E-009
  -4.3800000000000006E-002    -9.5897945140421825E-010
  -4.2699999999999988E-002     1.4762308042648442E-010
  -4.1599999999999998E-002     1.1138733269078216E-009
  -4.0500000000000008E-002     1.2149546924078436E-009
  -3.9399999999999991E-002     3.7612563064115534E-010
  -3.8300000000000001E-002    -7.1039912841186492E-010
  -3.7200000000000011E-002    -1.0838059338880157E-009
  -3.6099999999999993E-002    -2.9549082625202061E-010
  -3.5000000000000003E-002     1.1356627860337198E-009
  -3.3900000000000013E-002     2.0114165888429625E-009
  -3.2799999999999996E-002     1.3446121993609950E-009
  -3.1700000000000006E-002    -7.9991752111041592E-010
  -3.0599999999999988E-002    -3.2002021033150641E-009
  -2.9499999999999998E-002    -4.2718251158646581E-009
  -2.8400000000000009E-002    -3.2206917133237312E-009
  -2.7299999999999991E-002    -6.8233613204071730E-010
  -2.6200000000000001E-002     1.6799316382432039E-009
  -2.5100000000000011E-002     2.3597772624839308E-009
  -2.3999999999999994E-002     1.0946692441393679E-009
  -2.2900000000000004E-002    -9.8002062021151914E-010
  -2.1800000000000014E-002    -2.2409372135712147E-009
  -2.0699999999999996E-002    -1.8578882876596481E-009
  -1.9600000000000006E-002    -4.5428630301991291E-010
  -1.8499999999999989E-002     3.7738004388110369E-010
  -1.7399999999999999E-002    -6.4934846388808865E-010
  -1.6300000000000009E-002    -3.4188185615846578E-009
  -1.5199999999999991E-002    -6.3485505741311954E-009
  -1.4100000000000001E-002    -7.4486297130249568E-009
  -1.3000000000000012E-002    -5.7635523020849178E-009
  -1.1899999999999994E-002    -2.1568380415004640E-009
  -1.0800000000000004E-002     1.1522992560131229E-009
  -9.6999999999999864E-003     2.0180341842035432E-009
  -8.5999999999999965E-003    -2.0482845974889585E-010
  -7.5000000000000067E-003    -4.2266221633724399E-009
  -6.3999999999999890E-003    -7.7101462991890912E-009
  -5.2999999999999992E-003    -8.8959843935754179E-009
  -4.2000000000000093E-003    -7.8376505285859821E-009
  -3.0999999999999917E-003    -6.3400733552043675E-009
  -2.0000000000000018E-003    -6.5818328565114825E-009
  -9.0000000000001190E-004    -9.3750109897428047E-009
   2.0000000000000573E-004    -1.3370925699973668E-008
   1.2999999999999956E-003    -1.5920150531201216E-008
   2.4000000000000132E-003    -1.5084600235582002E-008
   3.5000000000000031E-003    -1.1341612093929143E-008
   4.5999999999999930E-003    -7.5989916581420403E-009
   5.7000000000000106E-003    -7.3198651584505114E-009
   6.8000000000000005E-003    -1.2023463114019250E-008
   7.8999999999999904E-003    -2.0036933889855391E-008
   9.0000000000000080E-003    -2.7548459513582202E-008
   1.0099999999999998E-002    -3.1289161483982753E-008
   1.1199999999999988E-002    -3.0866694089581870E-008
   1.2300000000000005E-002    -2.8962858777958900E-008
   1.3399999999999995E-002    -2.9218305996892013E-008
   1.4500000000000013E-002    -3.3426989176632560E-008
   1.5600000000000003E-002    -4.0216566077333482E-008
   1.6699999999999993E-002    -4.6234404749156965E-008
   1.7800000000000010E-002    -4.8898460391910703E-008
   1.8900000000000000E-002    -4.8560238496975217E-008
   1.9999999999999990E-002    -4.8407372332803789E-008
   2.1100000000000008E-002    -5.2190340937841029E-008
   2.2199999999999998E-002    -6.1496329806232097E-008
   2.3300000000000015E-002    -7.4575360997641837E-008
   2.4400000000000005E-002    -8.7519012481607206E-008
   2.5499999999999995E-002    -9.6887688982860709E-008
   2.6600000000000013E-002    -1.0193568300564948E-007
   2.7700000000000002E-002    -1.0497605984483016E-007
   2.8799999999999992E-002    -1.0975329445273019E-007
   2.9900000000000010E-002    -1.1898364959961327E-007
   3.1000000000000000E-002    -1.3268318355130759E-007
   3.2099999999999990E-002    -1.4833875638942118E-007
   3.3200000000000007E-002    -1.6279031456178927E-007
   3.4299999999999997E-002    -1.7458967249694979E-007
   3.5400000000000015E-002    -1.8522929678965738E-007
   3.6500000000000005E-002    -1.9828533481813793E-007
   3.7599999999999995E-002    -2.1690567564291996E-007
   3.8700000000000012E-002    -2.4134899945238431E-007
   3.9800000000000002E-002    -2.6847135359275853E-007
   4.0899999999999992E-002    -2.9380416322055680E-007
   4.2000000000000010E-002    -3.1490208129980601E-007
   4.3099999999999999E-002    -3.3344508665322792E-007
   4.4200000000000017E-002    -3.5429070521786343E-007
   4.5300000000000007E-002    -3.8196907325982465E-007
   4.6399999999999997E-002    -4.1725243704604509E-007
   4.7500000000000014E-002    -4.5658040903617803E-007
   4.8600000000000004E-002    -4.9494485665491084E-007
   4.9699999999999994E-002    -5.3000684374637785E-007
   5.0800000000000012E-002    -5.6412523008475546E-007
   5.1900000000000002E-002    -6.0262397028054693E-007
   5.2999999999999992E-002    -6.4970765834004851E-007
   5.4099999999999981E-002    -7.0535247687075753E-007
   5.5200000000000027E-002    -7.6561957484955201E-007
   5.6300000000000017E-002    -8.2595801131901680E-007
   5.7400000000000007E-002    -8.8469067804908263E-007
   5.8499999999999996E-002    -9.4397347538688336E-007
   5.9599999999999986E-002    -1.0078027798954281E-006
   6.0700000000000032E-002    -1.0790323585752049E-006
   6.1800000000000022E-002    -1.1578117664612364E-006
   6.2900000000000011E-002    -1.2422887039065245E-006
   6.4000000000000001E-002    -1.3305093489179853E-006
   6.5099999999999991E-002    -1.4218384194464306E-006
   6.6199999999999981E-002    -1.5171327731877682E-006
   6.7300000000000026E-002    -1.6181057844733004E-006
   6.8400000000000016E-002    -1.7265934957322315E-006
   6.9500000000000006E-002    -1.8439145605952945E-006
   7.0599999999999996E-002    -1.9701908513525268E-006
   7.1699999999999986E-002    -2.1038852082710946E-006
   7.2800000000000031E-002    -2.2423203063226538E-006
   7.3900000000000021E-002    -2.3834820694901282E-006
   7.5000000000000011E-002    -2.5280662612203741E-006
   7.6100000000000001E-002    -2.6798431917995913E-006
   7.7199999999999991E-002    -2.8433892111934256E-006
   7.8299999999999981E-002    -3.0206240353436442E-006
   7.9400000000000026E-002    -3.2091816137835849E-006
   8.0500000000000016E-002    -3.4045181109831901E-006
   8.1600000000000006E-002    -3.6043220461579040E-006
   8.2699999999999996E-002    -3.8112962101877201E-006
   8.3799999999999986E-002    -4.0314325815415941E-006
   8.4900000000000031E-002    -4.2688798203016631E-006
   8.6000000000000021E-002    -4.5219862840895075E-006
   8.7100000000000011E-002    -4.7844482651271392E-006
   8.8200000000000001E-002    -5.0508861022535712E-006
   8.9299999999999990E-002    -5.3219669098325539E-006
   9.0399999999999980E-002    -5.6043422773655038E-006
   9.1500000000000026E-002    -5.9052845244877972E-006
   9.2600000000000016E-002    -6.2268813962873537E-006
   9.3700000000000006E-002    -6.5650965552777052E-006
   9.4799999999999995E-002    -6.9143443397479132E-006
   9.5899999999999985E-002    -7.2729872044874355E-006
   9.7000000000000031E-002    -7.6444330261438154E-006
   9.8100000000000021E-002    -8.0330955825047567E-006
   9.9200000000000010E-002    -8.4395842350204475E-006
  0.10030000000000000         -8.8601382230990566E-006
  0.10139999999999999         -9.2909567683818750E-006
  0.10249999999999998         -9.7328093033866026E-006
  0.10360000000000003         -1.0190908142249100E-005
  0.10470000000000002         -1.0669998118828516E-005
  0.10580000000000001         -1.1169641766173299E-005
  0.10690000000000000         -1.1684735909511801E-005
  0.10799999999999998         -1.2211047760501970E-005
  0.10910000000000003         -1.2750030691677239E-005
  0.11020000000000002         -1.3307749213709030E-005
  0.11130000000000001         -1.3888667126593646E-005
  0.11240000000000000         -1.4490641660813708E-005
  0.11349999999999999         -1.5106587852642406E-005
  0.11460000000000004         -1.5731617168057710E-005
  0.11570000000000003         -1.6368454453186132E-005
  0.11680000000000001         -1.7025204215315171E-005
  0.11790000000000000         -1.7707336155581288E-005
  0.11899999999999999         -1.8411843484500423E-005
  0.12009999999999998         -1.9129911379422992E-005
  0.12120000000000003         -1.9855820937664248E-005
  0.12230000000000002         -2.0593050066963769E-005
  0.12340000000000001         -2.1350995666580275E-005
  0.12450000000000000         -2.2135087419883348E-005
  0.12559999999999999         -2.2940143026062287E-005
  0.12670000000000003         -2.3754169887979515E-005
  0.12780000000000002         -2.4569566448917612E-005
  0.12890000000000001         -2.5390783775947057E-005
  0.13000000000000000         -2.6230296498397365E-005
  0.13109999999999999         -2.7096242774860002E-005
  0.13219999999999998         -2.7983853215118870E-005
  0.13330000000000003         -2.8879472665721551E-005
  0.13440000000000002         -2.9773431378998794E-005
  0.13550000000000001         -3.0669067200506106E-005
  0.13660000000000000         -3.1578489142702892E-005
  0.13769999999999999         -3.2509189622942358E-005
  0.13880000000000003         -3.3454944059485570E-005
  0.13990000000000002         -3.4400680306134745E-005
  0.14100000000000001         -3.5337048757355660E-005
  0.14210000000000000         -3.6269979318603873E-005
  0.14319999999999999         -3.7214900658000261E-005
  0.14429999999999998         -3.8180514820851386E-005
  0.14540000000000003         -3.9158247091108933E-005
  0.14650000000000002         -4.0128412365447730E-005
  0.14760000000000001         -4.1077964851865545E-005
  0.14870000000000000         -4.2012292396975681E-005
  0.14979999999999999         -4.2948988266289234E-005
  0.15090000000000003         -4.3899221054743975E-005
  0.15200000000000002         -4.4855209125671536E-005
  0.15310000000000001         -4.5796437916578725E-005
  0.15420000000000000         -4.6708402805961668E-005
  0.15529999999999999         -4.7595589421689510E-005
  0.15639999999999998         -4.8475212679477409E-005
  0.15750000000000003         -4.9357775424141437E-005
  0.15860000000000002         -5.0234324589837343E-005
  0.15970000000000001         -5.1083556172670797E-005
  0.16080000000000000         -5.1891824114136398E-005
  0.16189999999999999         -5.2665749535663053E-005
  0.16300000000000003         -5.3424217185238376E-005
  0.16410000000000002         -5.4177242418518290E-005
  0.16520000000000001         -5.4912892665015534E-005
  0.16630000000000000         -5.5606666137464345E-005
  0.16739999999999999         -5.6244036386488006E-005
  0.16850000000000004         -5.6833563576219603E-005
  0.16960000000000003         -5.7397101045353338E-005
  0.17070000000000002         -5.7945857406593859E-005
  0.17180000000000001         -5.8466474001761526E-005
  0.17290000000000000         -5.8931345847668126E-005
  0.17399999999999999         -5.9323312598280609E-005
  0.17510000000000003         -5.9650497860275209E-005
  0.17620000000000002         -5.9936082834610716E-005
  0.17730000000000001         -6.0192549426574260E-005
  0.17840000000000000         -6.0406771808629856E-005
  0.17949999999999999         -6.0550893977051601E-005
  0.18060000000000004         -6.0609028878388926E-005
  0.18170000000000003         -6.0592286899918690E-005
  0.18280000000000002         -6.0525526350829750E-005
  0.18390000000000001         -6.0419919464038685E-005
  0.18500000000000000         -6.0258196754148230E-005
  0.18609999999999999         -6.0008347645634785E-005
  0.18720000000000003         -5.9653186326613650E-005
  0.18830000000000002         -5.9206136938882992E-005
  0.18940000000000001         -5.8697103668237105E-005
  0.19050000000000000         -5.8141249610343948E-005
  0.19159999999999999         -5.7522276620147750E-005
  0.19270000000000004         -5.6807133660186082E-005
  0.19380000000000003         -5.5976553994696587E-005
  0.19490000000000002         -5.5041909945430234E-005
  0.19600000000000001         -5.4031886975280941E-005
  0.19710000000000000         -5.2961659093853086E-005
  0.19819999999999999         -5.1816226914525032E-005
  0.19930000000000003         -5.0564060074975714E-005
  0.20040000000000002         -4.9188620323548093E-005
  0.20150000000000001         -4.7705216275062412E-005
  0.20260000000000000         -4.6145240048645064E-005
  0.20369999999999999         -4.4523403630591929E-005
  0.20480000000000004         -4.2821426177397370E-005
  0.20590000000000003         -4.1005045204656199E-005
  0.20700000000000002         -3.9057089452398941E-005
  0.20810000000000001         -3.6995515984017402E-005
  0.20920000000000000         -3.4856177080655470E-005
  0.21029999999999999         -3.2658128475304693E-005
  0.21140000000000003         -3.0385559512069449E-005
  0.21250000000000002         -2.8004105843137950E-005
  0.21360000000000001         -2.5496090529486537E-005
  0.21470000000000000         -2.2878055460751057E-005
  0.21579999999999999         -2.0184788809274323E-005
  0.21690000000000004         -1.7435568224755116E-005
  0.21800000000000003         -1.4617230590374675E-005
  0.21910000000000002         -1.1700115464918781E-005
  0.22020000000000001         -8.6710888353991322E-006
  0.22130000000000000         -5.5501127462775912E-006
  0.22239999999999999         -2.3728623546048766E-006
  0.22350000000000003          8.4277712630864698E-007
  0.22460000000000002          4.1128955672320444E-006
  0.22570000000000001          7.4690560722956434E-006
  0.22680000000000000          1.0923596164502669E-005
  0.22789999999999999          1.4452767572947778E-005
  0.22900000000000004          1.8015896785072982E-005
  0.23010000000000003          2.1591160475509241E-005
  0.23120000000000002          2.5192186512867920E-005
  0.23230000000000001          2.8849211958004162E-005
  0.23340000000000000          3.2574112992733717E-005
  0.23450000000000004          3.6344947147881612E-005
  0.23560000000000003          4.0123395592672750E-005
  0.23670000000000002          4.3887572246603668E-005
  0.23780000000000001          4.7648616600781679E-005
  0.23890000000000000          5.1432602049317211E-005
  0.23999999999999999          5.5246757256099954E-005
  0.24110000000000004          5.9066169342258945E-005
  0.24220000000000003          6.2852486735209823E-005
  0.24330000000000002          6.6586202592588961E-005
  0.24440000000000001          7.0280133513733745E-005
  0.24550000000000000          7.3959854489658028E-005
  0.24660000000000004          7.7632910688407719E-005
  0.24770000000000003          8.1275626143906265E-005
  0.24880000000000002          8.4849634731654078E-005
  0.24990000000000001          8.8332759332843125E-005
  0.25100000000000000          9.1733294539153576E-005
  0.25209999999999999          9.5074203272815794E-005
  0.25320000000000004          9.8363896540831774E-005
  0.25430000000000003          1.0158275108551607E-004
  0.25540000000000002          1.0469779226696119E-004
  0.25650000000000001          1.0768962965812534E-004
  0.25760000000000000          1.1056461517000571E-004
  0.25870000000000004          1.1334101145621389E-004
  0.25980000000000003          1.1602408631006256E-004
  0.26090000000000002          1.1859519145218655E-004
  0.26200000000000001          1.2102505570510402E-004
  0.26310000000000000          1.2329795572441071E-004
  0.26419999999999999          1.2542241893243045E-004
  0.26530000000000004          1.2741776299662888E-004
  0.26640000000000003          1.2929069634992629E-004
  0.26750000000000002          1.3102505181450397E-004
  0.26860000000000001          1.3259421393740922E-004
  0.26970000000000000          1.3398329610936344E-004
  0.27080000000000004          1.3519921049010009E-004
  0.27190000000000003          1.3625987048726529E-004
  0.27300000000000002          1.3717403635382652E-004
  0.27410000000000001          1.3793146354146302E-004
  0.27520000000000000          1.3851218682248145E-004
  0.27629999999999999          1.3890510308556259E-004
  0.27740000000000004          1.3911702262703329E-004
  0.27850000000000003          1.3916428724769503E-004
  0.27960000000000002          1.3905587547924370E-004
  0.28070000000000001          1.3878439494874328E-004
  0.28179999999999999          1.3833399862051010E-004
  0.28290000000000004          1.3769650831818581E-004
  0.28400000000000003          1.3687970931641757E-004
  0.28510000000000002          1.3590122398454696E-004
  0.28620000000000001          1.3477397442329675E-004
  0.28730000000000000          1.3349660730455071E-004
  0.28840000000000005          1.3205796130932868E-004
  0.28950000000000004          1.3045019295532256E-004
  0.29060000000000002          1.2867836630903184E-004
  0.29170000000000001          1.2675864854827523E-004
  0.29280000000000000          1.2470674118958414E-004
  0.29389999999999999          1.2252782471477985E-004
  0.29500000000000004          1.2021714064758271E-004
  0.29610000000000003          1.1776938481489196E-004
  0.29720000000000002          1.1518810788402334E-004
  0.29830000000000001          1.1248691589571536E-004
  0.29940000000000000          1.0968177957693115E-004
  0.30050000000000004          1.0678181570256129E-004
  0.30160000000000003          1.0378661681897938E-004
  0.30270000000000002          1.0069258132716641E-004
  0.30380000000000001          9.7501811978872865E-005
  0.30490000000000000          9.4226532382890582E-005
  0.30599999999999999          9.0884808741975576E-005
  0.30709999999999998          8.7490552687086165E-005
  0.30819999999999997          8.4046732808928937E-005
  0.30930000000000007          8.0548124969936907E-005
  0.31040000000000006          7.6992182584945112E-005
  0.31150000000000005          7.3388029704801738E-005
  0.31260000000000004          6.9755049480590969E-005
  0.31370000000000003          6.6111475462093949E-005
  0.31480000000000002          6.2464023358188570E-005
  0.31590000000000001          5.8808236644836143E-005
  0.31700000000000000          5.5139451433205977E-005
  0.31809999999999999          5.1464256102917716E-005
  0.31919999999999998          4.7800705942790955E-005
  0.32029999999999997          4.4166819861857221E-005
  0.32140000000000007          4.0568480471847579E-005
  0.32250000000000006          3.6998830182710662E-005
  0.32360000000000005          3.3450236514909193E-005
  0.32470000000000004          2.9927714422228746E-005
  0.32580000000000003          2.6450143195688725E-005
  0.32690000000000002          2.3037473511067219E-005
  0.32800000000000001          1.9696051822393201E-005
  0.32910000000000000          1.6417070582974702E-005
  0.33019999999999999          1.3189663150114939E-005
  0.33129999999999998          1.0016131454904098E-005
  0.33239999999999997          6.9143006840022281E-006
  0.33350000000000007          3.9033152461342979E-006
  0.33460000000000006          9.8737507414625725E-007
  0.33570000000000005         -1.8450837160344236E-006
  0.33680000000000004         -4.6070285861787852E-006
  0.33790000000000003         -7.2970178734976798E-006
  0.33900000000000002         -9.8976252047577873E-006
  0.34010000000000001         -1.2390979463816620E-005
  0.34120000000000000         -1.4775141607969999E-005
  0.34229999999999999         -1.7065656720660627E-005
  0.34339999999999998         -1.9278641048003919E-005
  0.34449999999999997         -2.1412197384051979E-005
  0.34560000000000007         -2.3446731574949808E-005
  0.34670000000000006         -2.5363793611177243E-005
  0.34780000000000005         -2.7164593120687641E-005
  0.34890000000000004         -2.8869235393358395E-005
