 -0.20000000000000001          0.0000000000000000
 -0.19890000000000002          0.0000000000000000
 -0.19780000000000000          0.0000000000000000
 -0.19670000000000001          0.0000000000000000
 -0.19560000000000002          0.0000000000000000
 -0.19450000000000001          1.1405330267975236E-021
 -0.19340000000000002          1.3951922913786939E-020
 -0.19230000000000000          7.1938275824254389E-020
 -0.19120000000000001          2.0280224892388689E-019
 -0.19010000000000002          2.9987437534882234E-019
 -0.18900000000000000          2.9119946730868878E-020
 -0.18790000000000001         -8.3173010592206933E-019
 -0.18680000000000002         -1.5736949853601904E-018
 -0.18570000000000000         -4.3903753554473033E-019
 -0.18460000000000001          3.1477216701460145E-018
 -0.18350000000000000          5.2268823260092898E-018
 -0.18240000000000001         -1.1017074855962345E-018
 -0.18130000000000002         -1.4473147744977048E-017
 -0.18020000000000000         -1.4184458402473591E-017
 -0.17910000000000001          2.5283126147263013E-017
 -0.17800000000000002          8.3558655428668955E-017
 -0.17690000000000000          5.7352031758327239E-017
 -0.17580000000000001         -1.6260748245302940E-016
 -0.17470000000000002         -4.7416777332353645E-016
 -0.17360000000000000         -4.1189817267591616E-016
 -0.17250000000000001          5.5541745002521468E-016
 -0.17140000000000000          2.1646676591241965E-015
 -0.17030000000000001          2.6486754141959862E-015
 -0.16920000000000002         -4.3432572576485831E-016
 -0.16810000000000000         -7.2101994039457280E-015
 -0.16700000000000001         -1.2370284308070405E-014
 -0.16589999999999999         -6.4794611157341277E-015
 -0.16480000000000000          1.5288653318606266E-014
 -0.16370000000000001          4.1498349759782824E-014
 -0.16260000000000002          4.2945807093896018E-014
 -0.16150000000000000         -6.9534328009303748E-015
 -0.16040000000000001         -9.6342760700675323E-014
 -0.15930000000000000         -1.5549501519284553E-013
 -0.15820000000000001         -9.1180352385176328E-014
 -0.15710000000000002          1.2428002149535849E-013
 -0.15600000000000000          3.7286092182536867E-013
 -0.15490000000000001          4.1730765436114037E-013
 -0.15379999999999999          7.5359857243384454E-014
 -0.15270000000000000         -5.5589197524644196E-013
 -0.15160000000000001         -1.0352639969249400E-012
 -0.15050000000000002         -8.2782213159035556E-013
 -0.14940000000000001          2.2340248683090647E-013
 -0.14830000000000002          1.5709302348537735E-012
 -0.14720000000000000          2.1670415028401946E-012
 -0.14610000000000001          1.2186303398678544E-012
 -0.14500000000000002         -1.0176029940564546E-012
 -0.14390000000000000         -3.1288025555825660E-012
 -0.14280000000000001         -3.4364108780771119E-012
 -0.14169999999999999         -1.3425299283734149E-012
 -0.14060000000000000          1.9736835863565227E-012
 -0.13950000000000001          4.2637399687295297E-012
 -0.13840000000000002          3.9234917398323077E-012
 -0.13730000000000001          1.3097369326239838E-012
 -0.13619999999999999         -1.5780166886733560E-012
 -0.13510000000000000         -2.8853065769940400E-012
 -0.13400000000000001         -2.5323022758566571E-012
 -0.13290000000000002         -2.0213143225172869E-012
 -0.13180000000000000         -2.4590318930400867E-012
 -0.13070000000000001         -2.8130627167943789E-012
 -0.12959999999999999         -6.0350081052332194E-013
 -0.12850000000000000          5.0291134104374358E-012
 -0.12740000000000001          1.0792706138518238E-011
 -0.12630000000000002          1.0623579273227879E-011
 -0.12520000000000001          1.1702288443826703E-012
 -0.12410000000000000         -1.2966824662619114E-011
 -0.12300000000000001         -2.0093825908729102E-011
 -0.12190000000000001         -1.0141394668483628E-011
 -0.12080000000000000          1.4353752561535593E-011
 -0.11970000000000000          3.4977971907768080E-011
 -0.11860000000000001          2.8134028093318442E-011
 -0.11750000000000001         -1.4821359417549473E-011
 -0.11640000000000000         -7.2635480963256782E-011
 -0.11530000000000000         -9.9494697203272864E-011
 -0.11420000000000001         -5.3551447998234636E-011
 -0.11310000000000001          6.6487516880986419E-011
 -0.11200000000000000          2.0298544789465467E-010
 -0.11090000000000001          2.5959787097740161E-010
 -0.10980000000000001          1.5788810536765396E-010
 -0.10870000000000000         -9.8947641746782722E-011
 -0.10760000000000000         -3.9831038467497137E-010
 -0.10650000000000001         -5.5722038094785376E-010
 -0.10540000000000001         -4.2225772878268231E-010
 -0.10430000000000000          1.8634387435878530E-011
 -0.10320000000000000          5.8406396385990433E-010
 -0.10210000000000001          9.5918784026594039E-010
 -0.10100000000000001          8.6012108546640320E-010
  -9.9900000000000003E-002     2.2333734861490484E-010
  -9.8799999999999999E-002    -6.9708905314769254E-010
  -9.7700000000000009E-002    -1.4103098688877935E-009
  -9.6600000000000005E-002    -1.4371502876642239E-009
  -9.5500000000000002E-002    -6.0452104433394993E-010
  -9.4400000000000012E-002     7.8980055828736795E-010
  -9.3300000000000008E-002     2.0667840772148338E-009
  -9.2200000000000004E-002     2.4947801602337449E-009
  -9.1100000000000000E-002     1.6909529332309603E-009
  -9.0000000000000011E-002    -1.3533507647878196E-010
  -8.8900000000000007E-002    -2.2548949374368021E-009
  -8.7800000000000003E-002    -3.7870284685936895E-009
  -8.6699999999999999E-002    -4.1656904592457522E-009
  -8.5600000000000009E-002    -3.4375260415941966E-009
  -8.4500000000000006E-002    -2.2159405421717793E-009
  -8.3400000000000002E-002    -1.3146201904845611E-009
  -8.2299999999999998E-002    -1.2743941457671326E-009
  -8.1200000000000008E-002    -2.0630892549888813E-009
  -8.0100000000000005E-002    -3.1262132882403648E-009
  -7.9000000000000001E-002    -3.7549563458583179E-009
  -7.7899999999999997E-002    -3.5436131806676485E-009
  -7.6800000000000007E-002    -2.6513327089361383E-009
  -7.5700000000000003E-002    -1.7030089560776673E-009
  -7.4600000000000000E-002    -1.3918551866609619E-009
  -7.3500000000000010E-002    -2.0402008971132091E-009
  -7.2399999999999992E-002    -3.4077187738290604E-009
  -7.1300000000000002E-002    -4.8780322003949550E-009
  -7.0200000000000012E-002    -5.9011839859124393E-009
  -6.9099999999999995E-002    -6.3874154854204335E-009
  -6.8000000000000005E-002    -6.7668026737521814E-009
  -6.6900000000000015E-002    -7.6501320833699538E-009
  -6.5799999999999997E-002    -9.3100540610180360E-009
  -6.4700000000000008E-002    -1.1354749140934928E-008
  -6.3599999999999990E-002    -1.2870603249837131E-008
  -6.2500000000000000E-002    -1.3009089805393614E-008
  -6.1400000000000010E-002    -1.1673043864846022E-008
  -6.0299999999999992E-002    -9.8341548238067844E-009
  -5.9200000000000003E-002    -9.1907486066133970E-009
  -5.8100000000000013E-002    -1.1268347144266500E-008
  -5.6999999999999995E-002    -1.6444312578300924E-008
  -5.5900000000000005E-002    -2.3498579082570359E-008
  -5.4800000000000015E-002    -3.0050141930360041E-008
  -5.3699999999999998E-002    -3.3744289140713590E-008
  -5.2600000000000008E-002    -3.3585425995852347E-008
  -5.1499999999999990E-002    -3.0654643268235304E-008
  -5.0400000000000000E-002    -2.7735454821709027E-008
  -4.9300000000000010E-002    -2.7963062976255060E-008
  -4.8199999999999993E-002    -3.3183070513587154E-008
  -4.7100000000000003E-002    -4.2913651299159028E-008
  -4.6000000000000013E-002    -5.4508298319433379E-008
  -4.4899999999999995E-002    -6.4468906657566549E-008
  -4.3800000000000006E-002    -7.0227699211500294E-008
  -4.2699999999999988E-002    -7.1461734307831648E-008
  -4.1599999999999998E-002    -7.0263006080040213E-008
  -4.0500000000000008E-002    -7.0103176597058336E-008
  -3.9399999999999991E-002    -7.4155337870251969E-008
  -3.8300000000000001E-002    -8.3834997610665596E-008
  -3.7200000000000011E-002    -9.8264877124165650E-008
  -3.6099999999999993E-002    -1.1486537232485716E-007
  -3.5000000000000003E-002    -1.3070109616819536E-007
  -3.3900000000000013E-002    -1.4386375823960407E-007
  -3.2799999999999996E-002    -1.5420803833876562E-007
  -3.1700000000000006E-002    -1.6314446327214682E-007
  -3.0599999999999988E-002    -1.7271771923788037E-007
  -2.9499999999999998E-002    -1.8456601935668004E-007
  -2.8400000000000009E-002    -1.9935450268349086E-007
  -2.7299999999999991E-002    -2.1691374740839819E-007
  -2.6200000000000001E-002    -2.3682980554440292E-007
  -2.5100000000000011E-002    -2.5895826638588915E-007
  -2.3999999999999994E-002    -2.8346070735096873E-007
  -2.2900000000000004E-002    -3.1038547376738279E-007
  -2.1800000000000014E-002    -3.3921273256964923E-007
  -2.0699999999999996E-002    -3.6883963616674009E-007
  -1.9600000000000006E-002    -3.9814196384213574E-007
  -1.8499999999999989E-002    -4.2678166778387094E-007
  -1.7399999999999999E-002    -4.5569856865768088E-007
  -1.6300000000000009E-002    -4.8690588982935878E-007
  -1.5199999999999991E-002    -5.2266301509007462E-007
  -1.4100000000000001E-002    -5.6449476915076957E-007
  -1.3000000000000012E-002    -6.1258867845026543E-007
  -1.1899999999999994E-002    -6.6583430680111633E-007
  -1.0800000000000004E-002    -7.2240504778164905E-007
  -9.6999999999999864E-003    -7.8054637242530589E-007
  -8.5999999999999965E-003    -8.3923379179395852E-007
  -7.5000000000000067E-003    -8.9850107087841025E-007
  -6.3999999999999890E-003    -9.5939185484894551E-007
  -5.2999999999999992E-003    -1.0236047955913818E-006
  -4.2000000000000093E-003    -1.0929725249297917E-006
  -3.0999999999999917E-003    -1.1689622851918102E-006
  -2.0000000000000018E-003    -1.2523598797997693E-006
  -9.0000000000001190E-004    -1.3432091918730293E-006
   2.0000000000000573E-004    -1.4409598634301801E-006
   1.2999999999999956E-003    -1.5447061514350935E-006
   2.4000000000000132E-003    -1.6534344240426435E-006
   3.5000000000000031E-003    -1.7662786149230669E-006
   4.5999999999999930E-003    -1.8828163774742279E-006
   5.7000000000000106E-003    -2.0033485270687379E-006
   6.8000000000000005E-003    -2.1290122731443262E-006
   7.8999999999999904E-003    -2.2615824946115026E-006
   9.0000000000000080E-003    -2.4029695850913413E-006
   1.0099999999999998E-002    -2.5546171400492312E-006
   1.1199999999999988E-002    -2.7170688099431572E-006
   1.2300000000000005E-002    -2.8898828077217331E-006
   1.3399999999999995E-002    -3.0719113510713214E-006
   1.4500000000000013E-002    -3.2618120258121053E-006
   1.5600000000000003E-002    -3.4586048514029244E-006
   1.6699999999999993E-002    -3.6620892842620378E-006
   1.7800000000000010E-002    -3.8729731386411004E-006
   1.8900000000000000E-002    -4.0926452129497193E-006
   1.9999999999999990E-002    -4.3226596062595490E-006
   2.1100000000000008E-002    -4.5642368604603689E-006
   2.2199999999999998E-002    -4.8180877456616145E-006
   2.3300000000000015E-002    -5.0845437726820819E-006
   2.4400000000000005E-002    -5.3637700148101430E-006
   2.5499999999999995E-002    -5.6557814787083771E-006
   2.6600000000000013E-002    -5.9602052715490572E-006
   2.7700000000000002E-002    -6.2761578192294110E-006
   2.8799999999999992E-002    -6.6025695559801534E-006
   2.9900000000000010E-002    -6.9388975134643260E-006
   3.1000000000000000E-002    -7.2857169470808003E-006
   3.2099999999999990E-002    -7.6446021921583451E-006
   3.3200000000000007E-002    -8.0172439993475564E-006
   3.4299999999999997E-002    -8.4045123003306799E-006
   3.5400000000000015E-002    -8.8063361545209773E-006
   3.6500000000000005E-002    -9.2224363470450044E-006
   3.7599999999999995E-002    -9.6530948212603107E-006
   3.8700000000000012E-002    -1.0099024621013086E-005
   3.9800000000000002E-002    -1.0560293048911262E-005
   4.0899999999999992E-002    -1.1035363968403544E-005
   4.2000000000000010E-002    -1.1521551641635597E-005
   4.3099999999999999E-002    -1.2016952496196609E-005
   4.4200000000000017E-002    -1.2522241377155297E-005
   4.5300000000000007E-002    -1.3040580597589724E-005
   4.6399999999999997E-002    -1.3575448974734172E-005
   4.7500000000000014E-002    -1.4128104339761194E-005
   4.8600000000000004E-002    -1.4696897778776474E-005
   4.9699999999999994E-002    -1.5278988939826377E-005
   5.0800000000000012E-002    -1.5872794392635114E-005
   5.1900000000000002E-002    -1.6478836187161505E-005
   5.2999999999999992E-002    -1.7098118405556306E-005
   5.4099999999999981E-002    -1.7729897081153467E-005
   5.5200000000000027E-002    -1.8371503756497987E-005
   5.6300000000000017E-002    -1.9020628315047361E-005
   5.7400000000000007E-002    -1.9677818272612058E-005
   5.8499999999999996E-002    -2.0346476958366111E-005
   5.9599999999999986E-002    -2.1029816707596183E-005
   6.0700000000000032E-002    -2.1727491912315600E-005
   6.1800000000000022E-002    -2.2435278879129328E-005
   6.2900000000000011E-002    -2.3148413674789481E-005
   6.4000000000000001E-002    -2.3865635739639401E-005
   6.5099999999999991E-002    -2.4589962777099572E-005
   6.6199999999999981E-002    -2.5325105525553226E-005
   6.7300000000000026E-002    -2.6070798412547447E-005
   6.8400000000000016E-002    -2.6821822757483460E-005
   6.9500000000000006E-002    -2.7572117687668651E-005
   7.0599999999999996E-002    -2.8320115234237164E-005
   7.1699999999999986E-002    -2.9069908123346977E-005
   7.2800000000000031E-002    -2.9826936952304095E-005
   7.3900000000000021E-002    -3.0592276743846014E-005
   7.5000000000000011E-002    -3.1360901630250737E-005
   7.6100000000000001E-002    -3.2125881261890754E-005
   7.7199999999999991E-002    -3.2884541724342853E-005
   7.8299999999999981E-002    -3.3640277251834050E-005
   7.9400000000000026E-002    -3.4398046409478411E-005
   8.0500000000000016E-002    -3.5157852835254744E-005
   8.1600000000000006E-002    -3.5912980820285156E-005
   8.2699999999999996E-002    -3.6655426811194047E-005
   8.3799999999999986E-002    -3.7382978916866705E-005
   8.4900000000000031E-002    -3.8101097743492573E-005
   8.6000000000000021E-002    -3.8817597669549286E-005
   8.7100000000000011E-002    -3.9534555980935693E-005
   8.8200000000000001E-002    -4.0245449781650677E-005
   8.9299999999999990E-002    -4.0940481994766742E-005
   9.0399999999999980E-002    -4.1615021473262459E-005
   9.1500000000000026E-002    -4.2272924474673346E-005
   9.2600000000000016E-002    -4.2921674321405590E-005
   9.3700000000000006E-002    -4.3563755752984434E-005
   9.4799999999999995E-002    -4.4192678615218028E-005
   9.5899999999999985E-002    -4.4798543967772275E-005
   9.7000000000000031E-002    -4.5377390051726252E-005
   9.8100000000000021E-002    -4.5934772060718387E-005
   9.9200000000000010E-002    -4.6479941374855116E-005
  0.10030000000000000         -4.7016150347189978E-005
  0.10139999999999999         -4.7536326746921986E-005
  0.10249999999999998         -4.8028978198999539E-005
  0.10360000000000003         -4.8488880565855652E-005
  0.10470000000000002         -4.8921516281552613E-005
  0.10580000000000001         -4.9336980737280101E-005
  0.10690000000000000         -4.9739355745259672E-005
  0.10799999999999998         -5.0121976528316736E-005
  0.10910000000000003         -5.0473445298848674E-005
  0.11020000000000002         -5.0788014050340280E-005
  0.11130000000000001         -5.1070885092485696E-005
  0.11240000000000000         -5.1333041483303532E-005
  0.11349999999999999         -5.1579783757915720E-005
  0.11460000000000004         -5.1805654948111624E-005
  0.11570000000000003         -5.1999726565554738E-005
  0.11680000000000001         -5.2156156016280875E-005
  0.11790000000000000         -5.2279672672739252E-005
  0.11899999999999999         -5.2380270062712952E-005
  0.12009999999999998         -5.2462924941210076E-005
  0.12120000000000003         -5.2522205805871636E-005
  0.12230000000000002         -5.2547140512615442E-005
  0.12340000000000001         -5.2531937399180606E-005
  0.12450000000000000         -5.2481893362710252E-005
  0.12559999999999999         -5.2408100600587204E-005
  0.12670000000000003         -5.2317162044346333E-005
  0.12780000000000002         -5.2205723477527499E-005
  0.12890000000000001         -5.2063809562241659E-005
  0.13000000000000000         -5.1884569984395057E-005
  0.13109999999999999         -5.1670835091499612E-005
  0.13219999999999998         -5.1431823521852493E-005
  0.13330000000000003         -5.1174047257518396E-005
  0.13440000000000002         -5.0895359891001135E-005
  0.13550000000000001         -5.0587535952217877E-005
  0.13660000000000000         -5.0245042075403035E-005
  0.13769999999999999         -4.9870792281581089E-005
  0.13880000000000003         -4.9473419494461268E-005
  0.13990000000000002         -4.9059057346312329E-005
  0.14100000000000001         -4.8626014176988974E-005
  0.14210000000000000         -4.8167250497499481E-005
  0.14319999999999999         -4.7677545808255672E-005
  0.14429999999999998         -4.7159053792711347E-005
  0.14540000000000003         -4.6619301429018378E-005
  0.14650000000000002         -4.6064331399975345E-005
  0.14760000000000001         -4.5493841753341258E-005
  0.14870000000000000         -4.4902670197188854E-005
  0.14979999999999999         -4.4285658077569678E-005
  0.15090000000000003         -4.3642190576065332E-005
  0.15200000000000002         -4.2977124394383281E-005
  0.15310000000000001         -4.2296753235859796E-005
  0.15420000000000000         -4.1603809222579002E-005
  0.15529999999999999         -4.0896487917052582E-005
  0.15639999999999998         -4.0171726141124964E-005
  0.15750000000000003         -3.9427977753803134E-005
  0.15860000000000002         -3.8666370528517291E-005
  0.15970000000000001         -3.7890273233642802E-005
  0.16080000000000000         -3.7103141949046403E-005
  0.16189999999999999         -3.6306064430391416E-005
  0.16300000000000003         -3.5496832424541935E-005
  0.16410000000000002         -3.4672171750571579E-005
  0.16520000000000001         -3.3830987376859412E-005
  0.16630000000000000         -3.2976302463794127E-005
  0.16739999999999999         -3.2114592613652349E-005
  0.16850000000000004         -3.1251271138899028E-005
  0.16960000000000003         -3.0386185244424269E-005
  0.17070000000000002         -2.9513103072531521E-005
  0.17180000000000001         -2.8625745471799746E-005
  0.17290000000000000         -2.7724596293410286E-005
  0.17399999999999999         -2.6816887839231640E-005
  0.17510000000000003         -2.5910807380569167E-005
  0.17620000000000002         -2.5008386728586629E-005
  0.17730000000000001         -2.4103865143842995E-005
  0.17840000000000000         -2.3189428247860633E-005
  0.17949999999999999         -2.2263984646997415E-005
  0.18060000000000004         -2.1336427380447276E-005
  0.18170000000000003         -2.0417968698893674E-005
  0.18280000000000002         -1.9511611753841862E-005
  0.18390000000000001         -1.8609403923619539E-005
  0.18500000000000000         -1.7699947420624085E-005
  0.18609999999999999         -1.6779771613073535E-005
  0.18720000000000003         -1.5857905964367092E-005
  0.18830000000000002         -1.4947985619073734E-005
  0.18940000000000001         -1.4055483006814029E-005
  0.19050000000000000         -1.3173415936762467E-005
  0.19159999999999999         -1.2290328413655516E-005
  0.19270000000000004         -1.1402534255466890E-005
  0.19380000000000003         -1.0517766895645764E-005
  0.19490000000000002         -9.6474059319007210E-006
  0.19600000000000001         -8.7962698671617545E-006
  0.19710000000000000         -7.9581359386793338E-006
  0.19819999999999999         -7.1224653765966650E-006
  0.19930000000000003         -6.2868434724805411E-006
  0.20040000000000002         -5.4604347496933769E-006
  0.20150000000000001         -4.6548680074920412E-006
  0.20260000000000000         -3.8728294384782203E-006
  0.20369999999999999         -3.1059234970598482E-006
  0.20480000000000004         -2.3431839508702978E-006
  0.20590000000000003         -1.5825168020455749E-006
  0.20700000000000002         -8.3316535892663524E-007
  0.20810000000000001         -1.0650071402551475E-007
  0.20920000000000000          5.9467805613167002E-007
  0.21029999999999999          1.2773977005053894E-006
  0.21140000000000003          1.9500430425978266E-006
  0.21250000000000002          2.6139748570130905E-006
  0.21360000000000001          3.2625787298456999E-006
  0.21470000000000000          3.8883008528500795E-006
  0.21579999999999999          4.4907874325872399E-006
  0.21690000000000004          5.0764697334670927E-006
  0.21800000000000003          5.6501030485378578E-006
  0.21910000000000002          6.2093981796351727E-006
  0.22020000000000001          6.7475998548616190E-006
  0.22130000000000000          7.2603806984261610E-006
  0.22239999999999999          7.7508911999757402E-006
  0.22350000000000003          8.2262695286772214E-006
  0.22460000000000002          8.6898326117079705E-006
  0.22570000000000001          9.1377969511086121E-006
  0.22680000000000000          9.5628520284662955E-006
  0.22789999999999999          9.9615690487553366E-006
  0.22900000000000004          1.0338323590985965E-005
  0.23010000000000003          1.0699891390686389E-005
  0.23120000000000002          1.1048368833144195E-005
  0.23230000000000001          1.1379632269381545E-005
  0.23340000000000000          1.1688014637911692E-005
  0.23450000000000004          1.1973070286330767E-005
  0.23560000000000003          1.2240031537658069E-005
  0.23670000000000002          1.2494481779867783E-005
  0.23780000000000001          1.2736016287817620E-005
  0.23890000000000000          1.2957888429809827E-005
  0.23999999999999999          1.3154360203770921E-005
  0.24110000000000004          1.3328208297025412E-005
  0.24220000000000003          1.3488595868693665E-005
  0.24330000000000002          1.3641621990245767E-005
  0.24440000000000001          1.3784272596240044E-005
  0.24550000000000000          1.3906841559219174E-005
  0.24660000000000004          1.4003231626702473E-005
  0.24770000000000003          1.4078320418775547E-005
  0.24880000000000002          1.4143347470962908E-005
  0.24990000000000001          1.4204288163455203E-005
  0.25100000000000000          1.4256533177103847E-005
  0.25209999999999999          1.4290541002992541E-005
  0.25320000000000004          1.4302106137620285E-005
  0.25430000000000003          1.4297814232122619E-005
  0.25540000000000002          1.4288431884779129E-005
  0.25650000000000001          1.4277226910053287E-005
  0.25760000000000000          1.4255457244871650E-005
  0.25870000000000004          1.4211729649105109E-005
  0.25980000000000003          1.4145797649689484E-005
  0.26090000000000002          1.4070282304601278E-005
  0.26200000000000001          1.3998951544635929E-005
  0.26310000000000000          1.3933055925008375E-005
  0.26419999999999999          1.3859124010195956E-005
  0.26530000000000004          1.3762192793365102E-005
  0.26640000000000003          1.3641904843098018E-005
  0.26750000000000002          1.3514559213945176E-005
  0.26860000000000001          1.3396999747783411E-005
  0.26970000000000000          1.3289391972648446E-005
  0.27080000000000004          1.3174457308195997E-005
  0.27190000000000003          1.3034819858148694E-005
  0.27300000000000002          1.2871561011706945E-005
  0.27410000000000001          1.2704498658422381E-005
  0.27520000000000000          1.2553865417430643E-005
  0.27629999999999999          1.2420214261510409E-005
  0.27740000000000004          1.2283636351639871E-005
  0.27850000000000003          1.2123627129767556E-005
  0.27960000000000002          1.1939738215005491E-005
  0.28070000000000001          1.1751704732887447E-005
  0.28179999999999999          1.1579959391383454E-005
  0.28290000000000004          1.1425973752920981E-005
  0.28400000000000003          1.1271347830188461E-005
  0.28510000000000002          1.1097045899077784E-005
  0.28620000000000001          1.0902326721407007E-005
  0.28730000000000000          1.0704981832532212E-005
  0.28840000000000005          1.0523775017645676E-005
  0.28950000000000004          1.0360443411627784E-005
  0.29060000000000002          1.0199031748925336E-005
  0.29170000000000001          1.0022390597441699E-005
  0.29280000000000000          9.8290565802017227E-006
  0.29389999999999999          9.6337489594588988E-006
  0.29500000000000004          9.4520237325923517E-006
  0.29610000000000003          9.2845966719323769E-006
  0.29720000000000002          9.1177153080934659E-006
  0.29830000000000001          8.9380919234827161E-006
  0.29940000000000000          8.7467215053038672E-006
  0.30050000000000004          8.5575447883456945E-006
  0.30160000000000003          8.3831773736164905E-006
  0.30270000000000002          8.2223386925761588E-006
  0.30380000000000001          8.0607287600287236E-006
  0.30490000000000000          7.8864859460736625E-006
  0.30599999999999999          7.7021422839607112E-006
  0.30709999999999998          7.5206689871265553E-006
  0.30819999999999997          7.3515734584361780E-006
  0.30930000000000007          7.1907575147633906E-006
  0.31040000000000006          7.0259588937915396E-006
  0.31150000000000005          6.8509766606439371E-006
  0.31260000000000004          6.6723191594064701E-006
  0.31370000000000003          6.5020085457945243E-006
  0.31480000000000002          6.3447546381212305E-006
  0.31590000000000001          6.1921191445435397E-006
  0.31700000000000000          6.0306610976113006E-006
  0.31809999999999999          5.8563000493450090E-006
  0.31919999999999998          5.6791559472912923E-006
  0.32029999999999997          5.5132654779299628E-006
  0.32140000000000007          5.3611834118783008E-006
  0.32250000000000006          5.2115096877969336E-006
  0.32360000000000005          5.0504731916589662E-006
  0.32470000000000004          4.8755950956547167E-006
  0.32580000000000003          4.6984964683360886E-006
  0.32690000000000002          4.5329675231187139E-006
  0.32800000000000001          4.3807463043776806E-006
  0.32910000000000000          4.2294832383049652E-006
  0.33019999999999999          4.0661211642145645E-006
  0.33129999999999998          3.8904877328604925E-006
  0.33239999999999997          3.7145509850233793E-006
  0.33350000000000007          3.5496443615556927E-006
  0.33460000000000006          3.3942701520572882E-006
  0.33570000000000005          3.2358295811718563E-006
  0.33680000000000004          3.0642422643722966E-006
  0.33790000000000003          2.8823289994761581E-006
  0.33900000000000002          2.7019821118301479E-006
  0.34010000000000001          2.5309734610345913E-006
  0.34120000000000000          2.3653662992728641E-006
  0.34229999999999999          2.1944124455330893E-006
  0.34339999999999998          2.0124691673117923E-006
  0.34449999999999997          1.8257773035657010E-006
  0.34560000000000007          1.6455994682473829E-006
  0.34670000000000006          1.4742665825906442E-006
  0.34780000000000005          1.3015865079069044E-006
  0.34890000000000004          1.1154185131090344E-006
