 -0.20000000000000001          0.0000000000000000
 -0.19890000000000002          0.0000000000000000
 -0.19780000000000000          0.0000000000000000
 -0.19670000000000001          0.0000000000000000
 -0.19560000000000002          0.0000000000000000
 -0.19450000000000001          0.0000000000000000
 -0.19340000000000002          2.5091726769405805E-024
 -0.19230000000000000          3.0694227567907651E-023
 -0.19120000000000001          1.6077337395912311E-022
 -0.19010000000000002          4.7685917230754809E-022
 -0.18900000000000000          8.2049697906721179E-022
 -0.18790000000000001          5.4092295769555544E-022
 -0.18680000000000002         -1.0093092842535995E-021
 -0.18570000000000000         -2.9212061046894901E-021
 -0.18460000000000001         -1.9751921921933402E-021
 -0.18350000000000000          4.0037815586457493E-021
 -0.18240000000000001          9.5239491621952885E-021
 -0.18130000000000002          1.5800253347723669E-021
 -0.18020000000000000         -2.2316975881924096E-020
 -0.17910000000000001         -2.9625780600142126E-020
 -0.17800000000000002          3.3305903914216278E-020
 -0.17690000000000000          1.5420325536137977E-019
 -0.17580000000000001          1.5948038332613252E-019
 -0.17470000000000002         -2.0353317931735113E-019
 -0.17360000000000000         -8.8368873231655178E-019
 -0.17250000000000001         -1.1097092172517662E-018
 -0.17140000000000000          3.3822960297956397E-019
 -0.17030000000000001          3.6525595105641716E-018
 -0.16920000000000002          6.1653154222282494E-018
 -0.16810000000000000          2.6970428599493074E-018
 -0.16700000000000001         -9.6971235205622364E-018
 -0.16589999999999999         -2.4517582070873762E-017
 -0.16480000000000000         -2.3951937770036526E-017
 -0.16370000000000001          9.1174543724391633E-018
 -0.16260000000000002          6.7344433114971918E-017
 -0.16150000000000000          1.0359822411595422E-016
 -0.16040000000000001          5.2046879121216345E-017
 -0.15930000000000000         -1.0835584274455912E-016
 -0.15820000000000001         -2.9004215999934040E-016
 -0.15710000000000002         -3.0895262053304588E-016
 -0.15600000000000000         -1.6626125171523943E-017
 -0.15490000000000001          5.1134140240056752E-016
 -0.15379999999999999          9.0145068482977127E-016
 -0.15270000000000000          6.7713301405122384E-016
 -0.15160000000000001         -3.2151165745132420E-016
 -0.15050000000000002         -1.6004477897715559E-015
 -0.14940000000000001         -2.1427204001861272E-015
 -0.14830000000000002         -1.1089623219622869E-015
 -0.14720000000000000          1.3133259611463320E-015
 -0.14610000000000001          3.6585288462197708E-015
 -0.14500000000000002          3.9943126117856359E-015
 -0.14390000000000000          1.4198022377809338E-015
 -0.14280000000000001         -2.8890529884731527E-015
 -0.14169999999999999         -6.1403019238734542E-015
 -0.14060000000000000         -5.8426193943409820E-015
 -0.13950000000000001         -1.7981988544946235E-015
 -0.13840000000000002          3.5376081167356414E-015
 -0.13730000000000001          6.8334831947202725E-015
 -0.13619999999999999          6.4190295501122697E-015
 -0.13510000000000000          3.3618466625980059E-015
 -0.13400000000000001          7.1355259851674138E-017
 -0.13290000000000002         -2.2092184157762205E-015
 -0.13180000000000000         -4.3755363068399052E-015
 -0.13070000000000001         -7.6190884656067437E-015
 -0.12959999999999999         -1.0564273692219728E-014
 -0.12850000000000000         -8.9467897405382836E-015
 -0.12740000000000001          4.9977553808272447E-016
 -0.12630000000000002          1.4797162450961958E-014
 -0.12520000000000001          2.3871648337529458E-014
 -0.12410000000000000          1.7371664884032779E-014
 -0.12300000000000001         -4.6553663464595722E-015
 -0.12190000000000001         -2.6834752546141608E-014
 -0.12080000000000000         -2.6966437370319445E-014
 -0.11970000000000000          4.7435009716543294E-015
 -0.11860000000000001          4.9985101507107194E-014
 -0.11750000000000001          6.6638365561321605E-014
 -0.11640000000000000          1.7378117581024963E-014
 -0.11530000000000000         -9.3159685423793021E-014
 -0.11420000000000001         -2.0151022235397054E-013
 -0.11310000000000001         -2.1097289496993521E-013
 -0.11200000000000000         -5.5237708667093405E-014
 -0.11090000000000001          2.3559509920202670E-013
 -0.10980000000000001          5.1587765092717119E-013
 -0.10870000000000000          5.8294899940233846E-013
 -0.10760000000000000          2.9819289398824722E-013
 -0.10650000000000001         -2.9333382511181894E-013
 -0.10540000000000001         -9.2769195103592494E-013
 -0.10430000000000000         -1.2223007979025868E-012
 -0.10320000000000000         -8.8669626112022892E-013
 -0.10210000000000001          6.2639909264358001E-014
 -0.10100000000000001          1.2235169474794638E-012
  -9.9900000000000003E-002     1.9549062889312463E-012
  -9.8799999999999999E-002     1.7148591574533967E-012
  -9.7700000000000009E-002     4.2131033904657667E-013
  -9.6600000000000005E-002    -1.3878225825492141E-012
  -9.5500000000000002E-002    -2.7404203038761121E-012
  -9.4400000000000012E-002    -2.7177689352481105E-012
  -9.3300000000000008E-002    -1.0028592539734760E-012
  -9.2200000000000004E-002     1.8291559673172531E-012
  -9.1100000000000000E-002     4.4856570714790767E-012
  -9.0000000000000011E-002     5.5492524637934526E-012
  -8.8900000000000007E-002     4.1879199760841423E-012
  -8.7800000000000003E-002     5.8848352623222522E-013
  -8.6699999999999999E-002    -4.1435427138025727E-012
  -8.5600000000000009E-002    -8.5760357149133881E-012
  -8.4500000000000006E-002    -1.1706099631303424E-011
  -8.3400000000000002E-002    -1.3451104813322345E-011
  -8.2299999999999998E-002    -1.4598265304921476E-011
  -8.1200000000000008E-002    -1.6254773568813441E-011
  -8.0100000000000005E-002    -1.9137061726959281E-011
  -7.9000000000000001E-002    -2.3132442142359544E-011
  -7.7899999999999997E-002    -2.7397964105779771E-011
  -7.6800000000000007E-002    -3.0928388322637446E-011
  -7.5700000000000003E-002    -3.3230893731195366E-011
  -7.4600000000000000E-002    -3.4675009391582634E-011
  -7.3500000000000010E-002    -3.6292975569285346E-011
  -7.2399999999999992E-002    -3.9163450260559785E-011
  -7.1300000000000002E-002    -4.3789957770989929E-011
  -7.0200000000000012E-002    -4.9895122755660992E-011
  -6.9099999999999995E-002    -5.6772565815155218E-011
  -6.8000000000000005E-002    -6.3947437622946524E-011
  -6.6900000000000015E-002    -7.1659532474566134E-011
  -6.5799999999999997E-002    -8.0777731725767410E-011
  -6.4700000000000008E-002    -9.2141648477817029E-011
  -6.3599999999999990E-002    -1.0575817305236157E-010
  -6.2500000000000000E-002    -1.2045697772578023E-010
  -6.1400000000000010E-002    -1.3437817525385753E-010
  -6.0299999999999992E-002    -1.4613768528626281E-010
  -5.9200000000000003E-002    -1.5601332725712069E-010
  -5.8100000000000013E-002    -1.6635734456649232E-010
  -5.6999999999999995E-002    -1.8080370534079293E-010
  -5.5900000000000005E-002    -2.0253482224674713E-010
  -5.4800000000000015E-002    -2.3250056047086076E-010
  -5.3699999999999998E-002    -2.6864513391622324E-010
  -5.2600000000000008E-002    -3.0673799611413699E-010
  -5.1499999999999990E-002    -3.4253308522913528E-010
  -5.0400000000000000E-002    -3.7417824394481158E-010
  -4.9300000000000010E-002    -4.0355110919598758E-010
  -4.8199999999999993E-002    -4.3569700625134544E-010
  -4.7100000000000003E-002    -4.7655390744694159E-010
  -4.6000000000000013E-002    -5.3010706935197049E-010
  -4.4899999999999995E-002    -5.9647220496117370E-010
  -4.3800000000000006E-002    -6.7193867137049779E-010
  -4.2699999999999988E-002    -7.5097311702521097E-010
  -4.1599999999999998E-002    -8.2915446730780218E-010
  -4.0500000000000008E-002    -9.0555168918982076E-010
  -3.9399999999999991E-002    -9.8338137632936196E-010
  -3.8300000000000001E-002    -1.0686933560322132E-009
  -3.7200000000000011E-002    -1.1678182865182407E-009
  -3.6099999999999993E-002    -1.2848759833872236E-009
  -3.5000000000000003E-002    -1.4205221443575056E-009
  -3.3900000000000013E-002    -1.5724184176946210E-009
  -3.2799999999999996E-002    -1.7370223037715959E-009
  -3.1700000000000006E-002    -1.9116759286674778E-009
  -3.0599999999999988E-002    -2.0959400881537249E-009
  -2.9499999999999998E-002    -2.2916550879159558E-009
  -2.8400000000000009E-002    -2.5019855076635622E-009
  -2.7299999999999991E-002    -2.7302349270286186E-009
  -2.6200000000000001E-002    -2.9791955569180573E-009
  -2.5100000000000011E-002    -3.2512603720391553E-009
  -2.3999999999999994E-002    -3.5489036154245923E-009
  -2.2900000000000004E-002    -3.8748737551941304E-009
  -2.1800000000000014E-002    -4.2317518378354180E-009
  -2.0699999999999996E-002    -4.6211421356190385E-009
  -1.9600000000000006E-002    -5.0431987475008100E-009
  -1.8499999999999989E-002    -5.4970543672538952E-009
  -1.7399999999999999E-002    -5.9821188003184034E-009
  -1.6300000000000009E-002    -6.4995910875609297E-009
  -1.5199999999999991E-002    -7.0533112683790478E-009
  -1.4100000000000001E-002    -7.6494490741652044E-009
  -1.3000000000000012E-002    -8.2951991942081804E-009
  -1.1899999999999994E-002    -8.9971443628655834E-009
  -1.0800000000000004E-002    -9.7600345583259696E-009
  -9.6999999999999864E-003    -1.0586434839865433E-008
  -8.5999999999999965E-003    -1.1477236938617352E-008
  -7.5000000000000067E-003    -1.2432749940671783E-008
  -6.3999999999999890E-003    -1.3453939295970940E-008
  -5.2999999999999992E-003    -1.4543411808176643E-008
  -4.2000000000000093E-003    -1.5705870382021203E-008
  -3.0999999999999917E-003    -1.6947952374835040E-008
  -2.0000000000000018E-003    -1.8277587443549237E-008
  -9.0000000000001190E-004    -1.9703144005234208E-008
   2.0000000000000573E-004    -2.1232649416447202E-008
   1.2999999999999956E-003    -2.2873257066180486E-008
   2.4000000000000132E-003    -2.4631001238617500E-008
   3.5000000000000031E-003    -2.6510811323987582E-008
   4.5999999999999930E-003    -2.8516813799228657E-008
   5.7000000000000106E-003    -3.0653009019943056E-008
   6.8000000000000005E-003    -3.2924184267812961E-008
   7.8999999999999904E-003    -3.5336835679800060E-008
   9.0000000000000080E-003    -3.7899663851703735E-008
   1.0099999999999998E-002    -4.0623366004410855E-008
   1.1199999999999988E-002    -4.3519818859749648E-008
   1.2300000000000005E-002    -4.6600920455830419E-008
   1.3399999999999995E-002    -4.9877566965506048E-008
   1.4500000000000013E-002    -5.3359130447461212E-008
   1.5600000000000003E-002    -5.7053554769481707E-008
   1.6699999999999993E-002    -6.0968062598476536E-008
   1.7800000000000010E-002    -6.5110157265735324E-008
   1.8900000000000000E-002    -6.9488606868617353E-008
   1.9999999999999990E-002    -7.4113970072176016E-008
   2.1100000000000008E-002    -7.8998446895184316E-008
   2.2199999999999998E-002    -8.4155281854236819E-008
   2.3300000000000015E-002    -8.9598238162125199E-008
   2.4400000000000005E-002    -9.5341285089034500E-008
   2.5499999999999995E-002    -1.0139853401369692E-007
   2.6600000000000013E-002    -1.0778400394428900E-007
   2.7700000000000002E-002    -1.1451098913539681E-007
   2.8799999999999992E-002    -1.2159154039181885E-007
   2.9900000000000010E-002    -1.2903663559882261E-007
   3.1000000000000000E-002    -1.3685712474398315E-007
   3.2099999999999990E-002    -1.4506521495150082E-007
   3.3200000000000007E-002    -1.5367524497378326E-007
   3.4299999999999997E-002    -1.6270315938982094E-007
   3.5400000000000015E-002    -1.7216517278484389E-007
   3.6500000000000005E-002    -1.8207708762929542E-007
   3.7599999999999995E-002    -1.9245452165250754E-007
   3.8700000000000012E-002    -2.0331388839167630E-007
   3.9800000000000002E-002    -2.1467236877015239E-007
   4.0899999999999992E-002    -2.2654651843367901E-007
   4.2000000000000010E-002    -2.3895017875474878E-007
   4.3099999999999999E-002    -2.5189393682012451E-007
   4.4200000000000017E-002    -2.6538745601101255E-007
   4.5300000000000007E-002    -2.7944287239733967E-007
   4.6399999999999997E-002    -2.9407675583570381E-007
   4.7500000000000014E-002    -3.0930885941415909E-007
   4.8600000000000004E-002    -3.2515856673853705E-007
   4.9699999999999994E-002    -3.4164202133979416E-007
   5.0800000000000012E-002    -3.5877235404768726E-007
   5.1900000000000002E-002    -3.7656218410120346E-007
   5.2999999999999992E-002    -3.9502577919847681E-007
   5.4099999999999981E-002    -4.1417803231524886E-007
   5.5200000000000027E-002    -4.3403156269050669E-007
   5.6300000000000017E-002    -4.5459535158443032E-007
   5.7400000000000007E-002    -4.7587695917172823E-007
   5.8499999999999996E-002    -4.9788656042437651E-007
   5.9599999999999986E-002    -5.2063921884837328E-007
   6.0700000000000032E-002    -5.4415215799963335E-007
   6.1800000000000022E-002    -5.6843964557629079E-007
   6.2900000000000011E-002    -5.9350969650040497E-007
   6.4000000000000001E-002    -6.1936611928103957E-007
   6.5099999999999991E-002    -6.4601414351272979E-007
   6.6199999999999981E-002    -6.7346405785428942E-007
   6.7300000000000026E-002    -7.0172933419598849E-007
   6.8400000000000016E-002    -7.3081980644928990E-007
   6.9500000000000006E-002    -7.6073735044701607E-007
   7.0599999999999996E-002    -7.9147844189719763E-007
   7.1699999999999986E-002    -8.2304160287094419E-007
   7.2800000000000031E-002    -8.5543229033646639E-007
   7.3900000000000021E-002    -8.8866090663941577E-007
   7.5000000000000011E-002    -9.2273535301501397E-007
   7.6100000000000001E-002    -9.5765494734223466E-007
   7.7199999999999991E-002    -9.9341229997662595E-007
   7.8299999999999981E-002    -1.0300009307684377E-006
   7.9400000000000026E-002    -1.0674208397176699E-006
   8.0500000000000016E-002    -1.1056765742978314E-006
   8.1600000000000006E-002    -1.1447681345089222E-006
   8.2699999999999996E-002    -1.1846850611618720E-006
   8.3799999999999986E-002    -1.2254099601705093E-006
   8.4900000000000031E-002    -1.2669275974985794E-006
   8.6000000000000021E-002    -1.3092324024910340E-006
   8.7100000000000011E-002    -1.3523264215109521E-006
   8.8200000000000001E-002    -1.3962086313767941E-006
   8.9299999999999990E-002    -1.4408665265364107E-006
   9.0399999999999980E-002    -1.4862777106827707E-006
   9.1500000000000026E-002    -1.5324196738220053E-006
   9.2600000000000016E-002    -1.5792782050993992E-006
   9.3700000000000006E-002    -1.6268472791125532E-006
   9.4799999999999995E-002    -1.6751184830354759E-006
   9.5899999999999985E-002    -1.7240712395505398E-006
   9.7000000000000031E-002    -1.7736751942720730E-006
   9.8100000000000021E-002    -1.8239013570564566E-006
   9.9200000000000010E-002    -1.8747316516964929E-006
  0.10030000000000000         -1.9261572106188396E-006
  0.10139999999999999         -1.9781671198870754E-006
  0.10249999999999998         -2.0307372778916033E-006
  0.10360000000000003         -2.0838310774706770E-006
  0.10470000000000002         -2.1374128209572518E-006
  0.10580000000000001         -2.1914584067417309E-006
  0.10690000000000000         -2.2459541924035875E-006
  0.10799999999999998         -2.3008851712802425E-006
  0.10910000000000003         -2.3562226942885900E-006
  0.11020000000000002         -2.4119267436617520E-006
  0.11130000000000001         -2.4679563921381487E-006
  0.11240000000000000         -2.5242827632609988E-006
  0.11349999999999999         -2.5808892587519949E-006
  0.11460000000000004         -2.6377583708381280E-006
  0.11570000000000003         -2.6948616778099677E-006
  0.11680000000000001         -2.7521577976585831E-006
  0.11790000000000000         -2.8096053483750438E-006
  0.11899999999999999         -2.8671731797658140E-006
  0.12009999999999998         -2.9248419650684809E-006
  0.12120000000000003         -2.9825916953996057E-006
  0.12230000000000002         -3.0403909931919770E-006
  0.12340000000000001         -3.0981955205788836E-006
  0.12450000000000000         -3.1559611670672894E-006
  0.12559999999999999         -3.2136556455952814E-006
  0.12670000000000003         -3.2712591746530961E-006
  0.12780000000000002         -3.3287535643466981E-006
  0.12890000000000001         -3.3861117572087096E-006
  0.13000000000000000         -3.4432939628459280E-006
  0.13109999999999999         -3.5002578897547210E-006
  0.13219999999999998         -3.5569698866311228E-006
  0.13330000000000003         -3.6134081256022910E-006
  0.13440000000000002         -3.6695528251584619E-006
  0.13550000000000001         -3.7253776099532843E-006
  0.13660000000000000         -3.7808451907039853E-006
  0.13769999999999999         -3.8359166865120642E-006
  0.13880000000000003         -3.8905609471839853E-006
  0.13990000000000002         -3.9447581912099849E-006
  0.14100000000000001         -3.9984906834433787E-006
  0.14210000000000000         -4.0517352317692712E-006
  0.14319999999999999         -4.1044586396310478E-006
  0.14429999999999998         -4.1566254367353395E-006
  0.14540000000000003         -4.2082078834937420E-006
  0.14650000000000002         -4.2591877900122199E-006
  0.14760000000000001         -4.3095496948808432E-006
  0.14870000000000000         -4.3592740439635236E-006
  0.14979999999999999         -4.4083353714086115E-006
  0.15090000000000003         -4.4567027543962467E-006
  0.15200000000000002         -4.5043484533380251E-006
  0.15310000000000001         -4.5512524593505077E-006
  0.15420000000000000         -4.5974015847605187E-006
  0.15529999999999999         -4.6427812776528299E-006
  0.15639999999999998         -4.6873742576281074E-006
  0.15750000000000003         -4.7311591515608598E-006
  0.15860000000000002         -4.7741154958202969E-006
  0.15970000000000001         -4.8162251005123835E-006
  0.16080000000000000         -4.8574743232165929E-006
  0.16189999999999999         -4.8978522499965038E-006
  0.16300000000000003         -4.9373479669156950E-006
  0.16410000000000002         -4.9759455578168854E-006
  0.16520000000000001         -5.0136263780586887E-006
  0.16630000000000000         -5.0503736019891221E-006
  0.16739999999999999         -5.0861744966823608E-006
  0.16850000000000004         -5.1210258789069485E-006
  0.16960000000000003         -5.1549272939155344E-006
  0.17070000000000002         -5.1878755584766623E-006
  0.17180000000000001         -5.2198565754224546E-006
  0.17290000000000000         -5.2508526096062269E-006
  0.17399999999999999         -5.2808509281021543E-006
  0.17510000000000003         -5.3098497119208332E-006
  0.17620000000000002         -5.3378544180304743E-006
  0.17730000000000001         -5.3648677749151830E-006
  0.17840000000000000         -5.3908825066173449E-006
  0.17949999999999999         -5.4158845159690827E-006
  0.18060000000000004         -5.4398633437813260E-006
  0.18170000000000003         -5.4628244470222853E-006
  0.18280000000000002         -5.4847828323545400E-006
  0.18390000000000001         -5.5057498684618622E-006
  0.18500000000000000         -5.5257232816074975E-006
  0.18609999999999999         -5.5446898841182701E-006
  0.18720000000000003         -5.5626392168051098E-006
  0.18830000000000002         -5.5795776461309288E-006
  0.18940000000000001         -5.5955247262318153E-006
  0.19050000000000000         -5.6104995564965066E-006
  0.19159999999999999         -5.6245066843985114E-006
  0.19270000000000004         -5.6375383792328648E-006
  0.19380000000000003         -5.6495919125154614E-006
  0.19490000000000002         -5.6606777434353717E-006
  0.19600000000000001         -5.6708163356233854E-006
  0.19710000000000000         -5.6800295169523451E-006
  0.19819999999999999         -5.6883245633798651E-006
  0.19930000000000003         -5.6956992011691909E-006
  0.20040000000000002         -5.7021557040570769E-006
  0.20150000000000001         -5.7077118071902078E-006
  0.20260000000000000         -5.7123961596516892E-006
  0.20369999999999999         -5.7162319535564166E-006
  0.20480000000000004         -5.7192291933461092E-006
  0.20590000000000003         -5.7213869695260655E-006
  0.20700000000000002         -5.7227107390644960E-006
  0.20810000000000001         -5.7232200560974889E-006
  0.20920000000000000         -5.7229453886975534E-006
  0.21029999999999999         -5.7219122027163394E-006
  0.21140000000000003         -5.7201350500690751E-006
  0.21250000000000002         -5.7176221162080765E-006
  0.21360000000000001         -5.7143843150697649E-006
  0.21470000000000000         -5.7104443840216845E-006
  0.21579999999999999         -5.7058300626522396E-006
  0.21690000000000004         -5.7005645430763252E-006
  0.21800000000000003         -5.6946614677144680E-006
  0.21910000000000002         -5.6881340242398437E-006
  0.22020000000000001         -5.6810008572938386E-006
  0.22130000000000000         -5.6732892517175060E-006
  0.22239999999999999         -5.6650283113413025E-006
  0.22350000000000003         -5.6562375903013162E-006
  0.22460000000000002         -5.6469302762707230E-006
  0.22570000000000001         -5.6371200116700493E-006
  0.22680000000000000         -5.6268272601300851E-006
  0.22789999999999999         -5.6160815802286379E-006
  0.22900000000000004         -5.6049120757961646E-006
  0.23010000000000003         -5.5933373914740514E-006
  0.23120000000000002         -5.5813720791775268E-006
  0.23230000000000001         -5.5690311455691699E-006
  0.23340000000000000         -5.5563373280165251E-006
  0.23450000000000004         -5.5433179113606457E-006
  0.23560000000000003         -5.5299965424637776E-006
  0.23670000000000002         -5.5163895922305528E-006
  0.23780000000000001         -5.5025088840920944E-006
  0.23890000000000000         -5.4883707889530342E-006
  0.23999999999999999         -5.4740016821597237E-006
  0.24110000000000004         -5.4594315770373214E-006
  0.24220000000000003         -5.4446800277219154E-006
  0.24330000000000002         -5.4297565839078743E-006
  0.24440000000000001         -5.4146685215528123E-006
  0.24550000000000000         -5.3994313020666596E-006
  0.24660000000000004         -5.3840731197851710E-006
  0.24770000000000003         -5.3686239880335052E-006
  0.24880000000000002         -5.3531011872109957E-006
  0.24990000000000001         -5.3375088100438006E-006
  0.25100000000000000         -5.3218518587527797E-006
  0.25209999999999999         -5.3061448852531612E-006
  0.25320000000000004         -5.2904129006492440E-006
  0.25430000000000003         -5.2746800065506250E-006
  0.25540000000000002         -5.2589575716410764E-006
  0.25650000000000001         -5.2432455959205981E-006
  0.25760000000000000         -5.2275477173679974E-006
  0.25870000000000004         -5.2118834901193622E-006
  0.25980000000000003         -5.1962820180051494E-006
  0.26090000000000002         -5.1807628551614471E-006
  0.26200000000000001         -5.1653273658303078E-006
  0.26310000000000000         -5.1499655455700122E-006
  0.26419999999999999         -5.1346751206438057E-006
  0.26530000000000004         -5.1194756451877765E-006
  0.26640000000000003         -5.1043980420217849E-006
  0.26750000000000002         -5.0894632295239717E-006
  0.26860000000000001         -5.0746657507261261E-006
  0.26970000000000000         -5.0599896894709673E-006
  0.27080000000000004         -5.0454291340429336E-006
  0.27190000000000003         -5.0310059123148676E-006
  0.27300000000000002         -5.0167527660960332E-006
  0.27410000000000001         -5.0026887947751675E-006
  0.27520000000000000         -4.9888030844158493E-006
  0.27629999999999999         -4.9750701691664290E-006
  0.27740000000000004         -4.9614782255957834E-006
  0.27850000000000003         -4.9480458983452991E-006
  0.27960000000000002         -4.9348063839715905E-006
  0.28070000000000001         -4.9217787818633951E-006
  0.28179999999999999         -4.9089530875789933E-006
  0.28290000000000004         -4.8963029257720336E-006
  0.28400000000000003         -4.8838155635166913E-006
  0.28510000000000002         -4.8715055527281947E-006
  0.28620000000000001         -4.8594019972370006E-006
  0.28730000000000000         -4.8475203584530391E-006
  0.28840000000000005         -4.8358506319345906E-006
  0.28950000000000004         -4.8243678065773565E-006
  0.29060000000000002         -4.8130577852134593E-006
  0.29170000000000001         -4.8019301175372675E-006
  0.29280000000000000         -4.7910089051583782E-006
  0.29389999999999999         -4.7803064262552653E-006
  0.29500000000000004         -4.7698144953756128E-006
  0.29610000000000003         -4.7595117393939290E-006
  0.29720000000000002         -4.7493881538684946E-006
  0.29830000000000001         -4.7394528337463271E-006
  0.29940000000000000         -4.7297244236688130E-006
  0.30050000000000004         -4.7202097448462155E-006
  0.30160000000000003         -4.7108974285947625E-006
  0.30270000000000002         -4.7017670112836640E-006
  0.30380000000000001         -4.6928089432185516E-006
  0.30490000000000000         -4.6840336835884955E-006
  0.30599999999999999         -4.6754585127928294E-006
  0.30709999999999998         -4.6670888877997641E-006
  0.30819999999999997         -4.6589129851781763E-006
  0.30930000000000007         -4.6509153435181361E-006
  0.31040000000000006         -4.6430932343355380E-006
  0.31150000000000005         -4.6354584810615052E-006
  0.31260000000000004         -4.6280215428851079E-006
  0.31370000000000003         -4.6207792365748901E-006
  0.31480000000000002         -4.6137170102156233E-006
  0.31590000000000001         -4.6068212213867810E-006
  0.31700000000000000         -4.6000945985724684E-006
  0.31809999999999999         -4.5935535126773175E-006
  0.31919999999999998         -4.5872106966271531E-006
  0.32029999999999997         -4.5810597839590628E-006
  0.32140000000000007         -4.5750816752843093E-006
  0.32250000000000006         -4.5692654566664714E-006
  0.32360000000000005         -4.5636170398211107E-006
  0.32470000000000004         -4.5581546146422625E-006
  0.32580000000000003         -4.5528904593084008E-006
  0.32690000000000002         -4.5478177526092622E-006
  0.32800000000000001         -4.5429178499034606E-006
  0.32910000000000000         -4.5381798372545745E-006
  0.33019999999999999         -4.5336128096096218E-006
  0.33129999999999998         -4.5292340473679360E-006
  0.33239999999999997         -4.5250531002238858E-006
  0.33350000000000007         -4.5210617827251554E-006
  0.33460000000000006         -4.5172441787144635E-006
  0.33570000000000005         -4.5135948312235996E-006
  0.33680000000000004         -4.5101255636836868E-006
  0.33790000000000003         -4.5068536564940587E-006
  0.33900000000000002         -4.5037845666229259E-006
  0.34010000000000001         -4.5009091991232708E-006
  0.34120000000000000         -4.4982166400586721E-006
  0.34229999999999999         -4.4957055251870770E-006
  0.34339999999999998         -4.4933885874343105E-006
  0.34449999999999997         -4.4912781049788464E-006
  0.34560000000000007         -4.4893722588312812E-006
  0.34670000000000006         -4.4876578613184392E-006
  0.34780000000000005         -4.4861290007247590E-006
  0.34890000000000004         -4.4847947719972581E-006
