 -0.20000000000000001          0.0000000000000000
 -0.19890000000000002          0.0000000000000000
 -0.19780000000000000          0.0000000000000000
 -0.19670000000000001          0.0000000000000000
 -0.19560000000000002          0.0000000000000000
 -0.19450000000000001          0.0000000000000000
 -0.19340000000000002          0.0000000000000000
 -0.19230000000000000          0.0000000000000000
 -0.19120000000000001          0.0000000000000000
 -0.19010000000000002          0.0000000000000000
 -0.18900000000000000          0.0000000000000000
 -0.18790000000000001          9.9407272280123928E-040
 -0.18680000000000002          3.9319683812977489E-038
 -0.18570000000000000          5.6813177708674954E-037
 -0.18460000000000001          4.4757722269557430E-036
 -0.18350000000000000          2.2620945242369690E-035
 -0.18240000000000001          7.8192650177218942E-035
 -0.18130000000000002          1.8230384876411543E-034
 -0.18020000000000000          2.3492598984294008E-034
 -0.17910000000000001         -1.0768947111947795E-034
 -0.17800000000000002         -1.2529358268189637E-033
 -0.17690000000000000         -2.5821661961230863E-033
 -0.17580000000000001         -8.0805465322241056E-034
 -0.17470000000000002          8.5742916284518988E-033
 -0.17360000000000000          2.0570877836953465E-032
 -0.17250000000000001          4.6701472203207903E-033
 -0.17140000000000000         -7.9274063608084427E-032
 -0.17030000000000001         -1.7338795581408518E-031
 -0.16920000000000002          3.0618777265119846E-032
 -0.16810000000000000          9.1297890869608743E-031
 -0.16700000000000001          1.8425704677952838E-030
 -0.16589999999999999         -3.2129812951901303E-031
 -0.16480000000000000         -9.5821650163776505E-030
 -0.16370000000000001         -2.0740344085004450E-029
 -0.16260000000000002         -5.0185246783497667E-030
 -0.16150000000000000          7.8611338559941113E-029
 -0.16040000000000001          2.0184773782286048E-028
 -0.15930000000000000          1.4147411926044690E-028
 -0.15820000000000001         -4.7095097153016485E-028
 -0.15710000000000002         -1.5862337467207347E-027
 -0.15600000000000000         -1.7741630055026273E-027
 -0.15490000000000001          1.7619327725767851E-027
 -0.15379999999999999          9.9136650700910094E-027
 -0.15270000000000000          1.5261122805362900E-026
 -0.15160000000000001         -3.0686239026972859E-029
 -0.15050000000000002         -4.8395990993263137E-026
 -0.14940000000000001         -1.0005851324660258E-025
 -0.14830000000000002         -5.9478398946385763E-026
 -0.14720000000000000          1.7303670118998716E-025
 -0.14610000000000001          5.1892315586137574E-025
 -0.14500000000000002          5.5046161763688549E-025
 -0.14390000000000000         -3.3382591774406221E-025
 -0.14280000000000001         -2.1335685870484003E-024
 -0.14169999999999999         -3.2795673344464999E-024
 -0.14060000000000000         -8.4354947633636367E-025
 -0.13950000000000001          6.6706117588534019E-024
 -0.13840000000000002          1.4813943208498479E-023
 -0.13730000000000001          1.1820126143041544E-023
 -0.13619999999999999         -1.3180385823184913E-023
 -0.13510000000000000         -5.2422252620742420E-023
 -0.13400000000000001         -6.6990654983881807E-023
 -0.13290000000000002         -4.7036793884107199E-024
 -0.13180000000000000          1.4103086131763170E-022
 -0.13070000000000001          2.6790221212284902E-022
 -0.12959999999999999          1.8132802205798318E-022
 -0.12850000000000000         -2.4336793115110448E-022
 -0.12740000000000001         -8.1781954728956823E-022
 -0.12630000000000002         -9.5838830019980869E-022
 -0.12520000000000001         -3.7600190455807405E-023
 -0.12410000000000000          1.8583765586320583E-021
 -0.12300000000000001          3.3456874877323576E-021
 -0.12190000000000001          2.2318934377427158E-021
 -0.12080000000000000         -2.5521906552306409E-021
 -0.11970000000000000         -8.6670821360569837E-021
 -0.11860000000000001         -1.0181532707574370E-020
 -0.11750000000000001         -1.4701541005577307E-021
 -0.11640000000000000          1.6064259470498940E-020
 -0.11530000000000000          2.9996638626727179E-020
 -0.11420000000000001          2.2276075678042471E-020
 -0.11310000000000001         -1.5061433840336239E-020
 -0.11200000000000000         -6.3875041997709651E-020
 -0.11090000000000001         -8.0987793284297901E-020
 -0.10980000000000001         -2.6863751833406541E-020
 -0.10870000000000000          9.0535422107114654E-020
 -0.10760000000000000          1.9339730875673553E-019
 -0.10650000000000001          1.7002018944431249E-019
 -0.10540000000000001         -3.2844446992336793E-020
 -0.10430000000000000         -3.2266963772379968E-019
 -0.10320000000000000         -4.6999156464465374E-019
 -0.10210000000000001         -2.5733935238406198E-019
 -0.10100000000000001          3.0474954523466261E-019
  -9.9900000000000003E-002     8.7171508615469356E-019
  -9.8799999999999999E-002     9.2618337852766190E-019
  -9.7700000000000009E-002     1.7941109339044459E-019
  -9.6600000000000005E-002    -1.0579002071505792E-018
  -9.5500000000000002E-002    -1.8983046459637625E-018
  -9.4400000000000012E-002    -1.4409197791435114E-018
  -9.3300000000000008E-002     4.2386014132227181E-019
  -9.2200000000000004E-002     2.6122504365128748E-018
  -9.1100000000000000E-002     3.3676131603325172E-018
  -9.0000000000000011E-002     1.5689023008910581E-018
  -8.8900000000000007E-002    -2.0757975462877878E-018
  -8.7800000000000003E-002    -5.0598877952246343E-018
  -8.6699999999999999E-002    -4.7026036732446051E-018
  -8.5600000000000009E-002    -4.1814789050592202E-019
  -8.4500000000000006E-002     5.1922776386734401E-018
  -8.3400000000000002E-002     7.7368651146697835E-018
  -8.2299999999999998E-002     4.3814288801346594E-018
  -8.1200000000000008E-002    -3.2861005080248574E-018
  -8.0100000000000005E-002    -9.5517192309458275E-018
  -7.9000000000000001E-002    -8.6071608622909127E-018
  -7.7899999999999997E-002     2.9898169237151277E-019
  -7.6800000000000007E-002     1.0906338326203492E-017
  -7.5700000000000003E-002     1.3778171273825308E-017
  -7.4600000000000000E-002     4.0220751522620225E-018
  -7.3500000000000010E-002    -1.2985154047751333E-017
  -7.2399999999999992E-002    -2.3524270504095584E-017
  -7.1300000000000002E-002    -1.5470037695085130E-017
  -7.0200000000000012E-002     1.0376175937741718E-017
  -6.9099999999999995E-002     3.7116083776176983E-017
  -6.8000000000000005E-002     4.1672796777604998E-017
  -6.6900000000000015E-002     1.2706931848719122E-017
  -6.5799999999999997E-002    -3.6620751481767979E-017
  -6.4700000000000008E-002    -7.2975633879771614E-017
  -6.3599999999999990E-002    -6.4675055103814293E-017
  -6.2500000000000000E-002    -7.0585141466497468E-018
  -6.1400000000000010E-002     6.8343647442601274E-017
  -6.0299999999999992E-002     1.1126193337724982E-016
  -5.9200000000000003E-002     8.7533635466345577E-017
  -5.8100000000000013E-002     6.4927019281481621E-018
  -5.6999999999999995E-002    -8.1854762628483224E-017
  -5.5900000000000005E-002    -1.2139709287273135E-016
  -5.4800000000000015E-002    -9.1804143975830245E-017
  -5.3699999999999998E-002    -2.3785447819425527E-017
  -5.2600000000000008E-002     2.8160060317722444E-017
  -5.1499999999999990E-002     3.6150482759919332E-017
  -5.0400000000000000E-002     2.8391085245363604E-017
  -4.9300000000000010E-002     6.3975611030174154E-017
  -4.8199999999999993E-002     1.6393140818447767E-016
  -4.7100000000000003E-002     2.5645042149801095E-016
  -4.6000000000000013E-002     2.0074901872586592E-016
  -4.4899999999999995E-002    -9.8829931548724944E-017
  -4.3800000000000006E-002    -5.6004934381815642E-016
  -4.2699999999999988E-002    -8.9105070842426456E-016
  -4.1599999999999998E-002    -7.3687334784856319E-016
  -4.0500000000000008E-002     4.6088200860629354E-017
  -3.9399999999999991E-002     1.1695469887893612E-015
  -3.8300000000000001E-002     1.9534625348251785E-015
  -3.7200000000000011E-002     1.6951151565720119E-015
  -3.6099999999999993E-002     1.9392734624092481E-016
  -3.5000000000000003E-002    -1.9230288527885683E-015
  -3.3900000000000013E-002    -3.3893036590997277E-015
  -3.2799999999999996E-002    -3.0187019689622641E-015
  -3.1700000000000006E-002    -5.7733379226070926E-016
  -3.0599999999999988E-002     2.7915453084423163E-015
  -2.9499999999999998E-002     5.0209737185817876E-015
  -2.8400000000000009E-002     4.3511298994977198E-015
  -2.7299999999999991E-002     6.4439910816722619E-016
  -2.6200000000000001E-002    -4.1409594259437729E-015
  -2.5100000000000011E-002    -6.8614395171444006E-015
  -2.3999999999999994E-002    -5.1606570748805470E-015
  -2.2900000000000004E-002     6.5688670315035952E-016
  -2.1800000000000014E-002     7.2160668011713586E-015
  -2.0699999999999996E-002     9.7722470645601224E-015
  -1.9600000000000006E-002     5.3240412600764290E-015
  -1.8499999999999989E-002    -4.7328944250888110E-015
  -1.7399999999999999E-002    -1.4418653920020112E-014
  -1.6300000000000009E-002    -1.6222310631310369E-014
  -1.5199999999999991E-002    -6.0963222791861164E-015
  -1.4100000000000001E-002     1.2592431403982054E-014
  -1.3000000000000012E-002     2.9192719476576340E-014
  -1.1899999999999994E-002     3.1011380529494259E-014
  -1.0800000000000004E-002     1.1490582147073453E-014
  -9.6999999999999864E-003    -2.3409120914483564E-014
  -8.5999999999999965E-003    -5.5388961646418711E-014
  -7.5000000000000067E-003    -6.2223209711890354E-014
  -6.3999999999999890E-003    -3.1108372578218454E-014
  -5.2999999999999992E-003     3.0378890863384106E-014
  -4.2000000000000093E-003     9.3336823729986418E-014
  -3.0999999999999917E-003     1.1972591158499607E-013
  -2.0000000000000018E-003     8.3286879454767815E-014
  -9.0000000000001190E-004    -1.1672874648750893E-014
   2.0000000000000573E-004    -1.2559889922807849E-013
   1.2999999999999956E-003    -1.9901802103018673E-013
   2.4000000000000132E-003    -1.8280693527949338E-013
   3.5000000000000031E-003    -6.8268605829188700E-014
   4.5999999999999930E-003     1.0087122922965847E-013
   5.7000000000000106E-003     2.4478569128280614E-013
   6.8000000000000005E-003     2.8715899558391655E-013
   7.8999999999999904E-003     1.9823412930695256E-013
   9.0000000000000080E-003     1.6292250141765156E-014
   1.0099999999999998E-002    -1.6808635646542447E-013
   1.1199999999999988E-002    -2.6021445740341542E-013
   1.2300000000000005E-002    -2.1667872574307467E-013
   1.3399999999999995E-002    -7.4885566226767092E-014
   1.4500000000000013E-002     6.4482537961551428E-014
   1.5600000000000003E-002     9.6652293644656356E-014
   1.6699999999999993E-002    -1.8666522456434534E-014
   1.7800000000000010E-002    -2.2140702628497405E-013
   1.8900000000000000E-002    -3.7436698706316829E-013
   1.9999999999999990E-002    -3.3750088769719799E-013
   2.1100000000000008E-002    -5.2029293552561043E-014
   2.2199999999999998E-002     4.1712510182034812E-013
   2.3300000000000015E-002     9.0983503283487144E-013
   2.4400000000000005E-002     1.2556010918485239E-012
   2.5499999999999995E-002     1.3613794336633789E-012
   2.6600000000000013E-002     1.2423046532455961E-012
   2.7700000000000002E-002     9.6923077202992758E-013
   2.8799999999999992E-002     5.6399058600414831E-013
   2.9900000000000010E-002    -8.3070513358721176E-014
   3.1000000000000000E-002    -1.2010586752583818E-012
   3.2099999999999990E-002    -3.0142537771338240E-012
   3.3200000000000007E-002    -5.5657266989639353E-012
   3.4299999999999997E-002    -8.6005525617993683E-012
   3.5400000000000015E-002    -1.1605367708500403E-011
   3.6500000000000005E-002    -1.4017564019253026E-011
   3.7599999999999995E-002    -1.5509239725819413E-011
   3.8700000000000012E-002    -1.6185596266038438E-011
   3.9800000000000002E-002    -1.6564803348440016E-011
   4.0899999999999992E-002    -1.7323264350777023E-011
   4.2000000000000010E-002    -1.8934182346996842E-011
   4.3099999999999999E-002    -2.1409882547396286E-011
   4.4200000000000017E-002    -2.4317723182343265E-011
   4.5300000000000007E-002    -2.7085779799596033E-011
   4.6399999999999997E-002    -2.9431627274201233E-011
   4.7500000000000014E-002    -3.1648808573869758E-011
   4.8600000000000004E-002    -3.4544051646934193E-011
   4.9699999999999994E-002    -3.9016068154040795E-011
   5.0800000000000012E-002    -4.5494712164195761E-011
   5.1900000000000002E-002    -5.3577468850374288E-011
   5.2999999999999992E-002    -6.2121759125677301E-011
   5.4099999999999981E-002    -6.9803600399875876E-011
   5.5200000000000027E-002    -7.5870885962725509E-011
   5.6300000000000017E-002    -8.0672191149488981E-011
   5.7400000000000007E-002    -8.5631883528503039E-011
   5.8499999999999996E-002    -9.2635808746077686E-011
   5.9599999999999986E-002    -1.0312935921907851E-010
   6.0700000000000032E-002    -1.1741348171501187E-010
   6.1800000000000022E-002    -1.3453675673513743E-010
   6.2900000000000011E-002    -1.5285937793318993E-010
   6.4000000000000001E-002    -1.7098655824554498E-010
   6.5099999999999991E-002    -1.8855506045412085E-010
   6.6199999999999981E-002    -2.0643667331121662E-010
   6.7300000000000026E-002    -2.2625738782533489E-010
   6.8400000000000016E-002    -2.4952606647588027E-010
   6.9500000000000006E-002    -2.7688917825230419E-010
   7.0599999999999996E-002    -3.0794392036348484E-010
   7.1699999999999986E-002    -3.4169950202667110E-010
   7.2800000000000031E-002    -3.7738467906223150E-010
   7.3900000000000021E-002    -4.1509401471628848E-010
   7.5000000000000011E-002    -4.5587494890142466E-010
   7.6100000000000001E-002    -5.0121451433682296E-010
   7.7199999999999991E-002    -5.5226639927852261E-010
   7.8299999999999981E-002    -6.0932470180574683E-010
   7.9400000000000026E-002    -6.7189465102757140E-010
   8.0500000000000016E-002    -7.3932221456018965E-010
   8.1600000000000006E-002    -8.1157602860315592E-010
   8.2699999999999996E-002    -8.8965423916675945E-010
   8.3799999999999986E-002    -9.7531727138999713E-010
   8.4900000000000031E-002    -1.0702811970020321E-009
   8.6000000000000021E-002    -1.1753807926950799E-009
   8.7100000000000011E-002    -1.2902734436437413E-009
   8.8200000000000001E-002    -1.4139468484941631E-009
   8.9299999999999990E-002    -1.5457880531144497E-009
   9.0399999999999980E-002    -1.6865778773578199E-009
   9.1500000000000026E-002    -1.8387550371201655E-009
   9.2600000000000016E-002    -2.0056922789279952E-009
   9.3700000000000006E-002    -2.1903237001907883E-009
   9.4799999999999995E-002    -2.3938984128335505E-009
   9.5899999999999985E-002    -2.6156354859807607E-009
   9.7000000000000031E-002    -2.8535760421277701E-009
   9.8100000000000021E-002    -3.1062488137223454E-009
   9.9200000000000010E-002    -3.3742517668855498E-009
  0.10030000000000000         -3.6608474029975469E-009
  0.10139999999999999         -3.9711851584911528E-009
  0.10249999999999998         -4.3105159441836349E-009
  0.10360000000000003         -4.6823416255392658E-009
  0.10470000000000002         -5.0874899848452060E-009
  0.10580000000000001         -5.5246092145466719E-009
  0.10690000000000000         -5.9918003891823446E-009
  0.10799999999999998         -6.4885101735967510E-009
  0.10910000000000003         -7.0167032184542677E-009
  0.11020000000000002         -7.5807609078992755E-009
  0.11130000000000001         -8.1862747691729965E-009
  0.11240000000000000         -8.8384712881861560E-009
  0.11349999999999999         -9.5411181177951221E-009
  0.11460000000000004         -1.0296401065090777E-008
  0.11570000000000003         -1.1105660391308447E-008
  0.11680000000000001         -1.1970439750541573E-008
  0.11790000000000000         -1.2893190515228525E-008
  0.11899999999999999         -1.3877305526932560E-008
  0.12009999999999998         -1.4926643032708853E-008
  0.12120000000000003         -1.6044987560803747E-008
  0.12230000000000002         -1.7235914029356536E-008
  0.12340000000000001         -1.8503113707879493E-008
  0.12450000000000000         -1.9850938670629148E-008
  0.12559999999999999         -2.1284687790057433E-008
  0.12670000000000003         -2.2810338506928929E-008
  0.12780000000000002         -2.4433786549593606E-008
  0.12890000000000001         -2.6160048349765930E-008
  0.13000000000000000         -2.7992888007588590E-008
  0.13109999999999999         -2.9935193879282451E-008
  0.13219999999999998         -3.1989941362553509E-008
  0.13330000000000003         -3.4161267592480726E-008
  0.13440000000000002         -3.6455105600907700E-008
  0.13550000000000001         -3.8879001351688203E-008
  0.13660000000000000         -4.1441289511112700E-008
  0.13769999999999999         -4.4149988553954245E-008
  0.13880000000000003         -4.7011965875753958E-008
  0.13990000000000002         -5.0032738840855018E-008
  0.14100000000000001         -5.3216936635180900E-008
  0.14210000000000000         -5.6569110284954149E-008
  0.14319999999999999         -6.0094514253705711E-008
  0.14429999999999998         -6.3799532767916389E-008
  0.14540000000000003         -6.7691615868170629E-008
  0.14650000000000002         -7.1778913479647599E-008
  0.14760000000000001         -7.6069767374065123E-008
  0.14870000000000000         -8.0572242211474077E-008
  0.14979999999999999         -8.5293912377437664E-008
  0.15090000000000003         -9.0241755401621049E-008
  0.15200000000000002         -9.5422265644629078E-008
  0.15310000000000001         -1.0084170298796380E-007
  0.15420000000000000         -1.0650640547282819E-007
  0.15529999999999999         -1.1242304509551104E-007
  0.15639999999999998         -1.1859876281050674E-007
  0.15750000000000003         -1.2504114010880585E-007
  0.15860000000000002         -1.3175804269849323E-007
  0.15970000000000001         -1.3875737181479053E-007
  0.16080000000000000         -1.4604677289753454E-007
  0.16189999999999999         -1.5363355032604886E-007
  0.16300000000000003         -1.6152465320828924E-007
  0.16410000000000002         -1.6972657590486051E-007
  0.16520000000000001         -1.7824544329414493E-007
  0.16630000000000000         -1.8708701077230216E-007
  0.16739999999999999         -1.9625670688583341E-007
  0.16850000000000004         -2.0575976122927386E-007
  0.16960000000000003         -2.1560128971032100E-007
  0.17070000000000002         -2.2578657876692887E-007
  0.17180000000000001         -2.3632117063243641E-007
  0.17290000000000000         -2.4721083491385798E-007
  0.17399999999999999         -2.5846122753137024E-007
  0.17510000000000003         -2.7007749281438009E-007
  0.17620000000000002         -2.8206369506733608E-007
  0.17730000000000001         -2.9442281856972841E-007
  0.17840000000000000         -3.0715682441950776E-007
  0.17949999999999999         -3.2026719054556452E-007
  0.18060000000000004         -3.3375522434653249E-007
  0.18170000000000003         -3.4762231848617375E-007
  0.18280000000000002         -3.6187012142363528E-007
  0.18390000000000001         -3.7650042372661119E-007
  0.18500000000000000         -3.9151470332399185E-007
  0.18609999999999999         -4.0691398339731677E-007
  0.18720000000000003         -4.2269826394658594E-007
  0.18830000000000002         -4.3886626599487499E-007
  0.18940000000000001         -4.5541551685346349E-007
  0.19050000000000000         -4.7234240696525376E-007
  0.19159999999999999         -4.8964278676066897E-007
  0.19270000000000004         -5.0731233613987570E-007
  0.19380000000000003         -5.2534693395500653E-007
  0.19490000000000002         -5.4374288538383553E-007
  0.19600000000000001         -5.6249621138704242E-007
  0.19710000000000000         -5.8160276239505038E-007
  0.19819999999999999         -6.0105770671725622E-007
  0.19930000000000003         -6.2085484842100414E-007
  0.20040000000000002         -6.4098634311449132E-007
  0.20150000000000001         -6.6144281163360574E-007
  0.20260000000000000         -6.8221419269320904E-007
  0.20369999999999999         -7.0329025447790627E-007
  0.20480000000000004         -7.2466144729332882E-007
  0.20590000000000003         -7.4631918778322870E-007
  0.20700000000000002         -7.6825489259135793E-007
  0.20810000000000001         -7.9045878464967245E-007
  0.20920000000000000         -8.1291989317833213E-007
  0.21029999999999999         -8.3562582631202531E-007
  0.21140000000000003         -8.5856356690783286E-007
  0.21250000000000002         -8.8172004097941681E-007
  0.21360000000000001         -9.0508257244437118E-007
  0.21470000000000000         -9.2863797362952027E-007
  0.21579999999999999         -9.5237300001826952E-007
  0.21690000000000004         -9.7627378181641689E-007
  0.21800000000000003         -1.0003262786995037E-006
  0.21910000000000002         -1.0245162229693960E-006
  0.22020000000000001         -1.0488283805898391E-006
  0.22130000000000000         -1.0732478585850913E-006
  0.22239999999999999         -1.0977602187267621E-006
  0.22350000000000003         -1.1223520459680003E-006
  0.22460000000000002         -1.1470099252619548E-006
  0.22570000000000001         -1.1717198731275857E-006
  0.22680000000000000         -1.1964668829023140E-006
  0.22789999999999999         -1.2212345836815075E-006
  0.22900000000000004         -1.2460067182473722E-006
  0.23010000000000003         -1.2707668020084384E-006
  0.23120000000000002         -1.2955000556758023E-006
  0.23230000000000001         -1.3201928368289373E-006
  0.23340000000000000         -1.3448328672893695E-006
  0.23450000000000004         -1.3694076415049494E-006
  0.23560000000000003         -1.3939046539235278E-006
  0.23670000000000002         -1.4183109442456043E-006
  0.23780000000000001         -1.4426130974243279E-006
  0.23890000000000000         -1.4667976984128472E-006
  0.23999999999999999         -1.4908511047906359E-006
  0.24110000000000004         -1.5147603562581935E-006
  0.24220000000000003         -1.5385131746370462E-006
  0.24330000000000002         -1.5620988733644481E-006
  0.24440000000000001         -1.5855079027460306E-006
  0.24550000000000000         -1.6087321910163155E-006
  0.24660000000000004         -1.6317636664098245E-006
  0.24770000000000003         -1.6545940297874040E-006
  0.24880000000000002         -1.6772142998888739E-006
  0.24990000000000001         -1.6996157228277298E-006
  0.25100000000000000         -1.7217903405253310E-006
  0.25209999999999999         -1.7437312180845765E-006
  0.25320000000000004         -1.7654319890425541E-006
  0.25430000000000003         -1.7868866279968643E-006
  0.25540000000000002         -1.8080904737871606E-006
  0.25650000000000001         -1.8290400021214737E-006
  0.25760000000000000         -1.8497321434551850E-006
  0.25870000000000004         -1.8701645103647024E-006
  0.25980000000000003         -1.8903342606790829E-006
  0.26090000000000002         -1.9102387796010589E-006
  0.26200000000000001         -1.9298772713227663E-006
  0.26310000000000000         -1.9492492810968542E-006
  0.26419999999999999         -1.9683552636706736E-006
  0.26530000000000004         -1.9871952190442244E-006
  0.26640000000000003         -2.0057693745911820E-006
  0.26750000000000002         -2.0240779576852219E-006
  0.26860000000000001         -2.0421218778210459E-006
  0.26970000000000000         -2.0599036361090839E-006
  0.27080000000000004         -2.0774273252754938E-006
  0.27190000000000003         -2.0946972654201090E-006
  0.27300000000000002         -2.1117175492690876E-006
  0.27410000000000001         -2.1284927242959384E-006
  0.27520000000000000         -2.1450282474688720E-006
  0.27629999999999999         -2.1613284388877219E-006
  0.27740000000000004         -2.1773983007733477E-006
  0.27850000000000003         -2.1932416984782321E-006
  0.27960000000000002         -2.2088622699811822E-006
  0.28070000000000001         -2.2242650175030576E-006
  0.28179999999999999         -2.2394567622541217E-006
  0.28290000000000004         -2.2544447801919887E-006
  0.28400000000000003         -2.2692368020216236E-006
  0.28510000000000002         -2.2838416953163687E-006
  0.28620000000000001         -2.2982671907811891E-006
  0.28730000000000000         -2.3125205643736990E-006
  0.28840000000000005         -2.3266084099304862E-006
  0.28950000000000004         -2.3405368665407877E-006
  0.29060000000000002         -2.3543102543044370E-006
  0.29170000000000001         -2.3679340301896445E-006
  0.29280000000000000         -2.3814145606593229E-006
  0.29389999999999999         -2.3947600311657880E-006
  0.29500000000000004         -2.4079795366560575E-006
  0.29610000000000003         -2.4210821720771492E-006
  0.29720000000000002         -2.4340747586393263E-006
  0.29830000000000001         -2.4469632080581505E-006
  0.29940000000000000         -2.4597527499281568E-006
  0.30050000000000004         -2.4724488412175560E-006
  0.30160000000000003         -2.4850580757629359E-006
  0.30270000000000002         -2.4975856831588317E-006
  0.30380000000000001         -2.5100366656261031E-006
  0.30490000000000000         -2.5224157980119344E-006
  0.30599999999999999         -2.5347292194055626E-006
  0.30709999999999998         -2.5469817046541721E-006
  0.30819999999999997         -2.5591780286049470E-006
  0.30930000000000007         -2.5713220566103701E-006
  0.31040000000000006         -2.5834178813965991E-006
  0.31150000000000005         -2.5954689135687659E-006
  0.31260000000000004         -2.6074790184793528E-006
  0.31370000000000003         -2.6194518341071671E-006
  0.31480000000000002         -2.6313907710573403E-006
  0.31590000000000001         -2.6432978756929515E-006
  0.31700000000000000         -2.6551742848823778E-006
  0.31809999999999999         -2.6670202259992948E-006
  0.31919999999999998         -2.6788352442963514E-006
  0.32029999999999997         -2.6906202492682496E-006
  0.32140000000000007         -2.7023766051570419E-006
  0.32250000000000006         -2.7141052214574302E-006
  0.32360000000000005         -2.7258079171588179E-006
  0.32470000000000004         -2.7374849196348805E-006
  0.32580000000000003         -2.7491357741382672E-006
  0.32690000000000002         -2.7607579795585480E-006
  0.32800000000000001         -2.7723478979169158E-006
  0.32910000000000000         -2.7839023459819146E-006
  0.33019999999999999         -2.7954185952694388E-006
  0.33129999999999998         -2.8068955089111114E-006
  0.33239999999999997         -2.8183319500385551E-006
  0.33350000000000007         -2.8297256449150154E-006
  0.33460000000000006         -2.8410734103090363E-006
  0.33570000000000005         -2.8523704713734332E-006
  0.33680000000000004         -2.8636122806346975E-006
  0.33790000000000003         -2.8747952001140220E-006
  0.33900000000000002         -2.8859149097115733E-006
  0.34010000000000001         -2.8969659524591407E-006
  0.34120000000000000         -2.9079428713885136E-006
  0.34229999999999999         -2.9188404369051568E-006
  0.34339999999999998         -2.9296543289092369E-006
  0.34449999999999997         -2.9403802273009205E-006
  0.34560000000000007         -2.9510124477383215E-006
  0.34670000000000006         -2.9615437142638257E-006
  0.34780000000000005         -2.9719653866777662E-006
  0.34890000000000004         -2.9822713258909062E-006
