 -0.20000000000000001          0.0000000000000000
 -0.19890000000000002          0.0000000000000000
 -0.19780000000000000          0.0000000000000000
 -0.19670000000000001          0.0000000000000000
 -0.19560000000000002          0.0000000000000000
 -0.19450000000000001          1.9319638658595503E-017
 -0.19340000000000002          1.0112214167034441E-016
 -0.19230000000000000          1.0877228516960859E-016
 -0.19120000000000001         -6.1053113104594217E-016
 -0.19010000000000002         -2.6608472776480455E-015
 -0.18900000000000000         -4.2256203690220351E-015
 -0.18790000000000001          6.1001216454660045E-016
 -0.18680000000000002          1.6778406395906962E-014
 -0.18570000000000000          3.5468667797721674E-014
 -0.18460000000000001          2.8207015377396565E-014
 -0.18350000000000000         -3.0790149076194723E-014
 -0.18240000000000001         -1.1877743797197274E-013
 -0.18130000000000002         -1.4758655994366157E-013
 -0.18020000000000000         -3.3576904413327334E-014
 -0.17910000000000001          1.7575975668359303E-013
 -0.17800000000000002          2.6910927913151335E-013
 -0.17690000000000000          6.6322157997691128E-014
 -0.17580000000000001         -2.7069438270771386E-013
 -0.17470000000000002         -2.0222285488937350E-013
 -0.17360000000000000          6.4895024033334211E-013
 -0.17250000000000001          1.6994080838731572E-012
 -0.17140000000000000          1.3188434719313373E-012
 -0.17030000000000001         -1.7964914495253653E-012
 -0.16920000000000002         -6.4677265279590552E-012
 -0.16810000000000000         -8.3294334971007558E-012
 -0.16700000000000001         -2.5663542471686511E-012
 -0.16589999999999999          1.0805083390519623E-011
 -0.16480000000000000          2.3589331876739072E-011
 -0.16370000000000001          2.2907283708794998E-011
 -0.16260000000000002          1.5570484354972677E-012
 -0.16150000000000000         -3.2088175866419149E-011
 -0.16040000000000001         -5.4873629945496102E-011
 -0.15930000000000000         -4.4012644223600684E-011
 -0.15820000000000001          2.6375672479444635E-012
 -0.15710000000000002          5.8641737299416497E-011
 -0.15600000000000000          8.4462270510956318E-011
 -0.15490000000000001          5.8183392132038899E-011
 -0.15379999999999999         -3.3239257700452588E-012
 -0.15270000000000000         -5.4442058500251699E-011
 -0.15160000000000001         -5.8713339745612828E-011
 -0.15050000000000002         -2.3718216626836939E-011
 -0.14940000000000001          1.5758300697304819E-012
 -0.14830000000000002         -2.7887456233165295E-011
 -0.14720000000000000         -1.0110451365008140E-010
 -0.14610000000000001         -1.4277162785347103E-010
 -0.14500000000000002         -6.8621067161870270E-011
 -0.14390000000000000          1.3273634968947386E-010
 -0.14280000000000001          3.6193123498229826E-010
 -0.14169999999999999          4.5963213790578441E-010
 -0.14060000000000000          3.1944183409570329E-010
 -0.13950000000000001         -2.2452080125652344E-011
 -0.13840000000000002         -3.9765016279782448E-010
 -0.13730000000000001         -6.1629190639680030E-010
 -0.13619999999999999         -5.9483740155741802E-010
 -0.13510000000000000         -3.9936740026112648E-010
 -0.13400000000000001         -1.7053521095263822E-010
 -0.13290000000000002          4.6782174488853713E-012
 -0.13180000000000000          1.6386715595565315E-010
 -0.13070000000000001          4.2159561952637934E-010
 -0.12959999999999999          8.4514267806310571E-010
 -0.12850000000000000          1.3630100381689238E-009
 -0.12740000000000001          1.7886974124081222E-009
 -0.12630000000000002          1.9443744392333065E-009
 -0.12520000000000001          1.7851640166099748E-009
 -0.12410000000000000          1.4258767500052564E-009
 -0.12300000000000001          1.0540333050812226E-009
 -0.12190000000000001          8.0341833186277094E-010
 -0.12080000000000000          6.8670436004219800E-010
 -0.11970000000000000          6.3049487852845653E-010
 -0.11860000000000001          5.7403193309821734E-010
 -0.11750000000000001          5.5031562640197484E-010
 -0.11640000000000000          6.8993882829110644E-010
 -0.11530000000000000          1.1454905912700724E-009
 -0.11420000000000001          1.9827479658119224E-009
 -0.11310000000000001          3.1005948919471232E-009
 -0.11200000000000000          4.2287466861522807E-009
 -0.11090000000000001          5.0214237212740995E-009
 -0.10980000000000001          5.2199800038009313E-009
 -0.10870000000000000          4.8080615044908393E-009
 -0.10760000000000000          4.0606451534584969E-009
 -0.10650000000000001          3.4302027884790810E-009
 -0.10540000000000001          3.3164386792349672E-009
 -0.10430000000000000          3.8634446752893654E-009
 -0.10320000000000000          4.9292148140977414E-009
 -0.10210000000000001          6.2499405650839286E-009
 -0.10100000000000001          7.6605921606187092E-009
  -9.9900000000000003E-002     9.1766754195531939E-009
  -9.8799999999999999E-002     1.0860611965313100E-008
  -9.7700000000000009E-002     1.2602984433840307E-008
  -9.6600000000000005E-002     1.4055777874943722E-008
  -9.5500000000000002E-002     1.4841278428434333E-008
  -9.4400000000000012E-002     1.4903617895356189E-008
  -9.3300000000000008E-002     1.4698734673856586E-008
  -9.2200000000000004E-002     1.5010543918947055E-008
  -9.1100000000000000E-002     1.6484314357967073E-008
  -9.0000000000000011E-002     1.9224568603703767E-008
  -8.8900000000000007E-002     2.2774905517053164E-008
  -8.7800000000000003E-002     2.6488487847586564E-008
  -8.6699999999999999E-002     2.9975044668617212E-008
  -8.5600000000000009E-002     3.3261692067298559E-008
  -8.4500000000000006E-002     3.6575421802353382E-008
  -8.3400000000000002E-002     3.9997217982089966E-008
  -8.2299999999999998E-002     4.3337465172043382E-008
  -8.1200000000000008E-002     4.6353136440301618E-008
  -8.0100000000000005E-002     4.9090949971740906E-008
  -7.9000000000000001E-002     5.2015895590783686E-008
  -7.7899999999999997E-002     5.5784060037921365E-008
  -7.6800000000000007E-002     6.0845827931642839E-008
  -7.5700000000000003E-002     6.7209747101059249E-008
  -7.4600000000000000E-002     7.4534867167129771E-008
  -7.3500000000000010E-002     8.2423717628897614E-008
  -7.2399999999999992E-002     9.0647006345532969E-008
  -7.1300000000000002E-002     9.9158022237587071E-008
  -7.0200000000000012E-002     1.0798915184295584E-007
  -6.9099999999999995E-002     1.1721094494987291E-007
  -6.8000000000000005E-002     1.2699929641257569E-007
  -6.6900000000000015E-002     1.3767359519078825E-007
  -6.5799999999999997E-002     1.4956570737467470E-007
  -6.4700000000000008E-002     1.6277756742510717E-007
  -6.3599999999999990E-002     1.7706493338209553E-007
  -6.2500000000000000E-002     1.9201931422685133E-007
  -6.1400000000000010E-002     2.0743846107506786E-007
  -6.0299999999999992E-002     2.2355895623604375E-007
  -5.9200000000000003E-002     2.4092014427878507E-007
  -5.8100000000000013E-002     2.5997508146246715E-007
  -5.6999999999999995E-002     2.8082175163035127E-007
  -5.5900000000000005E-002     3.0331736411425904E-007
  -5.4800000000000015E-002     3.2744586064836232E-007
  -5.3699999999999998E-002     3.5352667282494949E-007
  -5.2600000000000008E-002     3.8199166851881558E-007
  -5.1499999999999990E-002     4.1290911667601232E-007
  -5.0400000000000000E-002     4.4574861135514961E-007
  -4.9300000000000010E-002     4.7970939931473504E-007
  -4.8199999999999993E-002     5.1440224524411955E-007
  -4.7100000000000003E-002     5.5029198620103701E-007
  -4.6000000000000013E-002     5.8847496120505606E-007
  -4.4899999999999995E-002     6.2995911775941632E-007
  -4.3800000000000006E-002     6.7507562562240128E-007
  -4.2699999999999988E-002     7.2352537472396496E-007
  -4.1599999999999998E-002     7.7495798223024953E-007
  -4.0500000000000008E-002     8.2948042745555094E-007
  -3.9399999999999991E-002     8.8758963556755048E-007
  -3.8300000000000001E-002     9.4962314278744372E-007
  -3.7200000000000011E-002     1.0153270295631788E-006
  -3.6099999999999993E-002     1.0840416280188773E-006
  -3.5000000000000003E-002     1.1553890999493701E-006
  -3.3900000000000013E-002     1.2298183946768207E-006
  -3.2799999999999996E-002     1.3084644479022031E-006
  -3.1700000000000006E-002     1.3924125141784089E-006
  -3.0599999999999988E-002     1.4820186606811817E-006
  -2.9499999999999998E-002     1.5768706589369427E-006
  -2.8400000000000009E-002     1.6763547137088335E-006
  -2.7299999999999991E-002     1.7802442471292744E-006
  -2.6200000000000001E-002     1.8887751593865378E-006
  -2.5100000000000011E-002     2.0022421267639985E-006
  -2.3999999999999994E-002     2.1206451492616559E-006
  -2.2900000000000004E-002     2.2438282485381564E-006
  -2.1800000000000014E-002     2.3719899218121624E-006
  -2.0699999999999996E-002     2.5060023745026727E-006
  -1.9600000000000006E-002     2.6471218461665121E-006
  -1.8499999999999989E-002     2.7962771582678663E-006
  -1.7399999999999999E-002     2.9535540306823772E-006
  -1.6300000000000009E-002     3.1183219562080405E-006
  -1.5199999999999991E-002     3.2898417430259909E-006
  -1.4100000000000001E-002     3.4677607345656153E-006
  -1.3000000000000012E-002     3.6520898447633352E-006
  -1.1899999999999994E-002     3.8428256630140187E-006
  -1.0800000000000004E-002     4.0397508200839433E-006
  -9.6999999999999864E-003     4.2427086555107268E-006
  -8.5999999999999965E-003     4.4520793380797112E-006
  -7.5000000000000067E-003     4.6688851398356885E-006
  -6.3999999999999890E-003     4.8942893045022279E-006
  -5.2999999999999992E-003     5.1288720896990580E-006
  -4.2000000000000093E-003     5.3723306336904918E-006
  -3.0999999999999917E-003     5.6238823162856511E-006
  -2.0000000000000018E-003     5.8829768931899643E-006
  -9.0000000000001190E-004     6.1496393755077291E-006
   2.0000000000000573E-004     6.4241671680064270E-006
   1.2999999999999956E-003     6.7065661824016179E-006
   2.4000000000000132E-003     6.9963707574059949E-006
   3.5000000000000031E-003     7.2930615715448456E-006
   4.5999999999999930E-003     7.5966449912810833E-006
   5.7000000000000106E-003     7.9077590271479991E-006
   6.8000000000000005E-003     8.2271135397603278E-006
   7.8999999999999904E-003     8.5547699200104430E-006
   9.0000000000000080E-003     8.8899550974018312E-006
   1.0099999999999998E-002     9.2315949586917036E-006
   1.1199999999999988E-002     9.5790546765782192E-006
   1.2300000000000005E-002     9.9323988251852074E-006
   1.3399999999999995E-002     1.0291961189068217E-005
   1.4500000000000013E-002     1.0657689017534544E-005
   1.5600000000000003E-002     1.1028935659851229E-005
   1.6699999999999993E-002     1.1404878023313169E-005
   1.7800000000000010E-002     1.1785095011873440E-005
   1.8900000000000000E-002     1.2169713954790289E-005
   1.9999999999999990E-002     1.2558987691590816E-005
   2.1100000000000008E-002     1.2952730685355855E-005
   2.2199999999999998E-002     1.3350178960535916E-005
   2.3300000000000015E-002     1.3750366633757717E-005
   2.4400000000000005E-002     1.4152599760563805E-005
   2.5499999999999995E-002     1.4556559108313859E-005
   2.6600000000000013E-002     1.4961952729208608E-005
   2.7700000000000002E-002     1.5368139429483305E-005
   2.8799999999999992E-002     1.5774121493450098E-005
   2.9900000000000010E-002     1.6178884834516519E-005
   3.1000000000000000E-002     1.6581703675910549E-005
   3.2099999999999990E-002     1.6982121451291899E-005
   3.3200000000000007E-002     1.7379654309479222E-005
   3.4299999999999997E-002     1.7773592844605144E-005
   3.5400000000000015E-002     1.8163160348194340E-005
   3.6500000000000005E-002     1.8547818399383371E-005
   3.7599999999999995E-002     1.8927354176412015E-005
   3.8700000000000012E-002     1.9301589418318725E-005
   3.9800000000000002E-002     1.9669969333335422E-005
   4.0899999999999992E-002     2.0031446183565662E-005
   4.2000000000000010E-002     2.0384744857437563E-005
   4.3099999999999999E-002     2.0728726667584499E-005
   4.4200000000000017E-002     2.1062498490209332E-005
   4.5300000000000007E-002     2.1385190848377167E-005
   4.6399999999999997E-002     2.1695761461159773E-005
   4.7500000000000014E-002     2.1993128029862043E-005
   4.8600000000000004E-002     2.2276559320743744E-005
   4.9699999999999994E-002     2.2545909814652597E-005
   5.0800000000000012E-002     2.2801339582656117E-005
   5.1900000000000002E-002     2.3042734028421874E-005
   5.2999999999999992E-002     2.3269329176400385E-005
   5.4099999999999981E-002     2.3479889932786643E-005
   5.5200000000000027E-002     2.3673250325372964E-005
   5.6300000000000017E-002     2.3848668206482712E-005
   5.7400000000000007E-002     2.4005681552807387E-005
   5.8499999999999996E-002     2.4143691916833212E-005
   5.9599999999999986E-002     2.4261786165879619E-005
   6.0700000000000032E-002     2.4359052986255427E-005
   6.1800000000000022E-002     2.4435104933217676E-005
   6.2900000000000011E-002     2.4490222131134519E-005
   6.4000000000000001E-002     2.4524895707144906E-005
   6.5099999999999991E-002     2.4539180230930955E-005
   6.6199999999999981E-002     2.4532469979021271E-005
   6.7300000000000026E-002     2.4503890017512759E-005
   6.8400000000000016E-002     2.4452892830594951E-005
   6.9500000000000006E-002     2.4379418391617516E-005
   7.0599999999999996E-002     2.4283497623400336E-005
   7.1699999999999986E-002     2.4164775823009708E-005
   7.2800000000000031E-002     2.4022507204790180E-005
   7.3900000000000021E-002     2.3856120606069033E-005
   7.5000000000000011E-002     2.3665779735892594E-005
   7.6100000000000001E-002     2.3452339519280527E-005
   7.7199999999999991E-002     2.3216767658595517E-005
   7.8299999999999981E-002     2.2959608031669225E-005
   7.9400000000000026E-002     2.2680966139887056E-005
   8.0500000000000016E-002     2.2380989321390702E-005
   8.1600000000000006E-002     2.2060270566725710E-005
   8.2699999999999996E-002     2.1719670257879966E-005
   8.3799999999999986E-002     2.1359692254918245E-005
   8.4900000000000031E-002     2.0980127374059148E-005
   8.6000000000000021E-002     2.0580451746354442E-005
   8.7100000000000011E-002     2.0160650819888911E-005
   8.8200000000000001E-002     1.9721659555215964E-005
   8.9299999999999990E-002     1.9265011360402805E-005
   9.0399999999999980E-002     1.8792021364788186E-005
   9.1500000000000026E-002     1.8303329852642163E-005
   9.2600000000000016E-002     1.7799273337004384E-005
   9.3700000000000006E-002     1.7280661268159435E-005
   9.4799999999999995E-002     1.6749079804867204E-005
   9.5899999999999985E-002     1.6206300642806742E-005
   9.7000000000000031E-002     1.5653347873012251E-005
   9.8100000000000021E-002     1.5090206943568499E-005
   9.9200000000000010E-002     1.4516532246488814E-005
  0.10030000000000000          1.3932689398643305E-005
  0.10139999999999999          1.3340168152353481E-005
  0.10249999999999998          1.2740961210510925E-005
  0.10360000000000003          1.2136551049479524E-005
  0.10470000000000002          1.1527636161190244E-005
  0.10580000000000001          1.0914771337411163E-005
  0.10690000000000000          1.0299187124473779E-005
  0.10799999999999998          9.6829380709094028E-006
  0.10910000000000003          9.0680860012069479E-006
  0.11020000000000002          8.4557404989025809E-006
  0.11130000000000001          7.8458106145261210E-006
  0.11240000000000000          7.2378325057796659E-006
  0.11349999999999999          6.6320485530012388E-006
  0.11460000000000004          6.0296988522167063E-006
  0.11570000000000003          5.4324286793415739E-006
  0.11680000000000001          4.8414481170765539E-006
  0.11790000000000000          4.2573933569655338E-006
  0.11899999999999999          3.6809626635658008E-006
  0.12009999999999998          3.1135832614381124E-006
  0.12120000000000003          2.5572080630808493E-006
  0.12230000000000002          2.0134077658439741E-006
  0.12340000000000001          1.4826791812083296E-006
  0.12450000000000000          9.6465430488021218E-007
  0.12559999999999999          4.5905653678344398E-007
  0.12670000000000003         -3.3620569439574444E-008
  0.12780000000000002         -5.1229750397397131E-007
  0.12890000000000001         -9.7613008165353105E-007
  0.13000000000000000         -1.4250675803850614E-006
  0.13109999999999999         -1.8594449784359092E-006
  0.13219999999999998         -2.2790966340835147E-006
  0.13330000000000003         -2.6829216039913804E-006
  0.13440000000000002         -3.0694088763993491E-006
  0.13550000000000001         -3.4377305837551322E-006
  0.13660000000000000         -3.7881889056733936E-006
  0.13769999999999999         -4.1215662349713331E-006
  0.13880000000000003         -4.4381472434906069E-006
  0.13990000000000002         -4.7373246161441039E-006
  0.14100000000000001         -5.0182179620605089E-006
  0.14210000000000000         -5.2806899475398549E-006
  0.14319999999999999         -5.5256537052627212E-006
  0.14429999999999998         -5.7543179536877648E-006
  0.14540000000000003         -5.9670774135155544E-006
  0.14650000000000002         -6.1631826611118298E-006
  0.14760000000000001         -6.3415395743503582E-006
  0.14870000000000000         -6.5018361965484282E-006
  0.14979999999999999         -6.6448983488952554E-006
  0.15090000000000003         -6.7719706748902120E-006
  0.15200000000000002         -6.8836807258775229E-006
  0.15310000000000001         -6.9798370532224632E-006
  0.15420000000000000         -7.0602036430499236E-006
  0.15529999999999999         -7.1253070927922326E-006
  0.15639999999999998         -7.1764789026927829E-006
  0.15750000000000003         -7.2150683081416565E-006
  0.15860000000000002         -7.2415864451612489E-006
  0.15970000000000001         -7.2556849772807811E-006
  0.16080000000000000         -7.2570014708615974E-006
  0.16189999999999999         -7.2459529292244599E-006
  0.16300000000000003         -7.2236102823807062E-006
  0.16410000000000002         -7.1908966674526365E-006
  0.16520000000000001         -7.1479857979282880E-006
  0.16630000000000000         -7.0945411607680063E-006
  0.16739999999999999         -7.0306796260409683E-006
  0.16850000000000004         -6.9575253291985654E-006
  0.16960000000000003         -6.8767558332182179E-006
  0.17070000000000002         -6.7895975917052672E-006
  0.17180000000000001         -6.6962388700629796E-006
  0.17290000000000000         -6.5963390625255410E-006
  0.17399999999999999         -6.4900145844147777E-006
  0.17510000000000003         -6.3782586039450282E-006
  0.17620000000000002         -6.2623730627818778E-006
  0.17730000000000001         -6.1429964262059720E-006
  0.17840000000000000         -6.0197698985574614E-006
  0.17949999999999999         -5.8920372794090177E-006
  0.18060000000000004         -5.7599859246692052E-006
  0.18170000000000003         -5.6249950830532618E-006
  0.18280000000000002         -5.4888118938832958E-006
  0.18390000000000001         -5.3523408496402170E-006
  0.18500000000000000         -5.2152340686005988E-006
  0.18609999999999999         -5.0767271204676021E-006
  0.18720000000000003         -4.9368368308932088E-006
  0.18830000000000002         -4.7967059799701957E-006
  0.18940000000000001         -4.6577006287406274E-006
  0.19050000000000000         -4.5203037188911446E-006
  0.19159999999999999         -4.3839113459397700E-006
  0.19270000000000004         -4.2477172428333818E-006
  0.19380000000000003         -4.1117523323918405E-006
  0.19490000000000002         -3.9770156945450434E-006
  0.19600000000000001         -3.8446410144387499E-006
  0.19710000000000000         -3.7148772662475718E-006
  0.19819999999999999         -3.5870775718648719E-006
  0.19930000000000003         -3.4607021461851488E-006
  0.20040000000000002         -3.3361588975821469E-006
  0.20150000000000001         -3.2147261208592084E-006
  0.20260000000000000         -3.0975527351983480E-006
  0.20369999999999999         -2.9846805773558472E-006
  0.20480000000000004         -2.8751578611263006E-006
  0.20590000000000003         -2.7680857783706808E-006
  0.20700000000000002         -2.6634793357515678E-006
  0.20810000000000001         -2.5621027361921259E-006
  0.20920000000000000         -2.4645173652970240E-006
  0.21029999999999999         -2.3703587430645271E-006
  0.21140000000000003         -2.2786362023907286E-006
  0.21250000000000002         -2.1888140508962854E-006
  0.21360000000000001         -2.1014884623582081E-006
  0.21470000000000000         -2.0179318198642778E-006
  0.21579999999999999         -1.9390065517654511E-006
  0.21690000000000004         -1.8644692545421652E-006
  0.21800000000000003         -1.7933155049831503E-006
  0.21910000000000002         -1.7248052017748383E-006
  0.22020000000000001         -1.6590661289228283E-006
  0.22130000000000000         -1.5966865021254920E-006
  0.22239999999999999         -1.5377845556940598E-006
  0.22350000000000003         -1.4816358770985696E-006
  0.22460000000000002         -1.4272774251366817E-006
  0.22570000000000001         -1.3744233910983638E-006
  0.22680000000000000         -1.3238208111942849E-006
  0.22789999999999999         -1.2765688097715373E-006
  0.22900000000000004         -1.2331159950917707E-006
  0.23010000000000003         -1.1929306538149611E-006
  0.23120000000000002         -1.1551060197234406E-006
  0.23230000000000001         -1.1192395277248376E-006
  0.23340000000000000         -1.0856380185941617E-006
  0.23450000000000004         -1.0546825706114569E-006
  0.23560000000000003         -1.0260016551910485E-006
  0.23670000000000002         -9.9847318324462383E-007
  0.23780000000000001         -9.7110614660776346E-007
  0.23890000000000000         -9.4392032679023178E-007
  0.23999999999999999         -9.1795965317940677E-007
  0.24110000000000004         -8.9436537109575742E-007
  0.24220000000000003         -8.7337531340379691E-007
  0.24330000000000002         -8.5426171381185063E-007
  0.24440000000000001         -8.3621426938405768E-007
  0.24550000000000000         -8.1917596617130065E-007
  0.24660000000000004         -8.0380789313493084E-007
  0.24770000000000003         -7.9059549307201935E-007
  0.24880000000000002         -7.7902751627333208E-007
  0.24990000000000001         -7.6770544410463665E-007
  0.25100000000000000         -7.5539099952946924E-007
  0.25209999999999999         -7.4192820420647579E-007
  0.25320000000000004         -7.2815248586265349E-007
  0.25430000000000003         -7.1504894094686034E-007
  0.25540000000000002         -7.0292963982864187E-007
  0.25650000000000001         -6.9134983959883144E-007
  0.25760000000000000         -6.7980334961247334E-007
  0.25870000000000004         -6.6835019651988489E-007
  0.25980000000000003         -6.5753800981837081E-007
  0.26090000000000002         -6.4764975604702041E-007
  0.26200000000000001         -6.3811950212765527E-007
  0.26310000000000000         -6.2782038412477905E-007
  0.26419999999999999         -6.1587911659443274E-007
  0.26530000000000004         -6.0226017239982855E-007
  0.26640000000000003         -5.8759098919835206E-007
  0.26750000000000002         -5.7251958196501639E-007
  0.26860000000000001         -5.5718516023261186E-007
  0.26970000000000000         -5.4133317917147958E-007
  0.27080000000000004         -5.2483426316029244E-007
  0.27190000000000003         -5.0784962013493980E-007
  0.27300000000000002         -4.9056893658416017E-007
  0.27410000000000001         -4.7276009240703530E-007
  0.27520000000000000         -4.5367255552263660E-007
  0.27629999999999999         -4.3247402459200408E-007
  0.27740000000000004         -4.0882417806641812E-007
  0.27850000000000003         -3.8294498949653003E-007
  0.27960000000000002         -3.5520673691279927E-007
  0.28070000000000001         -3.2570386565566295E-007
  0.28179999999999999         -2.9422386660370991E-007
  0.28290000000000004         -2.6068443048642985E-007
  0.28400000000000003         -2.2550881340066026E-007
  0.28510000000000002         -1.8946876423341976E-007
  0.28620000000000001         -1.5300250311156094E-007
  0.28730000000000000         -1.1570607938437680E-007
  0.28840000000000005         -7.6496213807782225E-008
  0.28950000000000004         -3.4343941024413644E-008
  0.29060000000000002          1.1090611096168256E-008
  0.29170000000000001          5.9492567316968252E-008
  0.29280000000000000          1.1046237347045694E-007
  0.29389999999999999          1.6401467917148892E-007
  0.29500000000000004          2.2051852965887686E-007
  0.29610000000000003          2.8018274633723332E-007
  0.29720000000000002          3.4264883197465790E-007
  0.29830000000000001          4.0720809124650338E-007
  0.29940000000000000          4.7343084474960093E-007
  0.30050000000000004          5.4162580909178359E-007
  0.30160000000000003          6.1268065110198169E-007
  0.30270000000000002          6.8736881075892492E-007
  0.30380000000000001          7.6576861829380346E-007
  0.30490000000000000          8.4731459537579001E-007
  0.30599999999999999          9.3138169177109111E-007
  0.30709999999999998          1.0177537888011982E-006
  0.30819999999999997          1.1066481420129969E-006
  0.30930000000000007          1.1983800050074897E-006
  0.31040000000000006          1.2930723869430909E-006
  0.31150000000000005          1.3907049378758483E-006
  0.31260000000000004          1.4914453458914017E-006
  0.31370000000000003          1.5957640471242430E-006
  0.31480000000000002          1.7041184037225260E-006
  0.31590000000000001          1.8165569599659584E-006
  0.31700000000000000          1.9325641460454718E-006
  0.31809999999999999          2.0513962226686923E-006
  0.31919999999999998          2.1726089016738034E-006
  0.32029999999999997          2.2962537968851304E-006
  0.32140000000000007          2.4226460482168384E-006
  0.32250000000000006          2.5519736936985181E-006
  0.32360000000000005          2.6841860290005469E-006
  0.32470000000000004          2.8192698664497478E-006
  0.32580000000000003          2.9574975997093024E-006
  0.32690000000000002          3.0993228392617193E-006
  0.32800000000000001          3.2449395348521529E-006
  0.32910000000000000          3.3939065815502422E-006
  0.33019999999999999          3.5453208511171261E-006
  0.33129999999999998          3.6984852158638975E-006
  0.33239999999999997          3.8534030863956870E-006
  0.33350000000000007          4.0106838241626822E-006
  0.33460000000000006          4.1709781726240019E-006
  0.33570000000000005          4.3344271034584228E-006
  0.33680000000000004          4.5006659092905305E-006
  0.33790000000000003          4.6693212425452488E-006
  0.33900000000000002          4.8404081098851570E-006
  0.34010000000000001          5.0142543841502451E-006
  0.34120000000000000          5.1910310503444457E-006
  0.34229999999999999          5.3703288358519590E-006
  0.34339999999999998          5.5513287406938430E-006
  0.34449999999999997          5.7334609664394325E-006
  0.34560000000000007          5.9168628467886971E-006
  0.34670000000000006          6.1021578403597029E-006
  0.34780000000000005          6.2897838688513526E-006
  0.34890000000000004          6.4795144680829033E-006
