 -0.20000000000000001          0.0000000000000000
 -0.19890000000000002          0.0000000000000000
 -0.19780000000000000          0.0000000000000000
 -0.19670000000000001          2.1735490113343947E-015
 -0.19560000000000002          1.2681524023440156E-014
 -0.19450000000000001          3.3178927677122647E-014
 -0.19340000000000002          4.4655017937501526E-014
 -0.19230000000000000          1.0688017582517056E-014
 -0.19120000000000001         -7.6849578133433849E-014
 -0.19010000000000002         -1.4188391401440820E-013
 -0.18900000000000000         -4.8129475936371097E-014
 -0.18790000000000001          2.4450797289632398E-013
 -0.18680000000000002          5.0256803926784777E-013
 -0.18570000000000000          2.8116609518055724E-013
 -0.18460000000000001         -6.2389801441450898E-013
 -0.18350000000000000         -1.6217150235545152E-012
 -0.18240000000000001         -1.3727840478955367E-012
 -0.18130000000000002          1.0761346241200398E-012
 -0.18020000000000000          4.6480245867452918E-012
 -0.17910000000000001          5.8139070814589022E-012
 -0.17800000000000002          9.1743041115421864E-013
 -0.17690000000000000         -9.5121133192321849E-012
 -0.17580000000000001         -1.8159774031745179E-011
 -0.17470000000000002         -1.4215925311922284E-011
 -0.17360000000000000          7.3259575489315054E-012
 -0.17250000000000001          3.6810016840194137E-011
 -0.17140000000000000          5.1030457637324389E-011
 -0.17030000000000001          2.8361641160601359E-011
 -0.16920000000000002         -3.0299186770665898E-011
 -0.16810000000000000         -9.2256487171926693E-011
 -0.16700000000000001         -1.0867035049599849E-010
 -0.16589999999999999         -4.9986983302607868E-011
 -0.16480000000000000          6.3555251339497687E-011
 -0.16370000000000001          1.6375287237302416E-010
 -0.16260000000000002          1.7513393513191033E-010
 -0.16150000000000000          7.0101015270385147E-011
 -0.16040000000000001         -1.0184309645611123E-010
 -0.15930000000000000         -2.3642118818223423E-010
 -0.15820000000000001         -2.3768056967021778E-010
 -0.15710000000000002         -8.0814285818853193E-011
 -0.15600000000000000          1.6693629811825872E-010
 -0.15490000000000001          3.8039174588000435E-010
 -0.15379999999999999          4.4380177310898716E-010
 -0.15270000000000000          3.1264621447313345E-010
 -0.15160000000000001          3.7848012918173524E-011
 -0.15050000000000002         -2.6029020605555786E-010
 -0.14940000000000001         -4.6148543320079227E-010
 -0.14830000000000002         -5.3310783565407860E-010
 -0.14720000000000000         -5.9290145015822304E-010
 -0.14610000000000001         -8.9620089127606661E-010
 -0.14500000000000002         -1.7208966474058229E-009
 -0.14390000000000000         -3.1844213932430421E-009
 -0.14280000000000001         -5.0931703299283981E-009
 -0.14169999999999999         -6.9384973322428323E-009
 -0.14060000000000000         -8.0815869551997821E-009
 -0.13950000000000001         -8.0470137220345350E-009
 -0.13840000000000002         -6.7613377119357665E-009
 -0.13730000000000001         -4.6011838783499570E-009
 -0.13619999999999999         -2.2400430399471816E-009
 -0.13510000000000000         -4.0605444007191238E-010
 -0.13400000000000001          3.1362548669200407E-010
 -0.13290000000000002         -4.3093242863001535E-010
 -0.13180000000000000         -2.7110773626048967E-009
 -0.13070000000000001         -6.2762537389460249E-009
 -0.12959999999999999         -1.0529555005689417E-008
 -0.12850000000000000         -1.4613210197467197E-008
 -0.12740000000000001         -1.7658248196994464E-008
 -0.12630000000000002         -1.9118868266332356E-008
 -0.12520000000000001         -1.9004488649443374E-008
 -0.12410000000000000         -1.7859049350477108E-008
 -0.12300000000000001         -1.6504964506225406E-008
 -0.12190000000000001         -1.5724971547115274E-008
 -0.12080000000000000         -1.6061246554954778E-008
 -0.11970000000000000         -1.7773990279579266E-008
 -0.11860000000000001         -2.0867473082830656E-008
 -0.11750000000000001         -2.5094898603583715E-008
 -0.11640000000000000         -2.9973314497055981E-008
 -0.11530000000000000         -3.4918251401450107E-008
 -0.11420000000000001         -3.9523367689753286E-008
 -0.11310000000000001         -4.3826279494396658E-008
 -0.11200000000000000         -4.8320778489596705E-008
 -0.11090000000000001         -5.3630071050747574E-008
 -0.10980000000000001         -6.0043809924081870E-008
 -0.10870000000000000         -6.7277802884291305E-008
 -0.10760000000000000         -7.4665024385467404E-008
 -0.10650000000000001         -8.1637438142934116E-008
 -0.10540000000000001         -8.8120543750846991E-008
 -0.10430000000000000         -9.4555637986104557E-008
 -0.10320000000000000         -1.0159791941077856E-007
 -0.10210000000000001         -1.0979351117157421E-007
 -0.10100000000000001         -1.1948262113037345E-007
  -9.9900000000000003E-002    -1.3089419326206553E-007
  -9.8799999999999999E-002    -1.4420095340028638E-007
  -9.7700000000000009E-002    -1.5940221942400967E-007
  -9.6600000000000005E-002    -1.7617614389564551E-007
  -9.5500000000000002E-002    -1.9396827610762557E-007
  -9.4400000000000012E-002    -2.1237984526578657E-007
  -9.3300000000000008E-002    -2.3157119244388014E-007
  -9.2200000000000004E-002    -2.5228223421436269E-007
  -9.1100000000000000E-002    -2.7536691504792543E-007
  -9.0000000000000011E-002    -3.0119667826511431E-007
  -8.8900000000000007E-002    -3.2945615657808958E-007
  -8.7800000000000003E-002    -3.5952783150605683E-007
  -8.6699999999999999E-002    -3.9112441641009354E-007
  -8.5600000000000009E-002    -4.2459419091755990E-007
  -8.4500000000000006E-002    -4.6063678382779472E-007
  -8.3400000000000002E-002    -4.9973567683991860E-007
  -8.2299999999999998E-002    -5.4188319609238533E-007
  -8.1200000000000008E-002    -5.8687055570771918E-007
  -8.0100000000000005E-002    -6.3484020529358531E-007
  -7.9000000000000001E-002    -6.8652315121653373E-007
  -7.7899999999999997E-002    -7.4289260965088033E-007
  -7.6800000000000007E-002    -8.0455345141672296E-007
  -7.5700000000000003E-002    -8.7146366922752350E-007
  -7.4600000000000000E-002    -9.4326236421693466E-007
  -7.3500000000000010E-002    -1.0198774589298409E-006
  -7.2399999999999992E-002    -1.1018076975233271E-006
  -7.1300000000000002E-002    -1.1898026741619105E-006
  -7.0200000000000012E-002    -1.2842679097957443E-006
  -6.9099999999999995E-002    -1.3850014966010349E-006
  -6.8000000000000005E-002    -1.4915432302586851E-006
  -6.6900000000000015E-002    -1.6038150079111801E-006
  -6.5799999999999997E-002    -1.7224580233232700E-006
  -6.4700000000000008E-002    -1.8485861801309511E-006
  -6.3599999999999990E-002    -1.9832427824439947E-006
  -6.2500000000000000E-002    -2.1270923298288835E-006
  -6.1400000000000010E-002    -2.2805772914580302E-006
  -6.0299999999999992E-002    -2.4442595076834550E-006
  -5.9200000000000003E-002    -2.6188913579971995E-006
  -5.8100000000000013E-002    -2.8050990295014344E-006
  -5.6999999999999995E-002    -3.0030316793272505E-006
  -5.5900000000000005E-002    -3.2124157769430894E-006
  -5.4800000000000015E-002    -3.4330641938140616E-006
  -5.3699999999999998E-002    -3.6654041650763247E-006
  -5.2600000000000008E-002    -3.9105379983084276E-006
  -5.1499999999999990E-002    -4.1697890083014499E-006
  -5.0400000000000000E-002    -4.4441608224587981E-006
  -4.9300000000000010E-002    -4.7341841309389565E-006
  -4.8199999999999993E-002    -5.0401990847603884E-006
  -4.7100000000000003E-002    -5.3626854423782788E-006
  -4.6000000000000013E-002    -5.7022598412004299E-006
  -4.4899999999999995E-002    -6.0593824855459388E-006
  -4.3800000000000006E-002    -6.4341757024521939E-006
  -4.2699999999999988E-002    -6.8266626840340905E-006
  -4.1599999999999998E-002    -7.2372681643173564E-006
  -4.0500000000000008E-002    -7.6670876296702772E-006
  -3.9399999999999991E-002    -8.1176240200875327E-006
  -3.8300000000000001E-002    -8.5902001956128515E-006
  -3.7200000000000011E-002    -9.0855855887639336E-006
  -3.6099999999999993E-002    -9.6041585493367165E-006
  -3.5000000000000003E-002    -1.0146376553166192E-005
  -3.3900000000000013E-002    -1.0713019946706481E-005
  -3.2799999999999996E-002    -1.1304934560030233E-005
  -3.1700000000000006E-002    -1.1922544217668474E-005
  -3.0599999999999988E-002    -1.2565677934617270E-005
  -2.9499999999999998E-002    -1.3233950085123070E-005
  -2.8400000000000009E-002    -1.3927387954026926E-005
  -2.7299999999999991E-002    -1.4646720956079662E-005
  -2.6200000000000001E-002    -1.5393088688142598E-005
  -2.5100000000000011E-002    -1.6167488865903579E-005
  -2.3999999999999994E-002    -1.6970481738098897E-005
  -2.2900000000000004E-002    -1.7802378351916559E-005
  -2.1800000000000014E-002    -1.8663586160982959E-005
  -2.0699999999999996E-002    -1.9554678146960214E-005
  -1.9600000000000006E-002    -2.0476069039432332E-005
  -1.8499999999999989E-002    -2.1427666069939733E-005
  -1.7399999999999999E-002    -2.2408921722671948E-005
  -1.6300000000000009E-002    -2.3419308490701951E-005
  -1.5199999999999991E-002    -2.4458789994241670E-005
  -1.4100000000000001E-002    -2.5527851903461851E-005
  -1.3000000000000012E-002    -2.6627065381035209E-005
  -1.1899999999999994E-002    -2.7756617782870308E-005
  -1.0800000000000004E-002    -2.8916241717524827E-005
  -9.6999999999999864E-003    -3.0105500627541915E-005
  -8.5999999999999965E-003    -3.1324056180892512E-005
  -7.5000000000000067E-003    -3.2571562769589946E-005
  -6.3999999999999890E-003    -3.3847343729576096E-005
  -5.2999999999999992E-003    -3.5150271287420765E-005
  -4.2000000000000093E-003    -3.6479112168308347E-005
  -3.0999999999999917E-003    -3.7833018723176792E-005
  -2.0000000000000018E-003    -3.9211663533933461E-005
  -9.0000000000001190E-004    -4.0614861063659191E-005
   2.0000000000000573E-004    -4.2041971028083935E-005
   1.2999999999999956E-003    -4.3491669202921912E-005
   2.4000000000000132E-003    -4.4962340325582772E-005
   3.5000000000000031E-003    -4.6452623791992664E-005
   4.5999999999999930E-003    -4.7961573727661744E-005
   5.7000000000000106E-003    -4.9488298827782273E-005
   6.8000000000000005E-003    -5.1031416660407558E-005
   7.8999999999999904E-003    -5.2588922699214891E-005
   9.0000000000000080E-003    -5.4158666898729280E-005
   1.0099999999999998E-002    -5.5738932132953778E-005
   1.1199999999999988E-002    -5.7328477851115167E-005
   1.2300000000000005E-002    -5.8925976190948859E-005
   1.3399999999999995E-002    -6.0529382608365268E-005
   1.4500000000000013E-002    -6.2135870393831283E-005
   1.5600000000000003E-002    -6.3742474594619125E-005
   1.6699999999999993E-002    -6.5346830524504185E-005
   1.7800000000000010E-002    -6.6947330196853727E-005
   1.8900000000000000E-002    -6.8542591179721057E-005
   1.9999999999999990E-002    -7.0130729000084102E-005
   2.1100000000000008E-002    -7.1709131589159369E-005
   2.2199999999999998E-002    -7.3274881287943572E-005
   2.3300000000000015E-002    -7.4825300544034690E-005
   2.4400000000000005E-002    -7.6358162914402783E-005
   2.5499999999999995E-002    -7.7871394751127809E-005
   2.6600000000000013E-002    -7.9362536780536175E-005
   2.7700000000000002E-002    -8.0828627687878907E-005
   2.8799999999999992E-002    -8.2266618846915662E-005
   2.9900000000000010E-002    -8.3673789049498737E-005
   3.1000000000000000E-002    -8.5047904576640576E-005
   3.2099999999999990E-002    -8.6386935436166823E-005
   3.3200000000000007E-002    -8.7688633357174695E-005
   3.4299999999999997E-002    -8.8950437202583998E-005
   3.5400000000000015E-002    -9.0169611212331802E-005
   3.6500000000000005E-002    -9.1343477834016085E-005
   3.7599999999999995E-002    -9.2469454102683812E-005
   3.8700000000000012E-002    -9.3545000709127635E-005
   3.9800000000000002E-002    -9.4567636551801115E-005
   4.0899999999999992E-002    -9.5535040600225329E-005
   4.2000000000000010E-002    -9.6445161034353077E-005
   4.3099999999999999E-002    -9.7296091553289443E-005
   4.4200000000000017E-002    -9.8085918580181897E-005
   4.5300000000000007E-002    -9.8812677606474608E-005
   4.6399999999999997E-002    -9.9474505987018347E-005
   4.7500000000000014E-002    -1.0006993397837505E-004
   4.8600000000000004E-002    -1.0059784835902974E-004
   4.9699999999999994E-002    -1.0105720866704360E-004
   5.0800000000000012E-002    -1.0144655971089378E-004
   5.1900000000000002E-002    -1.0176394425798208E-004
   5.2999999999999992E-002    -1.0200745600741357E-004
   5.4099999999999981E-002    -1.0217578528681770E-004
   5.5200000000000027E-002    -1.0226835001958534E-004
   5.6300000000000017E-002    -1.0228491737507284E-004
   5.7400000000000007E-002    -1.0222505807178095E-004
   5.8499999999999996E-002    -1.0208792082266882E-004
   5.9599999999999986E-002    -1.0187269072048366E-004
   6.0700000000000032E-002    -1.0157918586628512E-004
   6.1800000000000022E-002    -1.0120795923285186E-004
   6.2900000000000011E-002    -1.0075986210722476E-004
   6.4000000000000001E-002    -1.0023544018622488E-004
   6.5099999999999991E-002    -9.9634606158360839E-005
   6.6199999999999981E-002    -9.8957134468946606E-005
   6.7300000000000026E-002    -9.8203483503311872E-005
   6.8400000000000016E-002    -9.7374831966590136E-005
   6.9500000000000006E-002    -9.6472802397329360E-005
   7.0599999999999996E-002    -9.5498922746628523E-005
   7.1699999999999986E-002    -9.4454255304299295E-005
   7.2800000000000031E-002    -9.3339782324619591E-005
   7.3900000000000021E-002    -9.2156922619324178E-005
   7.5000000000000011E-002    -9.0907647972926497E-005
   7.6100000000000001E-002    -8.9594184828456491E-005
   7.7199999999999991E-002    -8.8218694145325571E-005
   7.8299999999999981E-002    -8.6783118604216725E-005
   7.9400000000000026E-002    -8.5289379057940096E-005
   8.0500000000000016E-002    -8.3739709225483239E-005
   8.1600000000000006E-002    -8.2136546552646905E-005
   8.2699999999999996E-002    -8.0482168414164335E-005
   8.3799999999999986E-002    -7.8778859460726380E-005
   8.4900000000000031E-002    -7.7028969826642424E-005
   8.6000000000000021E-002    -7.5235097028780729E-005
   8.7100000000000011E-002    -7.3400326073169708E-005
   8.8200000000000001E-002    -7.1527938416693360E-005
   8.9299999999999990E-002    -6.9621128204744309E-005
   9.0399999999999980E-002    -6.7682914959732443E-005
   9.1500000000000026E-002    -6.5716354583855718E-005
   9.2600000000000016E-002    -6.3724750361870974E-005
   9.3700000000000006E-002    -6.1711463786195964E-005
   9.4799999999999995E-002    -5.9679576224880293E-005
   9.5899999999999985E-002    -5.7631583331385627E-005
   9.7000000000000031E-002    -5.5569496907992288E-005
   9.8100000000000021E-002    -5.3495474276132882E-005
   9.9200000000000010E-002    -5.1412400353001431E-005
  0.10030000000000000         -4.9324062274536118E-005
  0.10139999999999999         -4.7234341764124110E-005
  0.10249999999999998         -4.5146545744501054E-005
  0.10360000000000003         -4.3063304474344477E-005
  0.10470000000000002         -4.0986873500514776E-005
  0.10580000000000001         -3.8919857615837827E-005
  0.10690000000000000         -3.6865454603685066E-005
  0.10799999999999998         -3.4826894989237189E-005
  0.10910000000000003         -3.2806641684146598E-005
  0.11020000000000002         -3.0806368158664554E-005
  0.11130000000000001         -2.8827513233409263E-005
  0.11240000000000000         -2.6872065063798800E-005
  0.11349999999999999         -2.4942874006228521E-005
  0.11460000000000004         -2.3043043256620876E-005
  0.11570000000000003         -2.1175195797695778E-005
  0.11680000000000001         -1.9341072402312420E-005
  0.11790000000000000         -1.7541895431349985E-005
  0.11899999999999999         -1.5778894521645270E-005
  0.12009999999999998         -1.4053583072382025E-005
  0.12120000000000003         -1.2367674571578391E-005
  0.12230000000000002         -1.0722573279053904E-005
  0.12340000000000001         -9.1192014224361628E-006
  0.12450000000000000         -7.5584216574497987E-006
  0.12559999999999999         -6.0411011872929521E-006
  0.12670000000000003         -4.5680380935664289E-006
  0.12780000000000002         -3.1401393698615720E-006
  0.12890000000000001         -1.7585264231456676E-006
  0.13000000000000000         -4.2430809799043345E-007
  0.13109999999999999          8.6154591372178402E-007
  0.13219999999999998          2.0984095954190707E-006
  0.13330000000000003          3.2864309105207212E-006
  0.13440000000000002          4.4261578295845538E-006
  0.13550000000000001          5.5181521929625887E-006
  0.13660000000000000          6.5626372816041112E-006
  0.13769999999999999          7.5593957262753975E-006
  0.13880000000000003          8.5082019722904079E-006
  0.13990000000000002          9.4093120424076915E-006
  0.14100000000000001          1.0263588592351880E-005
  0.14210000000000000          1.1072139386669733E-005
  0.14319999999999999          1.1835616533062421E-005
  0.14429999999999998          1.2553820852190256E-005
  0.14540000000000003          1.3226296687207650E-005
  0.14650000000000002          1.3853176824341062E-005
  0.14760000000000001          1.4435645425692201E-005
  0.14870000000000000          1.4975601516198367E-005
  0.14979999999999999          1.5474828614969738E-005
  0.15090000000000003          1.5934398106765002E-005
  0.15200000000000002          1.6354932085960172E-005
  0.15310000000000001          1.6737263649702072E-005
  0.15420000000000000          1.7082797057810239E-005
  0.15529999999999999          1.7393367670592852E-005
  0.15639999999999998          1.7670146917225793E-005
  0.15750000000000003          1.7913456758833490E-005
  0.15860000000000002          1.8123226254829206E-005
  0.15970000000000001          1.8299633666174486E-005
  0.16080000000000000          1.8443775843479671E-005
  0.16189999999999999          1.8557642761152238E-005
  0.16300000000000003          1.8643549992702901E-005
  0.16410000000000002          1.8703432942857035E-005
  0.16520000000000001          1.8738777725957334E-005
  0.16630000000000000          1.8750886738416739E-005
  0.16739999999999999          1.8741106032393873E-005
  0.16850000000000004          1.8710405129240826E-005
  0.16960000000000003          1.8659371562534943E-005
  0.17070000000000002          1.8588392777019180E-005
  0.17180000000000001          1.8497916244086809E-005
  0.17290000000000000          1.8388938769930974E-005
  0.17399999999999999          1.8262891899212264E-005
  0.17510000000000003          1.8121407265425660E-005
  0.17620000000000002          1.7965990991797298E-005
  0.17730000000000001          1.7797945474740118E-005
  0.17840000000000000          1.7618414858588949E-005
  0.17949999999999999          1.7428519640816376E-005
  0.18060000000000004          1.7229400327778421E-005
  0.18170000000000003          1.7021897292579524E-005
  0.18280000000000002          1.6806436178740114E-005
  0.18390000000000001          1.6583180695306510E-005
  0.18500000000000000          1.6352423699572682E-005
  0.18609999999999999          1.6114850950543769E-005
  0.18720000000000003          1.5871522919042036E-005
  0.18830000000000002          1.5623492799932137E-005
  0.18940000000000001          1.5371446352219209E-005
  0.19050000000000000          1.5115970199985895E-005
  0.19159999999999999          1.4857667338219471E-005
  0.19270000000000004          1.4597388144466095E-005
  0.19380000000000003          1.4336340427689720E-005
  0.19490000000000002          1.4075618310016580E-005
  0.19600000000000001          1.3815791135129984E-005
  0.19710000000000000          1.3556982594309375E-005
  0.19819999999999999          1.3299198144522961E-005
  0.19930000000000003          1.3042327736911830E-005
  0.20040000000000002          1.2786133993358817E-005
  0.20150000000000001          1.2530384083220270E-005
  0.20260000000000000          1.2275148037588224E-005
  0.20369999999999999          1.2020929716527462E-005
  0.20480000000000004          1.1768715921789408E-005
  0.20590000000000003          1.1519694453454576E-005
  0.20700000000000002          1.1274627468083054E-005
  0.20810000000000001          1.1033757800760213E-005
  0.20920000000000000          1.0796881724672858E-005
  0.21029999999999999          1.0563832802290563E-005
  0.21140000000000003          1.0334832040825859E-005
  0.21250000000000002          1.0110185030498542E-005
  0.21360000000000001          9.8899563454324380E-006
  0.21470000000000000          9.6737749117892236E-006
  0.21579999999999999          9.4611459644511342E-006
  0.21690000000000004          9.2518248493433930E-006
  0.21800000000000003          9.0459416242083535E-006
  0.21910000000000002          8.8439628598280251E-006
  0.22020000000000001          8.6464333435287699E-006
  0.22130000000000000          8.4535968198906630E-006
  0.22239999999999999          8.2653941717580892E-006
  0.22350000000000003          8.0816516856430098E-006
  0.22460000000000002          7.9023848229553550E-006
  0.22570000000000001          7.7277454693103209E-006
  0.22680000000000000          7.5577322604658548E-006
  0.22789999999999999          7.3919618444051594E-006
  0.22900000000000004          7.2298762461286969E-006
  0.23010000000000003          7.0710907493776176E-006
  0.23120000000000002          6.9154748416622169E-006
  0.23230000000000001          6.7632986429089215E-006
  0.23340000000000000          6.6150414568255655E-006
  0.23450000000000004          6.4712276071077213E-006
  0.23560000000000003          6.3323373069579247E-006
  0.23670000000000002          6.1984237618162297E-006
  0.23780000000000001          6.0690708778565750E-006
  0.23890000000000000          5.9436010815261398E-006
  0.23999999999999999          5.8212212934449781E-006
  0.24110000000000004          5.7013940022443421E-006
  0.24220000000000003          5.5840851018729154E-006
  0.24330000000000002          5.4696624829375651E-006
  0.24440000000000001          5.3584080887958407E-006
  0.24550000000000000          5.2502937251119874E-006
  0.24660000000000004          5.1451784202072304E-006
  0.24770000000000003          5.0430949158908334E-006
  0.24880000000000002          4.9443633542978205E-006
  0.24990000000000001          4.8493125177628826E-006
  0.25100000000000000          4.7577946133969817E-006
  0.25209999999999999          4.6691625357198063E-006
  0.25320000000000004          4.5826159293937963E-006
  0.25430000000000003          4.4976009121455718E-006
  0.25540000000000002          4.4143839659227524E-006
  0.25650000000000001          4.3339259718777612E-006
  0.25760000000000000          4.2569768083922099E-006
  0.25870000000000004          4.1833382056211121E-006
  0.25980000000000003          4.1120842979580630E-006
  0.26090000000000002          4.0423010432277806E-006
  0.26200000000000001          3.9737187762511894E-006
  0.26310000000000000          3.9069573176675476E-006
  0.26419999999999999          3.8430875974881928E-006
  0.26530000000000004          3.7826625884918030E-006
  0.26640000000000003          3.7252943911880720E-006
  0.26750000000000002          3.6700434975500684E-006
  0.26860000000000001          3.6160367926640902E-006
  0.26970000000000000          3.5631501305033453E-006
  0.27080000000000004          3.5118991945637390E-006
  0.27190000000000003          3.4626459637365770E-006
  0.27300000000000002          3.4153124488511821E-006
  0.27410000000000001          3.3695641832309775E-006
  0.27520000000000000          3.3251865261263447E-006
  0.27629999999999999          3.2823952551552793E-006
  0.27740000000000004          3.2417112834082218E-006
  0.27850000000000003          3.2037639812187990E-006
  0.27960000000000002          3.1688748549640877E-006
  0.28070000000000001          3.1367706014862051E-006
  0.28179999999999999          3.1068823318491923E-006
  0.28290000000000004          3.0785602120886324E-006
  0.28400000000000003          3.0515152502630372E-006
  0.28510000000000002          3.0257963317126269E-006
  0.28620000000000001          3.0014311960258055E-006
  0.28730000000000000          2.9786726827296661E-006
  0.28840000000000005          2.9577481654996518E-006
  0.28950000000000004          2.9387058475549566E-006
  0.29060000000000002          2.9215707399998792E-006
  0.29170000000000001          2.9063335205137264E-006
  0.29280000000000000          2.8931610813742736E-006
  0.29389999999999999          2.8823537832067814E-006
  0.29500000000000004          2.8741662845277460E-006
  0.29610000000000003          2.8687004487437662E-006
  0.29720000000000002          2.8655331334448420E-006
  0.29830000000000001          2.8640404252655571E-006
  0.29940000000000000          2.8639208267122740E-006
  0.30050000000000004          2.8653630579356104E-006
  0.30160000000000003          2.8689989903796231E-006
  0.30270000000000002          2.8754286631738069E-006
  0.30380000000000001          2.8848098736489192E-006
  0.30490000000000000          2.8968299830012256E-006
  0.30599999999999999          2.9109844490449177E-006
  0.30709999999999998          2.9270643153722631E-006
  0.30819999999999997          2.9454065497702686E-006
  0.30930000000000007          2.9665570764336735E-006
  0.31040000000000006          2.9907412226748420E-006
  0.31150000000000005          3.0177402550179977E-006
  0.31260000000000004          3.0471642276097555E-006
  0.31370000000000003          3.0787921332375845E-006
  0.31480000000000002          3.1126214707910549E-006
  0.31590000000000001          3.1488596050621709E-006
  0.31700000000000000          3.1878007575869560E-006
  0.31809999999999999          3.2294269658450503E-006
  0.31919999999999998          3.2734878914197907E-006
  0.32029999999999997          3.3198668916156748E-006
  0.32140000000000007          3.3688136227283394E-006
  0.32250000000000006          3.4211195725220023E-006
  0.32360000000000005          3.4774589039443526E-006
  0.32470000000000004          3.5379175642447080E-006
  0.32580000000000003          3.6020205698150676E-006
  0.32690000000000002          3.6688334148493595E-006
  0.32800000000000001          3.7377492390078260E-006
  0.32910000000000000          3.8086645872681402E-006
  0.33019999999999999          3.8819148358015809E-006
  0.33129999999999998          3.9580136217409745E-006
  0.33239999999999997          4.0373033698415384E-006
  0.33350000000000007          4.1199323277396616E-006
  0.33460000000000006          4.2058923099830281E-006
  0.33570000000000005          4.2952374315063935E-006
  0.33680000000000004          4.3880218072445132E-006
  0.33790000000000003          4.4842245188192464E-006
  0.33900000000000002          4.5836782192054670E-006
  0.34010000000000001          4.6860491238476243E-006
  0.34120000000000000          4.7909552449709736E-006
  0.34229999999999999          4.8981105464918073E-006
  0.34339999999999998          5.0073444981535431E-006
  0.34449999999999997          5.1185961638111621E-006
  0.34560000000000007          5.2321893235784955E-006
  0.34670000000000006          5.3488415687752422E-006
  0.34780000000000005          5.4692732192052063E-006
  0.34890000000000004          5.5938717196113430E-006
