 -0.20000000000000001          0.0000000000000000
 -0.19890000000000002          0.0000000000000000
 -0.19780000000000000          0.0000000000000000
 -0.19670000000000001          3.9519073777305458E-012
 -0.19560000000000002          1.5153499982600849E-011
 -0.19450000000000001          2.2114502937209402E-011
 -0.19340000000000002         -1.2488895551401868E-012
 -0.19230000000000000         -6.0509278143605627E-011
 -0.19120000000000001         -9.8649984014986813E-011
 -0.19010000000000002         -1.9594301875480724E-011
 -0.18900000000000000          1.9005695628404595E-010
 -0.18790000000000001          3.4201147469659077E-010
 -0.18680000000000002          1.2718889830232172E-010
 -0.18570000000000000         -5.2973875286355110E-010
 -0.18460000000000001         -1.1158343138362170E-009
 -0.18350000000000000         -6.9837935434691190E-010
 -0.18240000000000001          1.1509844188850593E-009
 -0.18130000000000002          3.3016029910015732E-009
 -0.18020000000000000          3.1927478438831258E-009
 -0.17910000000000001         -1.0729698241007668E-009
 -0.17800000000000002         -7.8297368588664540E-009
 -0.17690000000000000         -1.1133084676373528E-008
 -0.17580000000000001         -4.5899182232744806E-009
 -0.17470000000000002          1.1760608487065838E-008
 -0.17360000000000000          2.7406510838545728E-008
 -0.17250000000000001          2.6200861924507990E-008
 -0.17140000000000000         -3.4562289141781832E-010
 -0.17030000000000001         -4.0870563822181794E-008
 -0.16920000000000002         -6.5785556557784730E-008
 -0.16810000000000000         -4.6863988245604560E-008
 -0.16700000000000001          1.7020834519598793E-008
 -0.16589999999999999          8.9676376546776737E-008
 -0.16480000000000000          1.1676398514737230E-007
 -0.16370000000000001          6.5413189531682292E-008
 -0.16260000000000002         -4.4720707137457794E-008
 -0.16150000000000000         -1.4624829702825082E-007
 -0.16040000000000001         -1.6637696376164968E-007
 -0.15930000000000000         -7.8309852824531845E-008
 -0.15820000000000001          7.6020427286493941E-008
 -0.15710000000000002          2.0919068788316508E-007
 -0.15600000000000000          2.4126407538460626E-007
 -0.15490000000000001          1.4683594429243385E-007
 -0.15379999999999999         -3.1545223322382299E-008
 -0.15270000000000000         -2.0691889801582874E-007
 -0.15160000000000001         -2.9271333801261790E-007
 -0.15050000000000002         -2.4935562237260456E-007
 -0.14940000000000001         -1.1645388298120452E-007
 -0.14830000000000002         -1.3768826079285645E-008
 -0.14720000000000000         -9.4946408069063182E-008
 -0.14610000000000001         -4.5650608626601752E-007
 -0.14500000000000002         -1.0429389476485085E-006
 -0.14390000000000000         -1.6180139255084214E-006
 -0.14280000000000001         -1.8524400502428762E-006
 -0.14169999999999999         -1.5027031849967898E-006
 -0.14060000000000000         -5.7564756161809782E-007
 -0.13950000000000001          6.3850359310890781E-007
 -0.13840000000000002          1.6990891253954032E-006
 -0.13730000000000001          2.2284702936303802E-006
 -0.13619999999999999          2.0645247786887921E-006
 -0.13510000000000000          1.2700108982244274E-006
 -0.13400000000000001          3.8501397625623213E-008
 -0.13290000000000002         -1.3922506241215160E-006
 -0.13180000000000000         -2.7534824766917154E-006
 -0.13070000000000001         -3.7286736187525094E-006
 -0.12959999999999999         -4.0046152207651176E-006
 -0.12850000000000000         -3.4202171264041681E-006
 -0.12740000000000001         -2.1162106804695213E-006
 -0.12630000000000002         -5.3944654609949794E-007
 -0.12520000000000001          7.4742553124451661E-007
 -0.12410000000000000          1.3352007499634055E-006
 -0.12300000000000001          1.1267777608736651E-006
 -0.12190000000000001          2.9139556545487721E-007
 -0.12080000000000000         -9.0280258291386417E-007
 -0.11970000000000000         -2.2112824353825999E-006
 -0.11860000000000001         -3.4132510791096138E-006
 -0.11750000000000001         -4.2730084715003613E-006
 -0.11640000000000000         -4.5968640733917709E-006
 -0.11530000000000000         -4.3939289753325284E-006
 -0.11420000000000001         -3.9789765651221387E-006
 -0.11310000000000001         -3.8444450183305889E-006
 -0.11200000000000000         -4.3273344090266619E-006
 -0.11090000000000001         -5.3259418564266525E-006
 -0.10980000000000001         -6.3354618760058656E-006
 -0.10870000000000000         -6.8173221734468825E-006
 -0.10760000000000000         -6.6140046328655444E-006
 -0.10650000000000001         -6.0630504776781891E-006
 -0.10540000000000001         -5.7243664741690736E-006
 -0.10430000000000000         -5.9758408497145865E-006
 -0.10320000000000000         -6.8284084591141436E-006
 -0.10210000000000001         -8.0727595559437759E-006
 -0.10100000000000001         -9.5437926574959420E-006
  -9.9900000000000003E-002    -1.1204361726413481E-005
  -9.8799999999999999E-002    -1.2989516108063981E-005
  -9.7700000000000009E-002    -1.4648971045971848E-005
  -9.6600000000000005E-002    -1.5849045666982420E-005
  -9.5500000000000002E-002    -1.6500425772392191E-005
  -9.4400000000000012E-002    -1.6975420294329524E-005
  -9.3300000000000008E-002    -1.7918224330060184E-005
  -9.2200000000000004E-002    -1.9738439732464030E-005
  -9.1100000000000000E-002    -2.2233762138057500E-005
  -9.0000000000000011E-002    -2.4729291908442974E-005
  -8.8900000000000007E-002    -2.6651216103346087E-005
  -8.7800000000000003E-002    -2.8023967388435267E-005
  -8.6699999999999999E-002    -2.9423730666167103E-005
  -8.5600000000000009E-002    -3.1429874070454389E-005
  -8.4500000000000006E-002    -3.4101849450962618E-005
  -8.3400000000000002E-002    -3.6987516068620607E-005
  -8.2299999999999998E-002    -3.9645517972530797E-005
  -8.1200000000000008E-002    -4.2151168599957600E-005
  -8.0100000000000005E-002    -4.5067732571624219E-005
  -7.9000000000000001E-002    -4.8902009439188987E-005
  -7.7899999999999997E-002    -5.3587406000588089E-005
  -7.6800000000000007E-002    -5.8521407481748611E-005
  -7.5700000000000003E-002    -6.3131003116723150E-005
  -7.4600000000000000E-002    -6.7409346229396760E-005
  -7.3500000000000010E-002    -7.1888593083713204E-005
  -7.2399999999999992E-002    -7.7075193985365331E-005
  -7.1300000000000002E-002    -8.2917715189978480E-005
  -7.0200000000000012E-002    -8.8840431999415159E-005
  -6.9099999999999995E-002    -9.4314520538318902E-005
  -6.8000000000000005E-002    -9.9400087492540479E-005
  -6.6900000000000015E-002    -1.0473216389073059E-004
  -6.5799999999999997E-002    -1.1098381219198927E-004
  -6.4700000000000008E-002    -1.1834078759420663E-004
  -6.3599999999999990E-002    -1.2648839037865400E-004
  -6.2500000000000000E-002    -1.3505350216291845E-004
  -6.1400000000000010E-002    -1.4400614600162953E-004
  -6.0299999999999992E-002    -1.5359341341536492E-004
  -5.9200000000000003E-002    -1.6391479584854096E-004
  -5.8100000000000013E-002    -1.7464230768382549E-004
  -5.6999999999999995E-002    -1.8523502512834966E-004
  -5.5900000000000005E-002    -1.9546583644114435E-004
  -5.4800000000000015E-002    -2.0571841741912067E-004
  -5.3699999999999998E-002    -2.1672515140380710E-004
  -5.2600000000000008E-002    -2.2898089082445949E-004
  -5.1499999999999990E-002    -2.4239016056526452E-004
  -5.0400000000000000E-002    -2.5646656285971403E-004
  -4.9300000000000010E-002    -2.7084114844910800E-004
  -4.8199999999999993E-002    -2.8553995070978999E-004
  -4.7100000000000003E-002    -3.0078997951932251E-004
  -4.6000000000000013E-002    -3.1661207322031260E-004
  -4.4899999999999995E-002    -3.3269776031374931E-004
  -4.3800000000000006E-002    -3.4874118864536285E-004
  -4.2699999999999988E-002    -3.6487102624960244E-004
  -4.1599999999999998E-002    -3.8168908213265240E-004
  -4.0500000000000008E-002    -3.9981145528145134E-004
  -3.9399999999999991E-002    -4.1935729677788913E-004
  -3.8300000000000001E-002    -4.3988003744743764E-004
  -3.7200000000000011E-002    -4.6082574408501387E-004
  -3.6099999999999993E-002    -4.8203783808276057E-004
  -3.5000000000000003E-002    -5.0381344044581056E-004
  -3.3900000000000013E-002    -5.2644335664808750E-004
  -3.2799999999999996E-002    -5.4975930834189057E-004
  -3.1700000000000006E-002    -5.7316140737384558E-004
  -3.0599999999999988E-002    -5.9616303769871593E-004
  -2.9499999999999998E-002    -6.1886897310614586E-004
  -2.8400000000000009E-002    -6.4191722776740789E-004
  -2.7299999999999991E-002    -6.6594727104529738E-004
  -2.6200000000000001E-002    -6.9107289891690016E-004
  -2.5100000000000011E-002    -7.1692123310640454E-004
  -2.3999999999999994E-002    -7.4307853356003761E-004
  -2.2900000000000004E-002    -7.6948705827817321E-004
  -2.1800000000000014E-002    -7.9636886948719621E-004
  -2.0699999999999996E-002    -8.2380051026120782E-004
  -1.9600000000000006E-002    -8.5143517935648561E-004
  -1.8499999999999989E-002    -8.7871489813551307E-004
  -1.7399999999999999E-002    -9.0537453070282936E-004
  -1.6300000000000009E-002    -9.3171501066535711E-004
  -1.5199999999999991E-002    -9.5832097576931119E-004
  -1.4100000000000001E-002    -9.8551833070814610E-004
  -1.3000000000000012E-002    -1.0131219169124961E-003
  -1.1899999999999994E-002    -1.0406420333310962E-003
  -1.0800000000000004E-002    -1.0677556274458766E-003
  -9.6999999999999864E-003    -1.0944938985630870E-003
  -8.5999999999999965E-003    -1.1209744261577725E-003
  -7.5000000000000067E-003    -1.1470731114968657E-003
  -6.3999999999999890E-003    -1.1723482748493552E-003
  -5.2999999999999992E-003    -1.1964774457737803E-003
  -4.2000000000000093E-003    -1.2195907765999436E-003
  -3.0999999999999917E-003    -1.2421935098245740E-003
  -2.0000000000000018E-003    -1.2646561954170465E-003
  -9.0000000000001190E-004    -1.2868304038420320E-003
   2.0000000000000573E-004    -1.3080548960715532E-003
   1.2999999999999956E-003    -1.3277889229357243E-003
   2.4000000000000132E-003    -1.3460805639624596E-003
   3.5000000000000031E-003    -1.3633711496368051E-003
   4.5999999999999930E-003    -1.3800211017951369E-003
   5.7000000000000106E-003    -1.3957241317257285E-003
   6.8000000000000005E-003    -1.4098612591624260E-003
   7.8999999999999904E-003    -1.4219537843018770E-003
   9.0000000000000080E-003    -1.4322063652798533E-003
   1.0099999999999998E-002    -1.4411705778911710E-003
   1.1199999999999988E-002    -1.4491243055090308E-003
   1.2300000000000005E-002    -1.4556028181686997E-003
   1.3399999999999995E-002    -1.4597505796700716E-003
   1.4500000000000013E-002    -1.4610732905566692E-003
   1.5600000000000003E-002    -1.4598591951653361E-003
   1.6699999999999993E-002    -1.4569041086360812E-003
   1.7800000000000010E-002    -1.4528324827551842E-003
   1.8900000000000000E-002    -1.4474240597337484E-003
   1.9999999999999990E-002    -1.4399626525118947E-003
   2.1100000000000008E-002    -1.4298619935289025E-003
   2.2199999999999998E-002    -1.4170167269185185E-003
   2.3300000000000015E-002    -1.4019854133948684E-003
   2.4400000000000005E-002    -1.3851416297256947E-003
   2.5499999999999995E-002    -1.3663064455613494E-003
   2.6600000000000013E-002    -1.3449928956106305E-003
   2.7700000000000002E-002    -1.3208111049607396E-003
   2.8799999999999992E-002    -1.2939317384734750E-003
   2.9900000000000010E-002    -1.2647619005292654E-003
   3.1000000000000000E-002    -1.2337223161011934E-003
   3.2099999999999990E-002    -1.2008097255602479E-003
   3.3200000000000007E-002    -1.1657743016257882E-003
   3.4299999999999997E-002    -1.1282789055258036E-003
   3.5400000000000015E-002    -1.0883159702643752E-003
   3.6500000000000005E-002    -1.0459576733410358E-003
   3.7599999999999995E-002    -1.0012767743319273E-003
   3.8700000000000012E-002    -9.5428497297689319E-004
   3.9800000000000002E-002    -9.0508227003738284E-004
   4.0899999999999992E-002    -8.5384992416948080E-004
   4.2000000000000010E-002    -8.0084719229489565E-004
   4.3099999999999999E-002    -7.4612163007259369E-004
   4.4200000000000017E-002    -6.8965821992605925E-004
   4.5300000000000007E-002    -6.3141726423054934E-004
   4.6399999999999997E-002    -5.7162548182532191E-004
   4.7500000000000014E-002    -5.1085295854136348E-004
   4.8600000000000004E-002    -4.4923156383447349E-004
   4.9699999999999994E-002    -3.8645759923383594E-004
   5.0800000000000012E-002    -3.2211421057581902E-004
   5.1900000000000002E-002    -2.5564528186805546E-004
   5.2999999999999992E-002    -1.8744786211755127E-004
   5.4099999999999981E-002    -1.1853464820887893E-004
   5.5200000000000027E-002    -4.9379465053789318E-005
   5.6300000000000017E-002     1.9836914361803792E-005
   5.7400000000000007E-002     8.9507848315406591E-005
   5.8499999999999996E-002     1.6011626576073468E-004
   5.9599999999999986E-002     2.3119793331716210E-004
   6.0700000000000032E-002     3.0221123597584665E-004
   6.1800000000000022E-002     3.7251863977871835E-004
   6.2900000000000011E-002     4.4206966413185000E-004
   6.4000000000000001E-002     5.1146582700312138E-004
   6.5099999999999991E-002     5.8106845244765282E-004
   6.6199999999999981E-002     6.5072398865595460E-004
   6.7300000000000026E-002     7.1952294092625380E-004
   6.8400000000000016E-002     7.8694341937080026E-004
   6.9500000000000006E-002     8.5280090570449829E-004
   7.0599999999999996E-002     9.1755361063405871E-004
   7.1699999999999986E-002     9.8154658917337656E-004
   7.2800000000000031E-002     1.0445661609992385E-003
   7.3900000000000021E-002     1.1060064425691962E-003
   7.5000000000000011E-002     1.1655250564217567E-003
   7.6100000000000001E-002     1.2227105908095837E-003
   7.7199999999999991E-002     1.2782282428815961E-003
   7.8299999999999981E-002     1.3320472789928317E-003
   7.9400000000000026E-002     1.3841144973412156E-003
   8.0500000000000016E-002     1.4341257046908140E-003
   8.1600000000000006E-002     1.4817761257290840E-003
   8.2699999999999996E-002     1.5270437579602003E-003
   8.3799999999999986E-002     1.5705075347796082E-003
   8.4900000000000031E-002     1.6116559272632003E-003
   8.6000000000000021E-002     1.6503216465935111E-003
   8.7100000000000011E-002     1.6857738373801112E-003
   8.8200000000000001E-002     1.7180575523525476E-003
   8.9299999999999990E-002     1.7474506748840213E-003
   9.0399999999999980E-002     1.7746278317645192E-003
   9.1500000000000026E-002     1.7993112560361624E-003
   9.2600000000000016E-002     1.8210759153589606E-003
   9.3700000000000006E-002     1.8397624371573329E-003
   9.4799999999999995E-002     1.8555740825831890E-003
   9.5899999999999985E-002     1.8692180747166276E-003
   9.7000000000000031E-002     1.8810707842931151E-003
   9.8100000000000021E-002     1.8906807526946068E-003
   9.9200000000000010E-002     1.8971280660480261E-003
  0.10030000000000000          1.8998815212398767E-003
  0.10139999999999999          1.8992649856954813E-003
  0.10249999999999998          1.8959917360916734E-003
  0.10360000000000003          1.8904830794781446E-003
  0.10470000000000002          1.8831178313121200E-003
  0.10580000000000001          1.8732508178800344E-003
  0.10690000000000000          1.8609792459756136E-003
  0.10799999999999998          1.8460510764271021E-003
  0.10910000000000003          1.8289735307916999E-003
  0.11020000000000002          1.8100666347891092E-003
  0.11130000000000001          1.7892937175929546E-003
  0.11240000000000000          1.7663532635197043E-003
  0.11349999999999999          1.7407463165000081E-003
  0.11460000000000004          1.7128825420513749E-003
  0.11570000000000003          1.6832419205456972E-003
  0.11680000000000001          1.6520015196874738E-003
  0.11790000000000000          1.6196087235584855E-003
  0.11899999999999999          1.5859256964176893E-003
  0.12009999999999998          1.5506838681176305E-003
  0.12120000000000003          1.5140923205763102E-003
  0.12230000000000002          1.4767913380637765E-003
  0.12340000000000001          1.4385355170816183E-003
  0.12450000000000000          1.3993858592584729E-003
  0.12559999999999999          1.3591313036158681E-003
  0.12670000000000003          1.3178313383832574E-003
  0.12780000000000002          1.2759759556502104E-003
  0.12890000000000001          1.2334831990301609E-003
  0.13000000000000000          1.1906183790415525E-003
  0.13109999999999999          1.1475018691271544E-003
  0.13219999999999998          1.1040029348805547E-003
  0.13330000000000003          1.0601663962006569E-003
  0.13440000000000002          1.0162602411583066E-003
  0.13550000000000001          9.7210868261754513E-004
  0.13660000000000000          9.2795328237116337E-004
  0.13769999999999999          8.8372739264741540E-004
  0.13880000000000003          8.3975528832525015E-004
  0.13990000000000002          7.9639960313215852E-004
  0.14100000000000001          7.5419328641146421E-004
  0.14210000000000000          7.1289285551756620E-004
  0.14319999999999999          6.7218305775895715E-004
  0.14429999999999998          6.3172657974064350E-004
  0.14540000000000003          5.9139518998563290E-004
  0.14650000000000002          5.5142940254881978E-004
  0.14760000000000001          5.1219889428466558E-004
  0.14870000000000000          4.7379551688209176E-004
  0.14979999999999999          4.3609266867861152E-004
  0.15090000000000003          3.9913563523441553E-004
  0.15200000000000002          3.6336824996396899E-004
  0.15310000000000001          3.2930966699495912E-004
  0.15420000000000000          2.9719099984504282E-004
  0.15529999999999999          2.6643503224477172E-004
  0.15639999999999998          2.3630552459508181E-004
  0.15750000000000003          2.0606079488061368E-004
  0.15860000000000002          1.7560948617756367E-004
  0.15970000000000001          1.4586935867555439E-004
  0.16080000000000000          1.1770187120418996E-004
  0.16189999999999999          9.1065012384206057E-005
  0.16300000000000003          6.5852873376570642E-005
  0.16410000000000002          4.1957187931984663E-005
  0.16520000000000001          1.9445764337433502E-005
  0.16630000000000000         -1.4151954701446812E-006
  0.16739999999999999         -2.0537279851851054E-005
  0.16850000000000004         -3.8006219256203622E-005
  0.16960000000000003         -5.4727133829146624E-005
  0.17070000000000002         -7.1359034336637706E-005
  0.17180000000000001         -8.8109300122596323E-005
  0.17290000000000000         -1.0445455700391904E-004
  0.17399999999999999         -1.2016724213026464E-004
  0.17510000000000003         -1.3470272824633867E-004
  0.17620000000000002         -1.4785763050895184E-004
  0.17730000000000001         -1.5964377962518483E-004
  0.17840000000000000         -1.6977927589323372E-004
  0.17949999999999999         -1.7851387383416295E-004
  0.18060000000000004         -1.8595499568618834E-004
  0.18170000000000003         -1.9278544641565531E-004
  0.18280000000000002         -1.9952989532612264E-004
  0.18390000000000001         -2.0614212553482503E-004
  0.18500000000000000         -2.1267481497488916E-004
  0.18609999999999999         -2.1872192155569792E-004
  0.18720000000000003         -2.2406571952160448E-004
  0.18830000000000002         -2.2853235714137554E-004
  0.18940000000000001         -2.3193052038550377E-004
  0.19050000000000000         -2.3410911671817303E-004
  0.19159999999999999         -2.3523635172750801E-004
  0.19270000000000004         -2.3584337031934410E-004
  0.19380000000000003         -2.3585386225022376E-004
  0.19490000000000002         -2.3582889116369188E-004
  0.19600000000000001         -2.3560631962027401E-004
  0.19710000000000000         -2.3541686823591590E-004
  0.19819999999999999         -2.3502549447584897E-004
  0.19930000000000003         -2.3462444369215518E-004
  0.20040000000000002         -2.3406093532685190E-004
  0.20150000000000001         -2.3321552725974470E-004
  0.20260000000000000         -2.3195390531327575E-004
  0.20369999999999999         -2.3014888574834913E-004
  0.20480000000000004         -2.2756820544600487E-004
  0.20590000000000003         -2.2448178788181394E-004
  0.20700000000000002         -2.2109453857410699E-004
  0.20810000000000001         -2.1762476535513997E-004
  0.20920000000000000         -2.1416634263005108E-004
  0.21029999999999999         -2.1066490444354713E-004
  0.21140000000000003         -2.0693488477263600E-004
  0.21250000000000002         -2.0316899463068694E-004
  0.21360000000000001         -1.9970102584920824E-004
  0.21470000000000000         -1.9648850138764828E-004
  0.21579999999999999         -1.9338526180945337E-004
  0.21690000000000004         -1.9039184553548694E-004
  0.21800000000000003         -1.8707047274801880E-004
  0.21910000000000002         -1.8337593064643443E-004
  0.22020000000000001         -1.7910421593114734E-004
  0.22130000000000000         -1.7445767298340797E-004
  0.22239999999999999         -1.6965428949333727E-004
  0.22350000000000003         -1.6519568453077227E-004
  0.22460000000000002         -1.6131352458614856E-004
  0.22570000000000001         -1.5832392091397196E-004
  0.22680000000000000         -1.5561726468149573E-004
  0.22789999999999999         -1.5280199295375496E-004
  0.22900000000000004         -1.4970352640375495E-004
  0.23010000000000003         -1.4629562792833894E-004
  0.23120000000000002         -1.4283510972745717E-004
  0.23230000000000001         -1.3940251665189862E-004
  0.23340000000000000         -1.3586951536126435E-004
  0.23450000000000004         -1.3205918367020786E-004
  0.23560000000000003         -1.2797935050912201E-004
  0.23670000000000002         -1.2388140021357685E-004
  0.23780000000000001         -1.2033017992507666E-004
  0.23890000000000000         -1.1768701369874179E-004
  0.23999999999999999         -1.1572123185032979E-004
  0.24110000000000004         -1.1396571062505245E-004
  0.24220000000000003         -1.1201296729268506E-004
  0.24330000000000002         -1.0987083078362048E-004
  0.24440000000000001         -1.0765550541691482E-004
  0.24550000000000000         -1.0547877172939479E-004
  0.24660000000000004         -1.0329566430300474E-004
  0.24770000000000003         -1.0067567200167105E-004
  0.24880000000000002         -9.7962314612232149E-005
  0.24990000000000001         -9.5415787654928863E-005
  0.25100000000000000         -9.3581882538273931E-005
  0.25209999999999999         -9.2236186901573092E-005
  0.25320000000000004         -9.1188368969596922E-005
  0.25430000000000003         -9.0083885879721493E-005
  0.25540000000000002         -8.8737971964292228E-005
  0.25650000000000001         -8.7302090832963586E-005
  0.25760000000000000         -8.5895218944642693E-005
  0.25870000000000004         -8.4418774349614978E-005
  0.25980000000000003         -8.3053237176500261E-005
  0.26090000000000002         -8.1870355643332005E-005
  0.26200000000000001         -8.0838850408326834E-005
  0.26310000000000000         -8.0118814366869628E-005
  0.26419999999999999         -7.9842517152428627E-005
  0.26530000000000004         -7.9327262938022614E-005
  0.26640000000000003         -7.8678320278413594E-005
  0.26750000000000002         -7.7969176345504820E-005
  0.26860000000000001         -7.7474127465393394E-005
  0.26970000000000000         -7.7527416578959674E-005
  0.27080000000000004         -7.8295517596416175E-005
  0.27190000000000003         -7.9259494668804109E-005
  0.27300000000000002         -8.0197089118883014E-005
  0.27410000000000001         -8.0820522271096706E-005
  0.27520000000000000         -8.1234931712970138E-005
  0.27629999999999999         -8.1486847193446010E-005
  0.27740000000000004         -8.1431455328129232E-005
  0.27850000000000003         -8.0929938121698797E-005
  0.27960000000000002         -8.0058838648255914E-005
  0.28070000000000001         -7.9199809988494962E-005
  0.28179999999999999         -7.9105207987595350E-005
  0.28290000000000004         -8.0222969700116664E-005
  0.28400000000000003         -8.2117461715824902E-005
  0.28510000000000002         -8.4013816376682371E-005
  0.28620000000000001         -8.5605432104784995E-005
  0.28730000000000000         -8.7227235781028867E-005
  0.28840000000000005         -8.8993292592931539E-005
  0.28950000000000004         -9.1117588453926146E-005
  0.29060000000000002         -9.2893118562642485E-005
  0.29170000000000001         -9.3922346422914416E-005
  0.29280000000000000         -9.4226707005873322E-005
  0.29389999999999999         -9.4439870736096054E-005
  0.29500000000000004         -9.5305549621116370E-005
  0.29610000000000003         -9.7088595794048160E-005
  0.29720000000000002         -9.9058430350851268E-005
  0.29830000000000001         -1.0096999176312238E-004
  0.29940000000000000         -1.0241899144602939E-004
  0.30050000000000004         -1.0405979992356151E-004
  0.30160000000000003         -1.0626277071423829E-004
  0.30270000000000002         -1.0878116881940514E-004
  0.30380000000000001         -1.1112407810287550E-004
  0.30490000000000000         -1.1243717744946480E-004
  0.30599999999999999         -1.1267786612734199E-004
  0.30709999999999998         -1.1287713277852163E-004
  0.30819999999999997         -1.1383320088498294E-004
  0.30930000000000007         -1.1591533257160336E-004
  0.31040000000000006         -1.1855748743982986E-004
  0.31150000000000005         -1.2103885092074051E-004
  0.31260000000000004         -1.2301249080337584E-004
  0.31370000000000003         -1.2497273564804345E-004
  0.31480000000000002         -1.2691227311734110E-004
  0.31590000000000001         -1.2889114441350102E-004
  0.31700000000000000         -1.3002703781239688E-004
  0.31809999999999999         -1.3078165648039430E-004
  0.31919999999999998         -1.3140829105395824E-004
  0.32029999999999997         -1.3238389510661364E-004
  0.32140000000000007         -1.3413099804893136E-004
  0.32250000000000006         -1.3586402928922325E-004
  0.32360000000000005         -1.3707840116694570E-004
  0.32470000000000004         -1.3761072477791458E-004
  0.32580000000000003         -1.3801487511955202E-004
  0.32690000000000002         -1.3882837083656341E-004
  0.32800000000000001         -1.4008015568833798E-004
  0.32910000000000000         -1.4127377653494477E-004
  0.33019999999999999         -1.4171836664900184E-004
  0.33129999999999998         -1.4174910029396415E-004
  0.33239999999999997         -1.4193466631695628E-004
  0.33350000000000007         -1.4276667207013816E-004
  0.33460000000000006         -1.4373617887031287E-004
  0.33570000000000005         -1.4398361963685602E-004
  0.33680000000000004         -1.4297117013484240E-004
  0.33790000000000003         -1.4115586236584932E-004
  0.33900000000000002         -1.3968591520097107E-004
  0.34010000000000001         -1.3954879250377417E-004
  0.34120000000000000         -1.4043923874851316E-004
  0.34229999999999999         -1.4141583233140409E-004
  0.34339999999999998         -1.4115190424490720E-004
  0.34449999999999997         -1.3981664960738271E-004
  0.34560000000000007         -1.3793881225865334E-004
  0.34670000000000006         -1.3638570089824498E-004
  0.34780000000000005         -1.3491217396222055E-004
  0.34890000000000004         -1.3316592958290130E-004
