 -0.20000000000000001          0.0000000000000000
 -0.19890000000000002          0.0000000000000000
 -0.19780000000000000          0.0000000000000000
 -0.19670000000000001          0.0000000000000000
 -0.19560000000000002          0.0000000000000000
 -0.19450000000000001          0.0000000000000000
 -0.19340000000000002          0.0000000000000000
 -0.19230000000000000          0.0000000000000000
 -0.19120000000000001          2.4828247211654547E-027
 -0.19010000000000002         -2.7477575317267084E-026
 -0.18900000000000000         -1.4688896971411177E-025
 -0.18790000000000001          3.4712870105593373E-025
 -0.18680000000000002          2.9345702588159898E-024
 -0.18570000000000000          9.5380107088050489E-025
 -0.18460000000000001         -2.9730820143353817E-023
 -0.18350000000000000         -6.8176615847016593E-023
 -0.18240000000000001          1.0666431899740833E-022
 -0.18130000000000002          7.3590059582036710E-022
 -0.18020000000000000          8.7472027370977706E-022
 -0.17910000000000001         -2.5761457734584339E-021
 -0.17800000000000002         -1.0383607115107393E-020
 -0.17690000000000000         -8.8689537874047028E-021
 -0.17580000000000001          3.0945010892542029E-020
 -0.17470000000000002          1.0447802308313903E-019
 -0.17360000000000000          8.5937732542694716E-020
 -0.17250000000000001         -2.4079780808453280E-019
 -0.17140000000000000         -8.1616127432411423E-019
 -0.17030000000000001         -7.7545483750097890E-019
 -0.16920000000000002          1.2710900868093305E-018
 -0.16810000000000000          5.0872596152843203E-018
 -0.16700000000000001          5.9438994381728115E-018
 -0.16589999999999999         -4.0211292712315681E-018
 -0.16480000000000000         -2.5340008049265835E-017
 -0.16370000000000001         -3.7021533723439722E-017
 -0.16260000000000002         -1.9577912363179369E-019
 -0.16150000000000000          9.8931992401424186E-017
 -0.16040000000000001          1.8545087577951421E-016
 -0.15930000000000000          9.3684160072040766E-017
 -0.15820000000000001         -2.8410628545388027E-016
 -0.15710000000000002         -7.4392579710696170E-016
 -0.15600000000000000         -6.8578074398665742E-016
 -0.15490000000000001          4.6102415132275466E-016
 -0.15379999999999999          2.3516961337679719E-015
 -0.15270000000000000          3.1749117850949022E-015
 -0.15160000000000001          6.0005725101581879E-016
 -0.15050000000000002         -5.5532462580210745E-015
 -0.14940000000000001         -1.0885867538336716E-014
 -0.14830000000000002         -7.7463509307669660E-015
 -0.14720000000000000          7.9562999052052059E-015
 -0.14610000000000001          2.8386765933197979E-014
 -0.14500000000000002          3.3151416046995827E-014
 -0.14390000000000000          3.5605555098261812E-015
 -0.14280000000000001         -5.3833094259452333E-014
 -0.14169999999999999         -9.5577754424033129E-014
 -0.14060000000000000         -6.3960298103855895E-014
 -0.13950000000000001          5.8197316323699289E-014
 -0.13840000000000002          2.0130941455909906E-013
 -0.13730000000000001          2.2870534676158738E-013
 -0.13619999999999999          4.1341587678168576E-014
 -0.13510000000000000         -2.9582215041283610E-013
 -0.13400000000000001         -5.2897687315492381E-013
 -0.13290000000000002         -3.7373451772584887E-013
 -0.13180000000000000          2.1342893815126662E-013
 -0.13070000000000001          8.7441837624824270E-013
 -0.12959999999999999          1.0163335017326913E-012
 -0.12850000000000000          2.8642835173987857E-013
 -0.12740000000000001         -9.8615711950633678E-013
 -0.12630000000000002         -1.8340910387659726E-012
 -0.12520000000000001         -1.3308858138813551E-012
 -0.12410000000000000          5.1721707429105979E-013
 -0.12300000000000001          2.4559560114767454E-012
 -0.12190000000000001          2.7505391627519193E-012
 -0.12080000000000000          6.6044939699486105E-013
 -0.11970000000000000         -2.5637716775939179E-012
 -0.11860000000000001         -4.2629962060392046E-012
 -0.11750000000000001         -2.4535471310899171E-012
 -0.11640000000000000          2.1241645595249103E-012
 -0.11530000000000000          5.9380968024658198E-012
 -0.11420000000000001          5.1907909394410812E-012
 -0.11310000000000001         -7.2349233808804980E-013
 -0.11200000000000000         -7.7982386173514051E-012
 -0.11090000000000001         -9.8579382504238033E-012
 -0.10980000000000001         -3.5834054907396551E-012
 -0.10870000000000000          7.8114199136836149E-012
 -0.10760000000000000          1.5836922051537528E-011
 -0.10650000000000001          1.2861316178724991E-011
 -0.10540000000000001         -1.2407882880871579E-012
 -0.10430000000000000         -1.7531809337612003E-011
 -0.10320000000000000         -2.3728347411933193E-011
 -0.10210000000000001         -1.3540689403068740E-011
 -0.10100000000000001          7.5629034285151775E-012
  -9.9900000000000003E-002     2.5299800449074539E-011
  -9.8799999999999999E-002     2.6778275777350480E-011
  -9.7700000000000009E-002     1.0466098473993490E-011
  -9.6600000000000005E-002    -1.2036177610141863E-011
  -9.5500000000000002E-002    -2.4409562912608429E-011
  -9.4400000000000012E-002    -1.8198496529175934E-011
  -9.3300000000000008E-002     2.0474161916642780E-013
  -9.2200000000000004E-002     1.4165026790413648E-011
  -9.1100000000000000E-002     1.0215240112132484E-011
  -9.0000000000000011E-002    -9.7662884723792587E-012
  -8.8900000000000007E-002    -2.7700865906643557E-011
  -8.7800000000000003E-002    -2.2115649589427022E-011
  -8.6699999999999999E-002     1.3490910645563847E-011
  -8.5600000000000009E-002     6.0495483622524659E-011
  -8.4500000000000006E-002     8.3090673230756806E-011
  -8.3400000000000002E-002     5.2177536596920149E-011
  -8.2299999999999998E-002    -2.9650851218754326E-011
  -8.1200000000000008E-002    -1.2101067370373642E-010
  -8.0100000000000005E-002    -1.6209818209933502E-010
  -7.9000000000000001E-002    -1.1334113508842947E-010
  -7.7899999999999997E-002     1.2696880873075411E-011
  -7.6800000000000007E-002     1.5107276540859971E-010
  -7.5700000000000003E-002     2.2131806109992880E-010
  -7.4600000000000000E-002     1.7949430830555002E-010
  -7.3500000000000010E-002     4.8856300949307041E-011
  -7.2399999999999992E-002    -9.5329015514789006E-011
  -7.1300000000000002E-002    -1.7792713136177696E-010
  -7.0200000000000012E-002    -1.7425150211636264E-010
  -6.9099999999999995E-002    -1.1891120033080682E-010
  -6.8000000000000005E-002    -6.6071759174946010E-011
  -6.6900000000000015E-002    -3.5591279923252728E-011
  -6.5799999999999997E-002     5.4599129037380401E-012
  -6.4700000000000008E-002     1.0448340109769916E-010
  -6.3599999999999990E-002     2.5809224202255621E-010
  -6.2500000000000000E-002     3.8072139885159118E-010
  -6.1400000000000010E-002     3.4769076506790952E-010
  -6.0299999999999992E-002     9.2789789740699291E-011
  -5.9200000000000003E-002    -3.1238275854938991E-010
  -5.8100000000000013E-002    -6.6836003398407229E-010
  -5.6999999999999995E-002    -7.5669059906857683E-010
  -5.5900000000000005E-002    -4.8096587823565073E-010
  -5.4800000000000015E-002     5.8073074127307223E-011
  -5.3699999999999998E-002     6.1022398245569320E-010
  -5.2600000000000008E-002     9.1824864378864390E-010
  -5.1499999999999990E-002     8.6104529062325241E-010
  -5.0400000000000000E-002     5.0477899637968449E-010
  -4.9300000000000010E-002     3.5201938586304493E-011
  -4.8199999999999993E-002    -3.7353914406068611E-010
  -4.7100000000000003E-002    -6.5784228064913464E-010
  -4.6000000000000013E-002    -8.6279083877371932E-010
  -4.4899999999999995E-002    -1.0454925813974114E-009
  -4.3800000000000006E-002    -1.1610142847118254E-009
  -4.2699999999999988E-002    -1.0284977314256594E-009
  -4.1599999999999998E-002    -4.2678091616288327E-010
  -4.0500000000000008E-002     7.2286943098021084E-010
  -3.9399999999999991E-002     2.2074442274089279E-009
  -3.8300000000000001E-002     3.5326934710866453E-009
  -3.7200000000000011E-002     4.1328696021025735E-009
  -3.6099999999999993E-002     3.6825265059547974E-009
  -3.5000000000000003E-002     2.3189217213115398E-009
  -3.3900000000000013E-002     6.1285393426757651E-010
  -3.2799999999999996E-002    -7.2000028161767204E-010
  -3.1700000000000006E-002    -1.1943617206355839E-009
  -3.0599999999999988E-002    -7.7368605966299242E-010
  -2.9499999999999998E-002     2.0506914222284678E-010
  -2.8400000000000009E-002     1.3219704220190920E-009
  -2.7299999999999991E-002     2.3441830698800459E-009
  -2.6200000000000001E-002     3.2705178565350934E-009
  -2.5100000000000011E-002     4.1447671961236665E-009
  -2.3999999999999994E-002     4.8361621374226615E-009
  -2.2900000000000004E-002     5.0182280553201508E-009
  -2.1800000000000014E-002     4.4045891378630131E-009
  -2.0699999999999996E-002     3.0647719917453742E-009
  -1.9600000000000006E-002     1.5470510428272632E-009
  -1.8499999999999989E-002     6.6668609521869371E-010
  -1.7399999999999999E-002     1.0729350741200960E-009
  -1.6300000000000009E-002     2.8804370000301560E-009
  -1.5199999999999991E-002     5.6056772557155909E-009
  -1.4100000000000001E-002     8.4326767790798840E-009
  -1.3000000000000012E-002     1.0619015000656873E-008
  -1.1899999999999994E-002     1.1796254639762083E-008
  -1.0800000000000004E-002     1.2030922924566312E-008
  -9.6999999999999864E-003     1.1681422940057473E-008
  -8.5999999999999965E-003     1.1186729764744996E-008
  -7.5000000000000067E-003     1.0912081016556385E-008
  -6.3999999999999890E-003     1.1100651065021339E-008
  -5.2999999999999992E-003     1.1905714636384346E-008
  -4.2000000000000093E-003     1.3439563240069674E-008
  -3.0999999999999917E-003     1.5776150164015235E-008
  -2.0000000000000018E-003     1.8882175822909630E-008
  -9.0000000000001190E-004     2.2519726528003048E-008
   2.0000000000000573E-004     2.6225446703165289E-008
   1.2999999999999956E-003     2.9460304418194028E-008
   2.4000000000000132E-003     3.1905592834391427E-008
   3.5000000000000031E-003     3.3721651249152274E-008
   4.5999999999999930E-003     3.5534714726281891E-008
   5.7000000000000106E-003     3.8074610131388908E-008
   6.8000000000000005E-003     4.1673420270171846E-008
   7.8999999999999904E-003     4.6013155952095985E-008
   9.0000000000000080E-003     5.0378158533703754E-008
   1.0099999999999998E-002     5.4274416072530585E-008
   1.1199999999999988E-002     5.7936428987659383E-008
   1.2300000000000005E-002     6.2274693846120499E-008
   1.3399999999999995E-002     6.8248034779117006E-008
   1.4500000000000013E-002     7.6136444704388850E-008
   1.5600000000000003E-002     8.5308627717495256E-008
   1.6699999999999993E-002     9.4691586127737537E-008
   1.7800000000000010E-002     1.0356963997537605E-007
   1.8900000000000000E-002     1.1206596894908216E-007
   1.9999999999999990E-002     1.2093282464320509E-007
   2.1100000000000008E-002     1.3086078354263009E-007
   2.2199999999999998E-002     1.4190537456215679E-007
   2.3300000000000015E-002     1.5349944249010150E-007
   2.4400000000000005E-002     1.6501152799719421E-007
   2.5499999999999995E-002     1.7637674432080530E-007
   2.6600000000000013E-002     1.8831526915619179E-007
   2.7700000000000002E-002     2.0201565575916902E-007
   2.8799999999999992E-002     2.1854661724773905E-007
   2.9900000000000010E-002     2.3837395701775677E-007
   3.1000000000000000E-002     2.6119496965293365E-007
   3.2099999999999990E-002     2.8608198476831603E-007
   3.3200000000000007E-002     3.1182941029328504E-007
   3.4299999999999997E-002     3.3739934224286117E-007
   3.5400000000000015E-002     3.6234055755812733E-007
   3.6500000000000005E-002     3.8699587889823306E-007
   3.7599999999999995E-002     4.1234659420297248E-007
   3.8700000000000012E-002     4.3954736383966519E-007
   3.9800000000000002E-002     4.6945649501139997E-007
   4.0899999999999992E-002     5.0249781224920298E-007
   4.2000000000000010E-002     5.3889294804321253E-007
   4.3099999999999999E-002     5.7893174698619987E-007
   4.4200000000000017E-002     6.2288648905450827E-007
   4.5300000000000007E-002     6.7055526642434415E-007
   4.6399999999999997E-002     7.2091194169843220E-007
   4.7500000000000014E-002     7.7241105600478477E-007
   4.8600000000000004E-002     8.2396530842743232E-007
   4.9699999999999994E-002     8.7590882458243868E-007
   5.0800000000000012E-002     9.3009037982483278E-007
   5.1900000000000002E-002     9.8885550414706813E-007
   5.2999999999999992E-002     1.0536177796893753E-006
   5.4099999999999981E-002     1.1241164656894398E-006
   5.5200000000000027E-002     1.1989042150162277E-006
   5.6300000000000017E-002     1.2765954124915879E-006
   5.7400000000000007E-002     1.3568035228672670E-006
   5.8499999999999996E-002     1.4400733334696270E-006
   5.9599999999999986E-002     1.5270816220436245E-006
   6.0700000000000032E-002     1.6179981230379781E-006
   6.1800000000000022E-002     1.7126282045865082E-006
   6.2900000000000011E-002     1.8110924884240376E-006
   6.4000000000000001E-002     1.9142539713357110E-006
   6.5099999999999991E-002     2.0233801478752866E-006
   6.6199999999999981E-002     2.1393129827629309E-006
   6.7300000000000026E-002     2.2619228730036411E-006
   6.8400000000000016E-002     2.3903198780317325E-006
   6.9500000000000006E-002     2.5235690372937825E-006
   7.0599999999999996E-002     2.6612456167640630E-006
   7.1699999999999986E-002     2.8034141905664001E-006
   7.2800000000000031E-002     2.9502759844035609E-006
   7.3900000000000021E-002     3.1020201731735142E-006
   7.5000000000000011E-002     3.2589989586995216E-006
   7.6100000000000001E-002     3.4218978726130445E-006
   7.7199999999999991E-002     3.5914879390475107E-006
   7.8299999999999981E-002     3.7680692912545055E-006
   7.9400000000000026E-002     3.9511992326879408E-006
   8.0500000000000016E-002     4.1401049202249851E-006
   8.1600000000000006E-002     4.3344721234461758E-006
   8.2699999999999996E-002     4.5348165258474182E-006
   8.3799999999999986E-002     4.7419639486179221E-006
   8.4900000000000031E-002     4.9560635488887783E-006
   8.6000000000000021E-002     5.1761817303486168E-006
   8.7100000000000011E-002     5.4009951782063581E-006
   8.8200000000000001E-002     5.6300282267329749E-006
   8.9299999999999990E-002     5.8642262956709601E-006
   9.0399999999999980E-002     6.1051832744851708E-006
   9.1500000000000026E-002     6.3536845118505880E-006
   9.2600000000000016E-002     6.6089555730286520E-006
   9.3700000000000006E-002     6.8693748289661016E-006
   9.4799999999999995E-002     7.1339641181111801E-006
   9.5899999999999985E-002     7.4031745498359669E-006
   9.7000000000000031E-002     7.6781434472650290E-006
   9.8100000000000021E-002     7.9591773101128638E-006
   9.9200000000000010E-002     8.2450369518483058E-006
  0.10030000000000000          8.5338160715764388E-006
  0.10139999999999999          8.8246015366166830E-006
  0.10249999999999998          9.1182446340098977E-006
  0.10360000000000003          9.4164952315622941E-006
  0.10470000000000002          9.7203273980994709E-006
  0.10580000000000001          1.0029020813817624E-005
  0.10690000000000000          1.0340783774154261E-005
  0.10799999999999998          1.0654225661710370E-005
  0.10910000000000003          1.0969138202199247E-005
  0.11020000000000002          1.1285895197943319E-005
  0.11130000000000001          1.1604269275267143E-005
  0.11240000000000000          1.1922996236535255E-005
  0.11349999999999999          1.2240672731422819E-005
  0.11460000000000004          1.2556923138618004E-005
  0.11570000000000003          1.2872532352048438E-005
  0.11680000000000001          1.3188406228437088E-005
  0.11790000000000000          1.3504424714483321E-005
  0.11899999999999999          1.3819345440424513E-005
  0.12009999999999998          1.4131877833278850E-005
  0.12120000000000003          1.4441795428865589E-005
  0.12230000000000002          1.4749725778528955E-005
  0.12340000000000001          1.5055772564664949E-005
  0.12450000000000000          1.5358513337559998E-005
  0.12559999999999999          1.5655667084502056E-005
  0.12670000000000003          1.5945832274155691E-005
  0.12780000000000002          1.6229554603341967E-005
  0.12890000000000001          1.6508412954863161E-005
  0.13000000000000000          1.6783144019427709E-005
  0.13109999999999999          1.7052543626050465E-005
  0.13219999999999998          1.7314276192337275E-005
  0.13330000000000003          1.7567035683896393E-005
  0.13440000000000002          1.7811613361118361E-005
  0.13550000000000001          1.8049817299470305E-005
  0.13660000000000000          1.8282342352904379E-005
  0.13769999999999999          1.8507618733565323E-005
  0.13880000000000003          1.8722977983998135E-005
  0.13990000000000002          1.8927052224171348E-005
  0.14100000000000001          1.9120720025966875E-005
  0.14210000000000000          1.9305822206661105E-005
  0.14319999999999999          1.9482989955577068E-005
  0.14429999999999998          1.9650751710287295E-005
  0.14540000000000003          1.9807213902822696E-005
  0.14650000000000002          1.9952396542066708E-005
  0.14760000000000001          2.0088529709028080E-005
  0.14870000000000000          2.0217818018863909E-005
  0.14979999999999999          2.0340055925771594E-005
  0.15090000000000003          2.0452494936762378E-005
  0.15200000000000002          2.0552148271235637E-005
  0.15310000000000001          2.0638673959183507E-005
  0.15420000000000000          2.0714880520245060E-005
  0.15529999999999999          2.0784069420187734E-005
  0.15639999999999998          2.0846866391366348E-005
  0.15750000000000003          2.0900799427181482E-005
  0.15860000000000002          2.0943038180121221E-005
  0.15970000000000001          2.0973920982214622E-005
  0.16080000000000000          2.0997189494664781E-005
  0.16189999999999999          2.1016698156017810E-005
  0.16300000000000003          2.1033009033999406E-005
  0.16410000000000002          2.1043148080934770E-005
  0.16520000000000001          2.1043693777755834E-005
  0.16630000000000000          2.1034367819083855E-005
  0.16739999999999999          2.1019028281443752E-005
  0.16850000000000004          2.1002399080316536E-005
  0.16960000000000003          2.0985871742595918E-005
  0.17070000000000002          2.0966952433809638E-005
  0.17180000000000001          2.0942487026331946E-005
  0.17290000000000000          2.0912317268084735E-005
  0.17399999999999999          2.0879635485471226E-005
  0.17510000000000003          2.0848257918260060E-005
  0.17620000000000002          2.0819350538658909E-005
  0.17730000000000001          2.0790888811461627E-005
  0.17840000000000000          2.0760780898854136E-005
  0.17949999999999999          2.0729552488774061E-005
  0.18060000000000004          2.0700341337942518E-005
  0.18170000000000003          2.0676028725574724E-005
  0.18280000000000002          2.0656503693317063E-005
  0.18390000000000001          2.0639341528294608E-005
  0.18500000000000000          2.0623079763026908E-005
  0.18609999999999999          2.0609779312508181E-005
  0.18720000000000003          2.0603696611942723E-005
  0.18830000000000002          2.0607667465810664E-005
  0.18940000000000001          2.0620762370526791E-005
  0.19050000000000000          2.0639768990804441E-005
  0.19159999999999999          2.0663150280597620E-005
  0.19270000000000004          2.0693038095487282E-005
  0.19380000000000003          2.0733448764076456E-005
  0.19490000000000002          2.0786288587260060E-005
  0.19600000000000001          2.0849180145887658E-005
  0.19710000000000000          2.0917623260174878E-005
  0.19819999999999999          2.0989320546505041E-005
  0.19930000000000003          2.1066805857117288E-005
  0.20040000000000002          2.1155377908144146E-005
  0.20150000000000001          2.1258836568449624E-005
  0.20260000000000000          2.1376859876909293E-005
  0.20369999999999999          2.1505409677047282E-005
  0.20480000000000004          2.1640238628606312E-005
  0.20590000000000003          2.1780606402899139E-005
  0.20700000000000002          2.1929445210844278E-005
  0.20810000000000001          2.2089679987402633E-005
  0.20920000000000000          2.2261134290602058E-005
  0.21029999999999999          2.2440894099418074E-005
  0.21140000000000003          2.2626247300649993E-005
  0.21250000000000002          2.2817277567810379E-005
  0.21360000000000001          2.3016389604890719E-005
  0.21470000000000000          2.3225880795507692E-005
  0.21579999999999999          2.3445669285138138E-005
  0.21690000000000004          2.3672757379245013E-005
  0.21800000000000003          2.3903472538222559E-005
  0.21910000000000002          2.4135855710483156E-005
  0.22020000000000001          2.4370150640606880E-005
  0.22130000000000000          2.4608283638372086E-005
  0.22239999999999999          2.4852177375578322E-005
  0.22350000000000003          2.5101251594605856E-005
  0.22460000000000002          2.5352735974593088E-005
  0.22570000000000001          2.5603374524507672E-005
  0.22680000000000000          2.5851333703030832E-005
  0.22789999999999999          2.6097237423527986E-005
  0.22900000000000004          2.6342861019656993E-005
  0.23010000000000003          2.6589370463625528E-005
  0.23120000000000002          2.6835516109713353E-005
  0.23230000000000001          2.7077785489382222E-005
  0.23340000000000000          2.7312786187394522E-005
  0.23450000000000004          2.7540087103261612E-005
  0.23560000000000003          2.7762564059230499E-005
  0.23670000000000002          2.7983394829789177E-005
  0.23780000000000001          2.8202155590406619E-005
  0.23890000000000000          2.8413758627721108E-005
  0.23999999999999999          2.8612323148990981E-005
  0.24110000000000004          2.8796303013223223E-005
  0.24220000000000003          2.8969468985451385E-005
  0.24330000000000002          2.9136790544725955E-005
  0.24440000000000001          2.9299460948095657E-005
  0.24550000000000000          2.9453094612108544E-005
  0.24660000000000004          2.9591410566354170E-005
  0.24770000000000003          2.9712306059082039E-005
  0.24880000000000002          2.9820112104061991E-005
  0.24990000000000001          2.9920982342446223E-005
  0.25100000000000000          3.0016139135113917E-005
  0.25209999999999999          3.0100278308964334E-005
  0.25320000000000004          3.0166656870278530E-005
  0.25430000000000003          3.0213825084501877E-005
  0.25540000000000002          3.0247279937611893E-005
  0.25650000000000001          3.0274042728706263E-005
  0.25760000000000000          3.0295122996903956E-005
  0.25870000000000004          3.0304134270409122E-005
  0.25980000000000003          3.0293949748738669E-005
  0.26090000000000002          3.0264989618444815E-005
  0.26200000000000001          3.0225806767703034E-005
  0.26310000000000000          3.0184972274582833E-005
  0.26419999999999999          3.0142697141855024E-005
  0.26530000000000004          3.0090008294791915E-005
  0.26640000000000003          3.0017356039024889E-005
  0.26750000000000002          2.9924618502263911E-005
  0.26860000000000001          2.9822178476024419E-005
  0.26970000000000000          2.9721599275944754E-005
  0.27080000000000004          2.9625432944158092E-005
  0.27190000000000003          2.9525281206588261E-005
  0.27300000000000002          2.9410799470497295E-005
  0.27410000000000001          2.9280305170686916E-005
  0.27520000000000000          2.9143209758331068E-005
  0.27629999999999999          2.9012089726165868E-005
  0.27740000000000004          2.8890390240121633E-005
  0.27850000000000003          2.8769592972821556E-005
  0.27960000000000002          2.8638160074478947E-005
  0.28070000000000001          2.8494121579569764E-005
  0.28179999999999999          2.8348795240162872E-005
  0.28290000000000004          2.8215337806614116E-005
  0.28400000000000003          2.8096581445424818E-005
  0.28510000000000002          2.7984282496618107E-005
  0.28620000000000001          2.7867688913829625E-005
  0.28730000000000000          2.7744516046368517E-005
  0.28840000000000005          2.7623700589174405E-005
  0.28950000000000004          2.7517035050550476E-005
  0.29060000000000002          2.7427897293819115E-005
  0.29170000000000001          2.7348907678970136E-005
  0.29280000000000000          2.7271127692074515E-005
  0.29389999999999999          2.7193873393116519E-005
  0.29500000000000004          2.7124944608658552E-005
  0.29610000000000003          2.7072563170804642E-005
  0.29720000000000002          2.7036678147851489E-005
  0.29830000000000001          2.7010015401174314E-005
  0.29940000000000000          2.6986972443410195E-005
  0.30050000000000004          2.6970345061272383E-005
  0.30160000000000003          2.6968695237883367E-005
  0.30270000000000002          2.6986452212440781E-005
  0.30380000000000001          2.7019246772397310E-005
  0.30490000000000000          2.7058449632022530E-005
  0.30599999999999999          2.7099886210635304E-005
  0.30709999999999998          2.7147996661369689E-005
  0.30819999999999997          2.7210826374357566E-005
  0.30930000000000007          2.7291347578284331E-005
  0.31040000000000006          2.7383886845200323E-005
  0.31150000000000005          2.7480113203637302E-005
  0.31260000000000004          2.7578464141697623E-005
  0.31370000000000003          2.7684833185048774E-005
  0.31480000000000002          2.7805155696114525E-005
  0.31590000000000001          2.7938081984757446E-005
  0.31700000000000000          2.8075590307707898E-005
  0.31809999999999999          2.8209606171003543E-005
  0.31919999999999998          2.8338708943920210E-005
  0.32029999999999997          2.8469474273151718E-005
  0.32140000000000007          2.8608557840925641E-005
  0.32250000000000006          2.8755936000379734E-005
  0.32360000000000005          2.8904529244755395E-005
  0.32470000000000004          2.9045857445453294E-005
  0.32580000000000003          2.9177523174439557E-005
  0.32690000000000002          2.9303662813617848E-005
  0.32800000000000001          2.9428441848722287E-005
  0.32910000000000000          2.9549844839493744E-005
  0.33019999999999999          2.9661116059287451E-005
  0.33129999999999998          2.9757289667031728E-005
  0.33239999999999997          2.9838931368431076E-005
  0.33350000000000007          2.9910073862993158E-005
  0.33460000000000006          2.9971797630423680E-005
  0.33570000000000005          3.0019564292160794E-005
  0.33680000000000004          3.0047502150409855E-005
  0.33790000000000003          3.0053899536142126E-005
  0.33900000000000002          3.0042145226616412E-005
  0.34010000000000001          3.0015822630957700E-005
  0.34120000000000000          2.9971715775900520E-005
  0.34229999999999999          2.9900802474003285E-005
  0.34339999999999998          2.9796596209052950E-005
  0.34449999999999997          2.9661885491805151E-005
  0.34560000000000007          2.9506956707336940E-005
  0.34670000000000006          2.9338090826058760E-005
  0.34780000000000005          2.9149527108529583E-005
  0.34890000000000004          2.8927392122568563E-005
