 -0.20000000000000001          0.0000000000000000
 -0.19890000000000002          0.0000000000000000
 -0.19780000000000000          0.0000000000000000
 -0.19670000000000001          0.0000000000000000
 -0.19560000000000002          0.0000000000000000
 -0.19450000000000001          0.0000000000000000
 -0.19340000000000002          2.7330593377956319E-017
 -0.19230000000000000          1.6666572318244316E-016
 -0.19120000000000001          2.0853247065263469E-016
 -0.19010000000000002         -1.2918425586260027E-015
 -0.18900000000000000         -6.0389925482171036E-015
 -0.18790000000000001         -8.2383110546640527E-015
 -0.18680000000000002          1.4421444046548368E-014
 -0.18570000000000000          8.0460181431981498E-014
 -0.18460000000000001          1.2933255269693966E-013
 -0.18350000000000000         -3.5880871299305561E-014
 -0.18240000000000001         -5.8295864880167358E-013
 -0.18130000000000002         -1.1661759882417022E-012
 -0.18020000000000000         -5.8360711012103716E-013
 -0.17910000000000001          2.4099012715939061E-012
 -0.17800000000000002          6.7408609076557990E-012
 -0.17690000000000000          7.0714033587049308E-012
 -0.17580000000000001         -3.6242829484084416E-012
 -0.17470000000000002         -2.5023779923194489E-011
 -0.17360000000000000         -4.0130669620719317E-011
 -0.17250000000000001         -1.9589425567789753E-011
 -0.17140000000000000          5.1405487505595815E-011
 -0.17030000000000001          1.3774922869025374E-010
 -0.16920000000000002          1.4992589114637411E-010
 -0.16810000000000000          3.9699311546459448E-012
 -0.16700000000000001         -2.7483806896988483E-010
 -0.16589999999999999         -4.9522114187183774E-010
 -0.16480000000000000         -3.8959160897356071E-010
 -0.16370000000000001          1.5435412670239401E-010
 -0.16260000000000002          8.8758689287260495E-010
 -0.16150000000000000          1.2523297954203372E-009
 -0.16040000000000001          7.6706302420959105E-010
 -0.15930000000000000         -4.9942538993263952E-010
 -0.15820000000000001         -1.8035704041352574E-009
 -0.15710000000000002         -2.1957469176214772E-009
 -0.15600000000000000         -1.2967044105138825E-009
 -0.15490000000000001          3.1283214907418255E-010
 -0.15379999999999999          1.5763319538564247E-009
 -0.15270000000000000          1.9921104765785458E-009
 -0.15160000000000001          2.1450807796696836E-009
 -0.15050000000000002          2.9321112204883093E-009
 -0.14940000000000001          3.9608729629492245E-009
 -0.14830000000000002          2.8612547886552875E-009
 -0.14720000000000000         -3.0008586726637532E-009
 -0.14610000000000001         -1.3044391344863016E-008
 -0.14500000000000002         -2.1285011087002204E-008
 -0.14390000000000000         -1.8663332213009198E-008
 -0.14280000000000001          8.3442121268095804E-011
 -0.14169999999999999          2.9548084867769830E-008
 -0.14060000000000000          5.3170168712313171E-008
 -0.13950000000000001          5.1961805525024829E-008
 -0.13840000000000002          1.8017185965391036E-008
 -0.13730000000000001         -3.6843839978928372E-008
 -0.13619999999999999         -8.5016750972499722E-008
 -0.13510000000000000         -9.8604651554978773E-008
 -0.13400000000000001         -6.6362439099520998E-008
 -0.13290000000000002         -2.9243232835263200E-010
 -0.13180000000000000          7.2216138846670219E-008
 -0.13070000000000001          1.2381313752030110E-007
 -0.12959999999999999          1.3837328083354805E-007
 -0.12850000000000000          1.1161043289575900E-007
 -0.12740000000000001          4.5515907487470031E-008
 -0.12630000000000002         -5.3357531726305751E-008
 -0.12520000000000001         -1.6719553741495474E-007
 -0.12410000000000000         -2.5910577505783294E-007
 -0.12300000000000001         -2.7794038715001079E-007
 -0.12190000000000001         -1.8231871479201800E-007
 -0.12080000000000000          2.6559296983919012E-008
 -0.11970000000000000          2.8647568228734599E-007
 -0.11860000000000001          4.8933839025266934E-007
 -0.11750000000000001          5.2871251909891726E-007
 -0.11640000000000000          3.5568496059568133E-007
 -0.11530000000000000          1.0717222664879955E-008
 -0.11420000000000001         -3.8795766954535793E-007
 -0.11310000000000001         -6.9349613340818905E-007
 -0.11200000000000000         -7.9061402402658132E-007
 -0.11090000000000001         -6.3695790686324472E-007
 -0.10980000000000001         -2.7001749458577251E-007
 -0.10870000000000000          2.1556398621669359E-007
 -0.10760000000000000          7.0190122869462357E-007
 -0.10650000000000001          1.0751480203907704E-006
 -0.10540000000000001          1.2402277889123070E-006
 -0.10430000000000000          1.1306369742669631E-006
 -0.10320000000000000          7.2526989924881491E-007
 -0.10210000000000001          7.4484674428276776E-008
 -0.10100000000000001         -6.8037263645237545E-007
  -9.9900000000000003E-002    -1.3210126326157479E-006
  -9.8799999999999999E-002    -1.6167659850907512E-006
  -9.7700000000000009E-002    -1.4244092199078295E-006
  -9.6600000000000005E-002    -7.7307629453571280E-007
  -9.5500000000000002E-002     1.2404765925566608E-007
  -9.4400000000000012E-002     9.5475081707263598E-007
  -9.3300000000000008E-002     1.4515319435304264E-006
  -9.2200000000000004E-002     1.5109374089661287E-006
  -9.1100000000000000E-002     1.2154088153693010E-006
  -9.0000000000000011E-002     7.4928806270690984E-007
  -8.8900000000000007E-002     2.7456505335976544E-007
  -8.7800000000000003E-002    -1.4283780558344006E-007
  -8.6699999999999999E-002    -5.1079956620014855E-007
  -8.5600000000000009E-002    -8.2758054986697971E-007
  -8.4500000000000006E-002    -1.0210648042630055E-006
  -8.3400000000000002E-002    -9.7125428055733209E-007
  -8.2299999999999998E-002    -6.0148892089273431E-007
  -8.1200000000000008E-002     3.8295606685778694E-008
  -8.0100000000000005E-002     7.6903694434804493E-007
  -7.9000000000000001E-002     1.3682354165212018E-006
  -7.7899999999999997E-002     1.6816816241771448E-006
  -7.6800000000000007E-002     1.6832264009281062E-006
  -7.5700000000000003E-002     1.4514258737108321E-006
  -7.4600000000000000E-002     1.0971011761284899E-006
  -7.3500000000000010E-002     7.0428586695925333E-007
  -7.2399999999999992E-002     3.2133121408151055E-007
  -7.1300000000000002E-002    -1.0661256766297811E-008
  -7.0200000000000012E-002    -2.3324895437326632E-007
  -6.9099999999999995E-002    -2.7920907541556517E-007
  -6.8000000000000005E-002    -1.0941046468815330E-007
  -6.6900000000000015E-002     2.5134332304332929E-007
  -6.5799999999999997E-002     7.0813825914228801E-007
  -6.4700000000000008E-002     1.1294162050035084E-006
  -6.3599999999999990E-002     1.4084426993576926E-006
  -6.2500000000000000E-002     1.5248028830683324E-006
  -6.1400000000000010E-002     1.5696734863013262E-006
  -6.0299999999999992E-002     1.7061139487850596E-006
  -5.9200000000000003E-002     2.0674985989899142E-006
  -5.8100000000000013E-002     2.6451782559888670E-006
  -5.6999999999999995E-002     3.2458094665344106E-006
  -5.5900000000000005E-002     3.5724888221011497E-006
  -5.4800000000000015E-002     3.4017689358734060E-006
  -5.3699999999999998E-002     2.7464811864774674E-006
  -5.2600000000000008E-002     1.8848379568225937E-006
  -5.1499999999999990E-002     1.2223542853462277E-006
  -5.0400000000000000E-002     1.0753939250207623E-006
  -4.9300000000000010E-002     1.5219245597108966E-006
  -4.8199999999999993E-002     2.4074261091300286E-006
  -4.7100000000000003E-002     3.4694824080361286E-006
  -4.6000000000000013E-002     4.4656603677140083E-006
  -4.4899999999999995E-002     5.2207274165994022E-006
  -4.3800000000000006E-002     5.6133849284378812E-006
  -4.2699999999999988E-002     5.5860591601231135E-006
  -4.1599999999999998E-002     5.2177329052938148E-006
  -4.0500000000000008E-002     4.7933235691743903E-006
  -3.9399999999999991E-002     4.7530752453894820E-006
  -3.8300000000000001E-002     5.4842198551341426E-006
  -3.7200000000000011E-002     7.0651685746270232E-006
  -3.6099999999999993E-002     9.1516631073318422E-006
  -3.5000000000000003E-002     1.1114200788142625E-005
  -3.3900000000000013E-002     1.2352894373179879E-005
  -3.2799999999999996E-002     1.2585222975758370E-005
  -3.1700000000000006E-002     1.1936278497159947E-005
  -3.0599999999999988E-002     1.0817868314916268E-005
  -2.9499999999999998E-002     9.7261281553073786E-006
  -2.8400000000000009E-002     9.0907242338289507E-006
  -2.7299999999999991E-002     9.2092404884169810E-006
  -2.6200000000000001E-002     1.0206465049122926E-005
  -2.5100000000000011E-002     1.1978622751485091E-005
  -2.3999999999999994E-002     1.4165896573103964E-005
  -2.2900000000000004E-002     1.6240050172200426E-005
  -2.1800000000000014E-002     1.7720380128594115E-005
  -2.0699999999999996E-002     1.8405997252557427E-005
  -1.9600000000000006E-002     1.8467724657966755E-005
  -1.8499999999999989E-002     1.8334565538680181E-005
  -1.7399999999999999E-002     1.8462660591467284E-005
  -1.6300000000000009E-002     1.9150133084622212E-005
  -1.5199999999999991E-002     2.0487719666562043E-005
  -1.4100000000000001E-002     2.2406811694963835E-005
  -1.3000000000000012E-002     2.4722683519939892E-005
  -1.1899999999999994E-002     2.7142092221765779E-005
  -1.0800000000000004E-002     2.9291211831150576E-005
  -9.6999999999999864E-003     3.0835395591566339E-005
  -8.5999999999999965E-003     3.1654650229029357E-005
  -7.5000000000000067E-003     3.1935720471665263E-005
  -6.3999999999999890E-003     3.2078809454105794E-005
  -5.2999999999999992E-003     3.2465362892253324E-005
  -4.2000000000000093E-003     3.3268261176999658E-005
  -3.0999999999999917E-003     3.4449807571945712E-005
  -2.0000000000000018E-003     3.5916531487600878E-005
  -9.0000000000001190E-004     3.7655099731637165E-005
   2.0000000000000573E-004     3.9699989429209381E-005
   1.2999999999999956E-003     4.1981609683716670E-005
   2.4000000000000132E-003     4.4239299313630909E-005
   3.5000000000000031E-003     4.6137327444739640E-005
   4.5999999999999930E-003     4.7514342440990731E-005
   5.7000000000000106E-003     4.8532980144955218E-005
   6.8000000000000005E-003     4.9574809963814914E-005
   7.8999999999999904E-003     5.0965296395588666E-005
   9.0000000000000080E-003     5.2757779485546052E-005
   1.0099999999999998E-002     5.4773536248831078E-005
   1.1199999999999988E-002     5.6820736062945798E-005
   1.2300000000000005E-002     5.8864992752205580E-005
   1.3399999999999995E-002     6.0974663938395679E-005
   1.4500000000000013E-002     6.3120045524556190E-005
   1.5600000000000003E-002     6.5072308643721044E-005
   1.6699999999999993E-002     6.6541280830278993E-005
   1.7800000000000010E-002     6.7454093368723989E-005
   1.8900000000000000E-002     6.8099405325483531E-005
   1.9999999999999990E-002     6.8968511186540127E-005
   2.1100000000000008E-002     7.0412868808489293E-005
   2.2199999999999998E-002     7.2403541707899421E-005
   2.3300000000000015E-002     7.4618066719267517E-005
   2.4400000000000005E-002     7.6740085205528885E-005
   2.5499999999999995E-002     7.8689081419724971E-005
   2.6600000000000013E-002     8.0606238043401390E-005
   2.7700000000000002E-002     8.2630780525505543E-005
   2.8799999999999992E-002     8.4730272646993399E-005
   2.9900000000000010E-002     8.6750973423477262E-005
   3.1000000000000000E-002     8.8600150775164366E-005
   3.2099999999999990E-002     9.0369088866282254E-005
   3.3200000000000007E-002     9.2239526566118002E-005
   3.4299999999999997E-002     9.4291390269063413E-005
   3.5400000000000015E-002     9.6402414783369750E-005
   3.6500000000000005E-002     9.8358003015164286E-005
   3.7599999999999995E-002     1.0007525997934863E-004
   3.8700000000000012E-002     1.0168629523832351E-004
   3.9800000000000002E-002     1.0345377086196095E-004
   4.0899999999999992E-002     1.0555762855801731E-004
   4.2000000000000010E-002     1.0800125164678320E-004
   4.3099999999999999E-002     1.1065970466006547E-004
   4.4200000000000017E-002     1.1343719961587340E-004
   4.5300000000000007E-002     1.1631414963630959E-004
   4.6399999999999997E-002     1.1930856999242678E-004
   4.7500000000000014E-002     1.2238892668392509E-004
   4.8600000000000004E-002     1.2551106920000166E-004
   4.9699999999999994E-002     1.2870131467934698E-004
   5.0800000000000012E-002     1.3209415192250162E-004
   5.1900000000000002E-002     1.3586800196208060E-004
   5.2999999999999992E-002     1.4012095925863832E-004
   5.4099999999999981E-002     1.4477210061158985E-004
   5.5200000000000027E-002     1.4968222239986062E-004
   5.6300000000000017E-002     1.5478405111934990E-004
   5.7400000000000007E-002     1.6014321590773761E-004
   5.8499999999999996E-002     1.6582028183620423E-004
   5.9599999999999986E-002     1.7174426466226578E-004
   6.0700000000000032E-002     1.7771961574908346E-004
   6.1800000000000022E-002     1.8363478011451662E-004
   6.2900000000000011E-002     1.8961836758535355E-004
   6.4000000000000001E-002     1.9606492423918098E-004
   6.5099999999999991E-002     2.0334929286036640E-004
   6.6199999999999981E-002     2.1156159345991910E-004
   6.7300000000000026E-002     2.2053910652175546E-004
   6.8400000000000016E-002     2.2998520580586046E-004
   6.9500000000000006E-002     2.3980055993888527E-004
   7.0599999999999996E-002     2.5007352815009654E-004
   7.1699999999999986E-002     2.6090058963745832E-004
   7.2800000000000031E-002     2.7219430194236338E-004
   7.3900000000000021E-002     2.8370055952109396E-004
   7.5000000000000011E-002     2.9528190498240292E-004
   7.6100000000000001E-002     3.0709584825672209E-004
   7.7199999999999991E-002     3.1957743340171874E-004
   7.8299999999999981E-002     3.3308632555417717E-004
   7.9400000000000026E-002     3.4763981238938868E-004
   8.0500000000000016E-002     3.6289860145188868E-004
   8.1600000000000006E-002     3.7839432479813695E-004
   8.2699999999999996E-002     3.9387293509207666E-004
   8.3799999999999986E-002     4.0938422898761928E-004
   8.4900000000000031E-002     4.2512922664172947E-004
   8.6000000000000021E-002     4.4126997818239033E-004
   8.7100000000000011E-002     4.5787749695591629E-004
   8.8200000000000001E-002     4.7499797074124217E-004
   8.9299999999999990E-002     4.9269164446741343E-004
   9.0399999999999980E-002     5.1100231939926744E-004
   9.1500000000000026E-002     5.2986235823482275E-004
   9.2600000000000016E-002     5.4902967531234026E-004
   9.3700000000000006E-002     5.6823494378477335E-004
   9.4799999999999995E-002     5.8729806914925575E-004
   9.5899999999999985E-002     6.0619181022047997E-004
   9.7000000000000031E-002     6.2503688968718052E-004
   9.8100000000000021E-002     6.4382405253127217E-004
   9.9200000000000010E-002     6.6253612749278545E-004
  0.10030000000000000          6.8120565265417099E-004
  0.10139999999999999          6.9990247720852494E-004
  0.10249999999999998          7.1864185156300664E-004
  0.10360000000000003          7.3716870974749327E-004
  0.10470000000000002          7.5515074422582984E-004
  0.10580000000000001          7.7231437899172306E-004
  0.10690000000000000          7.8852340811863542E-004
  0.10799999999999998          8.0397661076858640E-004
  0.10910000000000003          8.1889040302485228E-004
  0.11020000000000002          8.3327299216762185E-004
  0.11130000000000001          8.4690283983945847E-004
  0.11240000000000000          8.5943064186722040E-004
  0.11349999999999999          8.7081547826528549E-004
  0.11460000000000004          8.8126515038311481E-004
  0.11570000000000003          8.9100282639265060E-004
  0.11680000000000001          8.9998700423166156E-004
  0.11790000000000000          9.0777542209252715E-004
  0.11899999999999999          9.1382587561383843E-004
  0.12009999999999998          9.1786729171872139E-004
  0.12120000000000003          9.2002999735996127E-004
  0.12230000000000002          9.2061323812231421E-004
  0.12340000000000001          9.1977627016603947E-004
  0.12450000000000000          9.1741938376799226E-004
  0.12559999999999999          9.1331393923610449E-004
  0.12670000000000003          9.0744305634871125E-004
  0.12780000000000002          8.9991564163938165E-004
  0.12890000000000001          8.9080590987578034E-004
  0.13000000000000000          8.7995611829683185E-004
  0.13109999999999999          8.6698331870138645E-004
  0.13219999999999998          8.5156492423266172E-004
  0.13330000000000003          8.3371333312243223E-004
  0.13440000000000002          8.1369286635890603E-004
  0.13550000000000001          7.9187005758285522E-004
  0.13660000000000000          7.6847389573231339E-004
  0.13769999999999999          7.4353331001475453E-004
  0.13880000000000003          7.1697408566251397E-004
  0.13990000000000002          6.8866292713209987E-004
  0.14100000000000001          6.5852812258526683E-004
  0.14210000000000000          6.2635343056172132E-004
  0.14319999999999999          5.9180567041039467E-004
  0.14429999999999998          5.5496889399364591E-004
  0.14540000000000003          5.1612476818263531E-004
  0.14650000000000002          4.7591736074537039E-004
  0.14760000000000001          4.3463302426971495E-004
  0.14870000000000000          3.9218144956976175E-004
  0.14979999999999999          3.4821892040781677E-004
  0.15090000000000003          3.0262957443483174E-004
  0.15200000000000002          2.5565296527929604E-004
  0.15310000000000001          2.0776048768311739E-004
  0.15420000000000000          1.5918374992907047E-004
  0.15529999999999999          1.0970333823934197E-004
  0.15639999999999998          5.9055797464679927E-005
  0.15750000000000003          7.1446315814682748E-006
  0.15860000000000002         -4.5396165660349652E-005
  0.15970000000000001         -9.7753400041256100E-005
  0.16080000000000000         -1.4949655451346189E-004
  0.16189999999999999         -2.0090391626581550E-004
  0.16300000000000003         -2.5282034766860306E-004
  0.16410000000000002         -3.0558340949937701E-004
  0.16520000000000001         -3.5878148628398776E-004
  0.16630000000000000         -4.1155333747155964E-004
  0.16739999999999999         -4.6311086043715477E-004
  0.16850000000000004         -5.1342981169000268E-004
  0.16960000000000003         -5.6292145745828748E-004
  0.17070000000000002         -6.1203108634799719E-004
  0.17180000000000001         -6.6070456523448229E-004
  0.17290000000000000         -7.0818391395732760E-004
  0.17399999999999999         -7.5425120303407311E-004
  0.17510000000000003         -7.9871498746797442E-004
  0.17620000000000002         -8.4168702596798539E-004
  0.17730000000000001         -8.8326301192864776E-004
  0.17840000000000000         -9.2323112767189741E-004
  0.17949999999999999         -9.6112745814025402E-004
  0.18060000000000004         -9.9656824022531509E-004
  0.18170000000000003         -1.0297970147803426E-003
  0.18280000000000002         -1.0612106416374445E-003
  0.18390000000000001         -1.0910154087468982E-003
  0.18500000000000000         -1.1190865188837051E-003
  0.18609999999999999         -1.1449424782767892E-003
  0.18720000000000003         -1.1684437049552798E-003
  0.18830000000000002         -1.1894652852788568E-003
  0.18940000000000001         -1.2080436572432518E-003
  0.19050000000000000         -1.2239888310432434E-003
  0.19159999999999999         -1.2371290940791368E-003
  0.19270000000000004         -1.2475355761125684E-003
  0.19380000000000003         -1.2556618312373757E-003
  0.19490000000000002         -1.2619517510756850E-003
  0.19600000000000001         -1.2665564427152276E-003
  0.19710000000000000         -1.2690689181908965E-003
  0.19819999999999999         -1.2690022122114897E-003
  0.19930000000000003         -1.2660688953474164E-003
  0.20040000000000002         -1.2606329983100295E-003
  0.20150000000000001         -1.2530076783150434E-003
  0.20260000000000000         -1.2432649964466691E-003
  0.20369999999999999         -1.2311475584283471E-003
  0.20480000000000004         -1.2164922663941979E-003
  0.20590000000000003         -1.1994984233751893E-003
  0.20700000000000002         -1.1809219140559435E-003
  0.20810000000000001         -1.1614090763032436E-003
  0.20920000000000000         -1.1408418649807572E-003
  0.21029999999999999         -1.1185010662302375E-003
  0.21140000000000003         -1.0938469786196947E-003
  0.21250000000000002         -1.0670288465917110E-003
  0.21360000000000001         -1.0388017399236560E-003
  0.21470000000000000         -1.0100037325173616E-003
  0.21579999999999999         -9.8084064666181803E-004
  0.21690000000000004         -9.5078133745118976E-004
  0.21800000000000003         -9.1922626597806811E-004
  0.21910000000000002         -8.8633649284020066E-004
  0.22020000000000001         -8.5277494508773088E-004
  0.22130000000000000         -8.1894273171201348E-004
  0.22239999999999999         -7.8507844591513276E-004
  0.22350000000000003         -7.5089588062837720E-004
  0.22460000000000002         -7.1583443786948919E-004
  0.22570000000000001         -6.8014784483239055E-004
  0.22680000000000000         -6.4451270736753941E-004
  0.22789999999999999         -6.0949882026761770E-004
  0.22900000000000004         -5.7494227075949311E-004
  0.23010000000000003         -5.4060557158663869E-004
  0.23120000000000002         -5.0603685667738318E-004
  0.23230000000000001         -4.7137451474554837E-004
  0.23340000000000000         -4.3732032645493746E-004
  0.23450000000000004         -4.0431652450934052E-004
  0.23560000000000003         -3.7235431955195963E-004
  0.23670000000000002         -3.4095274168066680E-004
  0.23780000000000001         -3.0974240507930517E-004
  0.23890000000000000         -2.7909525670111179E-004
  0.23999999999999999         -2.4949279031716287E-004
  0.24110000000000004         -2.2118772903922945E-004
  0.24220000000000003         -1.9430351676419377E-004
  0.24330000000000002         -1.6849781968630850E-004
  0.24440000000000001         -1.4372957230079919E-004
  0.24550000000000000         -1.2019353016512468E-004
  0.24660000000000004         -9.8124481155537069E-005
  0.24770000000000003         -7.7296368544921279E-005
  0.24880000000000002         -5.7210603699786589E-005
  0.24990000000000001         -3.7551773857558146E-005
  0.25100000000000000         -1.8506223568692803E-005
  0.25209999999999999         -8.7301287976515596E-007
  0.25320000000000004          1.4693181583425030E-005
  0.25430000000000003          2.8305954401730560E-005
  0.25540000000000002          4.0404313040198758E-005
  0.25650000000000001          5.1470397011144087E-005
  0.25760000000000000          6.1624770751222968E-005
  0.25870000000000004          7.0466776378452778E-005
  0.25980000000000003          7.8005701652728021E-005
  0.26090000000000002          8.4541570686269552E-005
  0.26200000000000001          9.0617337264120579E-005
  0.26310000000000000          9.6286355983465910E-005
  0.26419999999999999          1.0102441592607647E-004
  0.26530000000000004          1.0423902131151408E-004
  0.26640000000000003          1.0541806841501966E-004
  0.26750000000000002          1.0520473733777180E-004
  0.26860000000000001          1.0433845454826951E-004
  0.26970000000000000          1.0333215323043987E-004
  0.27080000000000004          1.0206181468674913E-004
  0.27190000000000003          1.0002234921557829E-004
  0.27300000000000002          9.6805910288821906E-005
  0.27410000000000001          9.2632166342809796E-005
  0.27520000000000000          8.8024673459585756E-005
  0.27629999999999999          8.3001155871897936E-005
  0.27740000000000004          7.7421835158020258E-005
  0.27850000000000003          7.0956280978862196E-005
  0.27960000000000002          6.3768049585632980E-005
  0.28070000000000001          5.6420056353090331E-005
  0.28179999999999999          4.9437036068411544E-005
  0.28290000000000004          4.2853163904510438E-005
  0.28400000000000003          3.6094625102123246E-005
  0.28510000000000002          2.8823404136346653E-005
  0.28620000000000001          2.0947378288838081E-005
  0.28730000000000000          1.2980715837329626E-005
  0.28840000000000005          5.3022217798570637E-006
  0.28950000000000004         -2.1102234768477501E-006
  0.29060000000000002         -9.7130996437044814E-006
  0.29170000000000001         -1.7469090380473062E-005
  0.29280000000000000         -2.4998516892082989E-005
  0.29389999999999999         -3.1851093808654696E-005
  0.29500000000000004         -3.7964036891935393E-005
  0.29610000000000003         -4.3687938159564510E-005
  0.29720000000000002         -4.9528927775099874E-005
  0.29830000000000001         -5.5442371376557276E-005
  0.29940000000000000         -6.0936541558476165E-005
  0.30050000000000004         -6.5631764300633222E-005
  0.30160000000000003         -6.9302994234021753E-005
  0.30270000000000002         -7.2505747084505856E-005
  0.30380000000000001         -7.5633834057953209E-005
  0.30490000000000000         -7.8519398812204599E-005
  0.30599999999999999         -8.0677848018240184E-005
  0.30709999999999998         -8.1401260104030371E-005
  0.30819999999999997         -8.0795027315616608E-005
  0.30930000000000007         -7.9566467320546508E-005
  0.31040000000000006         -7.8366821981035173E-005
  0.31150000000000005         -7.7178563515190035E-005
  0.31260000000000004         -7.5359654147177935E-005
  0.31370000000000003         -7.2190807259175926E-005
  0.31480000000000002         -6.7717606725636870E-005
  0.31590000000000001         -6.2260907725431025E-005
  0.31700000000000000         -5.6375327403657138E-005
  0.31809999999999999         -4.9978902097791433E-005
  0.31919999999999998         -4.2642666812753305E-005
  0.32029999999999997         -3.3790340239647776E-005
  0.32140000000000007         -2.3895398044260219E-005
  0.32250000000000006         -1.3516968465410173E-005
  0.32360000000000005         -3.1972278975445079E-006
  0.32470000000000004          7.1703361754771322E-006
  0.32580000000000003          1.8254630049341358E-005
  0.32690000000000002          3.0540188163286075E-005
  0.32800000000000001          4.4041651563020423E-005
  0.32910000000000000          5.8606212405720726E-005
  0.33019999999999999          7.3903531301766634E-005
  0.33129999999999998          8.9973640569951385E-005
  0.33239999999999997          1.0670637129805982E-004
  0.33350000000000007          1.2406453606672585E-004
  0.33460000000000006          1.4182504673954099E-004
  0.33570000000000005          1.5990059182513505E-004
  0.33680000000000004          1.7840524378698319E-004
  0.33790000000000003          1.9764297758229077E-004
  0.33900000000000002          2.1772128820884973E-004
  0.34010000000000001          2.3843432427383959E-004
  0.34120000000000000          2.5947499671019614E-004
  0.34229999999999999          2.8053973801434040E-004
  0.34339999999999998          3.0160398455336690E-004
  0.34449999999999997          3.2316311262547970E-004
  0.34560000000000007          3.4512579441070557E-004
  0.34670000000000006          3.6723751691170037E-004
  0.34780000000000005          3.8909877184778452E-004
  0.34890000000000004          4.1065440746024251E-004
