 -0.20000000000000001          0.0000000000000000
 -0.19890000000000002          0.0000000000000000
 -0.19780000000000000          0.0000000000000000
 -0.19670000000000001          0.0000000000000000
 -0.19560000000000002          0.0000000000000000
 -0.19450000000000001          0.0000000000000000
 -0.19340000000000002          0.0000000000000000
 -0.19230000000000000          0.0000000000000000
 -0.19120000000000001          0.0000000000000000
 -0.19010000000000002          0.0000000000000000
 -0.18900000000000000          0.0000000000000000
 -0.18790000000000001         -1.1663176557491469E-028
 -0.18680000000000002          1.0431059986674818E-027
 -0.18570000000000000         -2.1659750793165410E-026
 -0.18460000000000001         -8.6866047201945563E-026
 -0.18350000000000000          2.6207623274913963E-025
 -0.18240000000000001          4.1034421760723924E-025
 -0.18130000000000002         -8.8619048482108972E-024
 -0.18020000000000000         -2.5778246777240232E-023
 -0.17910000000000001          6.8886104723397887E-023
 -0.17800000000000002          4.1820058611146820E-022
 -0.17690000000000000          8.7751025385049032E-023
 -0.17580000000000001         -3.6504574992248324E-021
 -0.17470000000000002         -7.9991733733051942E-021
 -0.17360000000000000          1.1584038438790769E-020
 -0.17250000000000001          7.9876598915955084E-020
 -0.17140000000000000          8.8942330408474342E-020
 -0.17030000000000001         -3.0238049996031074E-019
 -0.16920000000000002         -1.1315615712766155E-018
 -0.16810000000000000         -7.0512204815985605E-019
 -0.16700000000000001          4.3068502761068785E-018
 -0.16589999999999999          1.2211301769289599E-017
 -0.16480000000000000          5.0507060904252957E-018
 -0.16370000000000001         -4.3395830537165206E-017
 -0.16260000000000002         -1.0859651921558755E-016
 -0.16150000000000000         -4.2190433170050882E-017
 -0.16040000000000001          3.3768834561754603E-016
 -0.15930000000000000          8.2560343720524017E-016
 -0.15820000000000001          4.0238689265075683E-016
 -0.15710000000000002         -2.0992722686731915E-015
 -0.15600000000000000         -5.4379159459888235E-015
 -0.15490000000000001         -3.6008454789952793E-015
 -0.15379999999999999          1.0436121842464889E-014
 -0.15270000000000000          3.1071130233593577E-014
 -0.15160000000000001          2.7402400146073549E-014
 -0.15050000000000002         -3.9765784523755621E-014
 -0.14940000000000001         -1.5320179207276713E-013
 -0.14830000000000002         -1.7418652512122407E-013
 -0.14720000000000000          9.6518462438990177E-014
 -0.14610000000000001          6.4442358784291831E-013
 -0.14500000000000002          9.2937083810001875E-013
 -0.14390000000000000          4.2690938268198989E-014
 -0.14280000000000001         -2.2591325511689409E-012
 -0.14169999999999999         -4.1868665652533554E-012
 -0.14060000000000000         -2.0642435243772850E-012
 -0.13950000000000001          6.2438292383615313E-012
 -0.13840000000000002          1.5927207469568216E-011
 -0.13730000000000001          1.3926988902401849E-011
 -0.13619999999999999         -1.1276170969187760E-011
 -0.13510000000000000         -5.0605051399310597E-011
 -0.13400000000000001         -6.3886604340090969E-011
 -0.13290000000000002         -2.7766820960561933E-012
 -0.13180000000000000          1.2981721253524370E-010
 -0.13070000000000001          2.2952643952134366E-010
 -0.12959999999999999          1.2861992026991231E-010
 -0.12850000000000000         -2.4226323724896304E-010
 -0.12740000000000001         -6.6714783697463531E-010
 -0.12630000000000002         -6.5612371091816613E-010
 -0.12520000000000001          1.7951762298906715E-010
 -0.12410000000000000          1.5480873249984484E-009
 -0.12300000000000001          2.2505883823242812E-009
 -0.12190000000000001          8.8260143638052568E-010
 -0.12080000000000000         -2.6427804389328458E-009
 -0.11970000000000000         -5.9466316315592849E-009
 -0.11860000000000001         -5.0689372699252999E-009
 -0.11750000000000001          2.1408796957445020E-009
 -0.11640000000000000          1.2256626824580508E-008
 -0.11530000000000000          1.6193538954212272E-008
 -0.11420000000000001          5.4260937965011635E-009
 -0.11310000000000001         -1.8278605296018213E-008
 -0.11200000000000000         -3.8127936363707704E-008
 -0.11090000000000001         -3.0893470892578989E-008
 -0.10980000000000001          1.2368611912449978E-008
 -0.10870000000000000          6.8503311467793537E-008
 -0.10760000000000000          8.7917968016881787E-008
 -0.10650000000000001          3.0864462985391583E-008
 -0.10540000000000001         -8.6818516820130753E-008
 -0.10430000000000000         -1.8066418761009118E-007
 -0.10320000000000000         -1.4723153185514093E-007
 -0.10210000000000001          4.2772327901730023E-008
 -0.10100000000000001          2.8049598199686443E-007
  -9.9900000000000003E-002     3.6138652603767696E-007
  -9.8799999999999999E-002     1.4031000716840936E-007
  -9.7700000000000009E-002    -3.0332591904880246E-007
  -9.6600000000000005E-002    -6.4708751779107843E-007
  -9.5500000000000002E-002    -5.3238306918501621E-007
  -9.4400000000000012E-002     1.1153821333209635E-007
  -9.3300000000000008E-002     8.9053929741567117E-007
  -9.2200000000000004E-002     1.1400557013985235E-006
  -9.1100000000000000E-002     4.4500129092739371E-007
  -9.0000000000000011E-002    -8.8692297595116543E-007
  -8.8900000000000007E-002    -1.8589990986583871E-006
  -8.7800000000000003E-002    -1.4698402992507908E-006
  -8.6699999999999999E-002     3.6874686770715925E-007
  -8.5600000000000009E-002     2.4537341687391745E-006
  -8.4500000000000006E-002     2.9762982194370124E-006
  -8.3400000000000002E-002     9.7802467280416749E-007
  -8.2299999999999998E-002    -2.5156309675367083E-006
  -8.1200000000000008E-002    -4.8172992137551773E-006
  -8.0100000000000005E-002    -3.5002158256247640E-006
  -7.9000000000000001E-002     1.3446182265397510E-006
  -7.7899999999999997E-002     6.4521304921072442E-006
  -7.6800000000000007E-002     7.3736391641432419E-006
  -7.5700000000000003E-002     2.0818793018406723E-006
  -7.4600000000000000E-002    -6.5643512243696023E-006
  -7.3500000000000010E-002    -1.1982808246102650E-005
  -7.2399999999999992E-002    -8.6020636445027776E-006
  -7.1300000000000002E-002     3.0397034151974367E-006
  -7.0200000000000012E-002     1.5176065062405542E-005
  -6.9099999999999995E-002     1.7644470062805340E-005
  -6.8000000000000005E-002     5.9701892496377695E-006
  -6.6900000000000015E-002    -1.3453383871819824E-005
  -6.5799999999999997E-002    -2.6208621420664713E-005
  -6.4700000000000008E-002    -2.0166215108474717E-005
  -6.3599999999999990E-002     3.7892493764957180E-006
  -6.2500000000000000E-002     2.9618428015965037E-005
  -6.1400000000000010E-002     3.6281402572058141E-005
  -6.0299999999999992E-002     1.4297429515863769E-005
  -5.9200000000000003E-002    -2.3869301003287546E-005
  -5.8100000000000013E-002    -4.9658861826173961E-005
  -5.6999999999999995E-002    -3.9007387385936454E-005
  -5.5900000000000005E-002     6.5414028540544678E-006
  -5.4800000000000015E-002     5.5836826504673809E-005
  -5.3699999999999998E-002     6.8142209784127772E-005
  -5.2600000000000008E-002     2.5336832550237887E-005
  -5.1499999999999990E-002    -4.8195015551755205E-005
  -5.0400000000000000E-002    -9.7171505331061780E-005
  -4.9300000000000010E-002    -7.5238836870994419E-005
  -4.8199999999999993E-002     1.4510440450976603E-005
  -4.7100000000000003E-002     1.1195328988833353E-004
  -4.6000000000000013E-002     1.3817682338412851E-004
  -4.4899999999999995E-002     5.6889410188887268E-005
  -4.3800000000000006E-002    -8.7279498984571546E-005
  -4.2699999999999988E-002    -1.8964860646519810E-004
  -4.1599999999999998E-002    -1.5956998686306179E-004
  -4.0500000000000008E-002     3.1667659641243517E-006
  -3.9399999999999991E-002     1.9175700435880572E-004
  -3.8300000000000001E-002     2.5991772417910397E-004
  -3.7200000000000011E-002     1.3327343913260847E-004
  -3.6099999999999993E-002    -1.1851361341541633E-004
  -3.5000000000000003E-002    -3.1415114062838256E-004
  -3.3900000000000013E-002    -2.8873607516288757E-004
  -3.2799999999999996E-002    -2.9180571800679900E-005
  -3.1700000000000006E-002     2.9151304624974728E-004
  -3.0599999999999988E-002     4.2491275235079229E-004
  -2.9499999999999998E-002     2.3583945585414767E-004
  -2.8400000000000009E-002    -1.7151923384517431E-004
  -2.7299999999999991E-002    -5.0159182865172625E-004
  -2.6200000000000001E-002    -4.7704120515845716E-004
  -2.5100000000000011E-002    -6.4912637753877789E-005
  -2.3999999999999994E-002     4.6079186722636223E-004
  -2.2900000000000004E-002     6.9467566208913922E-004
  -2.1800000000000014E-002     4.0688714943826199E-004
  -2.0699999999999996E-002    -2.4681186187081039E-004
  -1.9600000000000006E-002    -7.9492002259939909E-004
  -1.8499999999999989E-002    -7.8379636397585273E-004
  -1.7399999999999999E-002    -1.4419697981793433E-004
  -1.6300000000000009E-002     6.9910252932459116E-004
  -1.5199999999999991E-002     1.0986155830323696E-003
  -1.4100000000000001E-002     6.7176669836044312E-004
  -1.3000000000000012E-002    -3.5612061037681997E-004
  -1.1899999999999994E-002    -1.2480133445933461E-003
  -1.0800000000000004E-002    -1.2733977055177093E-003
  -9.6999999999999864E-003    -2.9129558242857456E-004
  -8.5999999999999965E-003     1.0588204022496939E-003
  -7.5000000000000067E-003     1.7623257590457797E-003
  -6.3999999999999890E-003     1.1856581550091505E-003
  -5.2999999999999992E-003    -3.7390284705907106E-004
  -4.2000000000000093E-003    -1.8092540558427572E-003
  -3.0999999999999917E-003    -1.9835243001580238E-003
  -2.0000000000000018E-003    -6.2972959131002426E-004
  -9.0000000000001190E-004     1.3331412337720394E-003
   2.0000000000000573E-004     2.3932042531669140E-003
   1.2999999999999956E-003     1.5877755358815193E-003
   2.4000000000000132E-003    -6.5044383518397808E-004
   3.5000000000000031E-003    -2.6590919587761164E-003
   4.5999999999999930E-003    -2.7227704413235188E-003
   5.7000000000000106E-003    -4.5233577839098871E-004
   6.8000000000000005E-003     2.7072026859968901E-003
   7.8999999999999904E-003     4.3599870987236500E-003
   9.0000000000000080E-003     2.9178485274314880E-003
   1.0099999999999998E-002    -1.0382067412137985E-003
   1.1199999999999988E-002    -4.9118478782474995E-003
   1.2300000000000005E-002    -5.8279363438487053E-003
   1.3399999999999995E-002    -2.7919092681258917E-003
   1.4500000000000013E-002     2.3499366361647844E-003
   1.5600000000000003E-002     6.0220845043659210E-003
   1.6699999999999993E-002     5.4675075225532055E-003
   1.7800000000000010E-002     9.2012906679883599E-004
   1.8900000000000000E-002    -4.3045980855822563E-003
   1.9999999999999990E-002    -6.0740066692233086E-003
   2.1100000000000008E-002    -2.5458796881139278E-003
   2.2199999999999998E-002     4.1826264932751656E-003
   2.3300000000000015E-002     9.2797083780169487E-003
   2.4400000000000005E-002     8.5706738755106926E-003
   2.5499999999999995E-002     1.7187538323923945E-003
   2.6600000000000013E-002    -7.2423508390784264E-003
   2.7700000000000002E-002    -1.2633722275495529E-002
   2.8799999999999992E-002    -1.1278829537332058E-002
   2.9900000000000010E-002    -5.0069126300513744E-003
   3.1000000000000000E-002     5.2550894906744361E-004
   3.2099999999999990E-002     5.4997672123135999E-005
   3.3200000000000007E-002    -7.0605031214654446E-003
   3.4299999999999997E-002    -1.5883255749940872E-002
   3.5400000000000015E-002    -1.9222822040319443E-002
   3.6500000000000005E-002    -1.3045481406152248E-002
   3.7599999999999995E-002     1.0576614840829279E-005
   3.8700000000000012E-002     1.1848906055092812E-002
   3.9800000000000002E-002     1.4301376417279243E-002
   4.0899999999999992E-002     4.9337563104927540E-003
   4.2000000000000010E-002    -1.1028585024178028E-002
   4.3099999999999999E-002    -2.4263851344585419E-002
   4.4200000000000017E-002    -2.7953099459409714E-002
   4.5300000000000007E-002    -2.2562995553016663E-002
   4.6399999999999997E-002    -1.5158126130700111E-002
   4.7500000000000014E-002    -1.3649913482367992E-002
   4.8600000000000004E-002    -2.0330484956502914E-002
   4.9699999999999994E-002    -2.9789214953780174E-002
   5.0800000000000012E-002    -3.3108424395322800E-002
   5.1900000000000002E-002    -2.5353208184242249E-002
   5.2999999999999992E-002    -1.0537669993937016E-002
   5.4099999999999981E-002     1.7904954438563436E-004
   5.5200000000000027E-002    -3.7253403570502996E-003
   5.6300000000000017E-002    -2.3957367986440659E-002
   5.7400000000000007E-002    -5.1177024841308594E-002
   5.8499999999999996E-002    -7.0929743349552155E-002
   5.9599999999999986E-002    -7.3806397616863251E-002
   6.0700000000000032E-002    -6.2381274998188019E-002
   6.1800000000000022E-002    -4.9498736858367920E-002
   6.2900000000000011E-002    -4.8817712813615799E-002
   6.4000000000000001E-002    -6.4526014029979706E-002
   6.5099999999999991E-002    -8.8127404451370239E-002
   6.6199999999999981E-002   -0.10510928928852081
   6.7300000000000026E-002   -0.10670270770788193
   6.8400000000000016E-002    -9.7660623490810394E-002
   6.9500000000000006E-002    -9.3522034585475922E-002
   7.0599999999999996E-002   -0.10872418433427811
   7.1699999999999986E-002   -0.14432218670845032
   7.2800000000000031E-002   -0.18516530096530914
   7.3900000000000021E-002   -0.20980004966259003
   7.5000000000000011E-002   -0.20667962729930878
   7.6100000000000001E-002   -0.18471710383892059
   7.7199999999999991E-002   -0.16943877935409546
   7.8299999999999981E-002   -0.18620617687702179
   7.9400000000000026E-002   -0.24187438189983368
   8.0500000000000016E-002   -0.31835490465164185
   8.1600000000000006E-002   -0.38365036249160767
   8.2699999999999996E-002   -0.41342836618423462
   8.3799999999999986E-002   -0.40807658433914185
   8.4900000000000031E-002   -0.39280018210411072
   8.6000000000000021E-002   -0.40018922090530396
   8.7100000000000011E-002   -0.44745266437530518
   8.8200000000000001E-002   -0.52473306655883789
   8.9299999999999990E-002   -0.60311990976333618
   9.0399999999999980E-002   -0.65666359663009644
   9.1500000000000026E-002   -0.68224430084228516
   9.2600000000000016E-002   -0.70244687795639038
   9.3700000000000006E-002   -0.74898421764373779
   9.4799999999999995E-002   -0.83872586488723755
   9.5899999999999985E-002   -0.96014195680618286
   9.7000000000000031E-002    -1.0806722640991211
   9.8100000000000021E-002    -1.1700060367584229
   9.9200000000000010E-002    -1.2224004268646240
  0.10030000000000000         -1.2615038156509399
  0.10139999999999999         -1.3238463401794434
  0.10249999999999998         -1.4329869747161865
  0.10360000000000003         -1.5832349061965942
  0.10470000000000002         -1.7450064420700073
  0.10580000000000001         -1.8877210617065430
  0.10690000000000000         -2.0033314228057861
  0.10799999999999998         -2.1126863956451416
  0.10910000000000003         -2.2501790523529053
  0.11020000000000002         -2.4377927780151367
  0.11130000000000001         -2.6681334972381592
  0.11240000000000000         -2.9090731143951416
  0.11349999999999999         -3.1267194747924805
  0.11460000000000004         -3.3099951744079590
  0.11570000000000003         -3.4786436557769775
  0.11680000000000001         -3.6691386699676514
  0.11790000000000000         -3.9092433452606201
  0.11899999999999999         -4.2000713348388672
  0.12009999999999998         -4.5183920860290527
  0.12120000000000003         -4.8368787765502930
  0.12230000000000002         -5.1459488868713379
  0.12340000000000001         -5.4603080749511719
  0.12450000000000000         -5.8057537078857422
  0.12559999999999999         -6.1967129707336426
  0.12670000000000003         -6.6229248046875000
  0.12780000000000002         -7.0561180114746094
  0.12890000000000001         -7.4722766876220703
  0.13000000000000000         -7.8725113868713379
  0.13109999999999999         -8.2853384017944336
  0.13219999999999998         -8.7484140396118164
  0.13330000000000003         -9.2818326950073242
  0.13440000000000002         -9.8739213943481445
  0.13550000000000001         -10.489109992980957
  0.13660000000000000         -11.093512535095215
  0.13769999999999999         -11.679183959960938
  0.13880000000000003         -12.268900871276855
  0.13990000000000002         -12.898919105529785
  0.14100000000000001         -13.593262672424316
  0.14210000000000000         -14.347307205200195
  0.14319999999999999         -15.133775711059570
  0.14429999999999998         -15.925178527832031
  0.14540000000000003         -16.714752197265625
  0.14650000000000002         -17.520957946777344
  0.14760000000000001         -18.371814727783203
  0.14870000000000000         -19.282522201538086
  0.14979999999999999         -20.242862701416016
  0.15090000000000003         -21.224987030029297
  0.15200000000000002         -22.204771041870117
  0.15310000000000001         -23.181228637695312
  0.15420000000000000         -24.178340911865234
  0.15529999999999999         -25.228610992431641
  0.15639999999999998         -26.349517822265625
  0.15750000000000003         -27.532211303710938
  0.15860000000000002         -28.747884750366211
  0.15970000000000001         -29.968843460083008
  0.16080000000000000         -31.185924530029297
  0.16189999999999999         -32.413448333740234
  0.16300000000000003         -33.675270080566406
  0.16410000000000002         -34.986473083496094
  0.16520000000000001         -36.343025207519531
  0.16630000000000000         -37.728233337402344
  0.16739999999999999         -39.126823425292969
  0.16850000000000004         -40.537479400634766
  0.16960000000000003         -41.971790313720703
  0.17070000000000002         -43.442066192626953
  0.17180000000000001         -44.948326110839844
  0.17290000000000000         -46.475547790527344
  0.17399999999999999         -48.004203796386719
  0.17510000000000003         -49.523876190185547
  0.17620000000000002         -51.043537139892578
  0.17730000000000001         -52.583770751953125
  0.17840000000000000         -54.163951873779297
  0.17949999999999999         -55.784954071044922
  0.18060000000000004         -57.430820465087891
  0.18170000000000003         -59.078483581542969
  0.18280000000000002         -60.714977264404297
  0.18390000000000001         -62.340576171875000
  0.18500000000000000         -63.966545104980469
  0.18609999999999999         -65.597274780273438
  0.18720000000000003         -67.227539062500000
  0.18830000000000002         -68.841690063476562
  0.18940000000000001         -70.429252624511719
  0.19050000000000000         -71.995689392089844
  0.19159999999999999         -73.559020996093750
  0.19270000000000004         -75.135665893554688
  0.19380000000000003         -76.727272033691406
  0.19490000000000002         -78.316291809082031
  0.19600000000000001         -79.875595092773438
  0.19710000000000000         -81.388015747070312
  0.19819999999999999         -82.850425720214844
  0.19930000000000003         -84.273437500000000
  0.20040000000000002         -85.674835205078125
  0.20150000000000001         -87.059074401855469
  0.20260000000000000         -88.420143127441406
  0.20369999999999999         -89.744010925292969
  0.20480000000000004         -91.018974304199219
  0.20590000000000003         -92.248634338378906
  0.20700000000000002         -93.439552307128906
  0.20810000000000001         -94.603034973144531
  0.20920000000000000         -95.734649658203125
  0.21029999999999999         -96.820716857910156
  0.21140000000000003         -97.839836120605469
  0.21250000000000002         -98.777732849121094
  0.21360000000000001         -99.646415710449219
  0.21470000000000000         -100.46432495117188
  0.21579999999999999         -101.25525665283203
  0.21690000000000004         -102.02347564697266
  0.21800000000000003         -102.74951171875000
  0.21910000000000002         -103.40492248535156
  0.22020000000000001         -103.97898864746094
  0.22130000000000000         -104.47766113281250
  0.22239999999999999         -104.92063140869141
  0.22350000000000003         -105.32289123535156
  0.22460000000000002         -105.68064880371094
  0.22570000000000001         -105.97409820556641
  0.22680000000000000         -106.18503570556641
  0.22789999999999999         -106.31690216064453
  0.22900000000000004         -106.38615417480469
  0.23010000000000003         -106.41740417480469
  0.23120000000000002         -106.41390228271484
  0.23230000000000001         -106.36687469482422
  0.23340000000000000         -106.25692749023438
  0.23450000000000004         -106.07668304443359
  0.23560000000000003         -105.83123779296875
  0.23670000000000002         -105.53282165527344
  0.23780000000000001         -105.19467926025391
  0.23890000000000000         -104.81491851806641
  0.23999999999999999         -104.39321899414062
  0.24110000000000004         -103.92100524902344
  0.24220000000000003         -103.39881134033203
  0.24330000000000002         -102.83020782470703
  0.24440000000000001         -102.22231292724609
  0.24550000000000000         -101.58495330810547
  0.24660000000000004         -100.92144775390625
  0.24770000000000003         -100.22453308105469
  0.24880000000000002         -99.489196777343750
  0.24990000000000001         -98.712356567382812
  0.25100000000000000         -97.899726867675781
  0.25209999999999999         -97.065422058105469
  0.25320000000000004         -96.226394653320312
  0.25430000000000003         -95.387733459472656
  0.25540000000000002         -94.541152954101562
  0.25650000000000001         -93.675788879394531
  0.25760000000000000         -92.786293029785156
  0.25870000000000004         -91.874885559082031
  0.25980000000000003         -90.956726074218750
  0.26090000000000002         -90.049179077148438
  0.26200000000000001         -89.154472351074219
  0.26310000000000000         -88.254112243652344
  0.26419999999999999         -87.332450866699219
  0.26530000000000004         -86.403732299804688
  0.26640000000000003         -85.496681213378906
  0.26750000000000002         -84.636161804199219
  0.26860000000000001         -83.808982849121094
  0.26970000000000000         -82.987945556640625
  0.27080000000000004         -82.147743225097656
  0.27190000000000003         -81.293182373046875
  0.27300000000000002         -80.457778930664062
  0.27410000000000001         -79.675781250000000
  0.27520000000000000         -78.948173522949219
  0.27629999999999999         -78.247337341308594
  0.27740000000000004         -77.549812316894531
  0.27850000000000003         -76.853271484375000
  0.27960000000000002         -76.183441162109375
  0.28070000000000001         -75.558723449707031
  0.28179999999999999         -74.986747741699219
  0.28290000000000004         -74.447425842285156
  0.28400000000000003         -73.925971984863281
  0.28510000000000002         -73.429931640625000
  0.28620000000000001         -72.963668823242188
  0.28730000000000000         -72.529884338378906
  0.28840000000000005         -72.119178771972656
  0.28950000000000004         -71.723945617675781
  0.29060000000000002         -71.356826782226562
  0.29170000000000001         -71.037841796875000
  0.29280000000000000         -70.782081604003906
  0.29389999999999999         -70.572372436523438
  0.29500000000000004         -70.380836486816406
  0.29610000000000003         -70.177383422851562
  0.29720000000000002         -69.985847473144531
  0.29830000000000001         -69.832000732421875
  0.29940000000000000         -69.738441467285156
  0.30050000000000004         -69.684173583984375
  0.30160000000000003         -69.641319274902344
  0.30270000000000002         -69.590240478515625
  0.30380000000000001         -69.545181274414062
  0.30490000000000000         -69.534500122070312
  0.30599999999999999         -69.572685241699219
  0.30709999999999998         -69.634933471679688
  0.30819999999999997         -69.688835144042969
  0.30930000000000007         -69.719779968261719
  0.31040000000000006         -69.744453430175781
  0.31150000000000005         -69.804252624511719
  0.31260000000000004         -69.914138793945312
  0.31370000000000003         -70.049324035644531
  0.31480000000000002         -70.155899047851562
  0.31590000000000001         -70.210289001464844
  0.31700000000000000         -70.225639343261719
  0.31809999999999999         -70.251296997070312
  0.31919999999999998         -70.329269409179688
  0.32029999999999997         -70.444313049316406
  0.32140000000000007         -70.540695190429688
  0.32250000000000006         -70.569427490234375
  0.32360000000000005         -70.524368286132812
  0.32470000000000004         -70.445907592773438
  0.32580000000000003         -70.367202758789062
  0.32690000000000002         -70.306427001953125
  0.32800000000000001         -70.235214233398438
  0.32910000000000000         -70.116729736328125
  0.33019999999999999         -69.945938110351562
  0.33129999999999998         -69.727882385253906
  0.33239999999999997         -69.469421386718750
  0.33350000000000007         -69.172782897949219
  0.33460000000000006         -68.816719055175781
  0.33570000000000005         -68.410186767578125
  0.33680000000000004         -67.963012695312500
  0.33790000000000003         -67.491531372070312
  0.33900000000000002         -66.986412048339844
  0.34010000000000001         -66.415596008300781
  0.34120000000000000         -65.744842529296875
  0.34229999999999999         -64.970825195312500
  0.34339999999999998         -64.128173828125000
  0.34449999999999997         -63.247581481933594
  0.34560000000000007         -62.353115081787109
  0.34670000000000006         -61.412239074707031
  0.34780000000000005         -60.375595092773438
  0.34890000000000004         -59.225006103515625
