 -0.20000000000000001          0.0000000000000000
 -0.19890000000000002          0.0000000000000000
 -0.19780000000000000          0.0000000000000000
 -0.19670000000000001          0.0000000000000000
 -0.19560000000000002          0.0000000000000000
 -0.19450000000000001          0.0000000000000000
 -0.19340000000000002          0.0000000000000000
 -0.19230000000000000          0.0000000000000000
 -0.19120000000000001          0.0000000000000000
 -0.19010000000000002          0.0000000000000000
 -0.18900000000000000          3.6590299402413424E-024
 -0.18790000000000001         -6.4203792421465984E-023
 -0.18680000000000002         -7.1923450186971831E-022
 -0.18570000000000000         -2.3135427881089486E-021
 -0.18460000000000001          8.1904189041765180E-022
 -0.18350000000000000          2.7338700523441163E-020
 -0.18240000000000001          7.8116106540849354E-020
 -0.18130000000000002          2.9105933128069494E-020
 -0.18020000000000000         -3.9764885566199775E-019
 -0.17910000000000001         -1.1380059286338630E-018
 -0.17800000000000002         -7.5569364776345193E-019
 -0.17690000000000000          3.2333915254172127E-018
 -0.17580000000000001          9.6837802701011435E-018
 -0.17470000000000002          7.2394301271436697E-018
 -0.17360000000000000         -1.9650606856566907E-017
 -0.17250000000000001         -5.8399943862978817E-017
 -0.17140000000000000         -3.6802102559264105E-017
 -0.17030000000000001          1.2226773686339036E-016
 -0.16920000000000002          3.1481644433843019E-016
 -0.16810000000000000          1.2912385976648308E-016
 -0.16700000000000001         -7.9338373325978507E-016
 -0.16589999999999999         -1.8000002818151966E-015
 -0.16480000000000000         -7.1485520284072048E-016
 -0.16370000000000001          4.2814639806848954E-015
 -0.16260000000000002          1.0130742748057191E-014
 -0.16150000000000000          6.4803843816466349E-015
 -0.16040000000000001         -1.6423569047709780E-014
 -0.15930000000000000         -4.8396867297160334E-014
 -0.15820000000000001         -4.6898472789731055E-014
 -0.15710000000000002          3.6425428781095351E-014
 -0.15600000000000000          1.8227811566986357E-013
 -0.15490000000000001          2.4416070294047687E-013
 -0.15379999999999999          1.6978844884414125E-014
 -0.15270000000000000         -5.1925103756664259E-013
 -0.15160000000000001         -9.5214916680241846E-013
 -0.15050000000000002         -5.5340627913569307E-013
 -0.14940000000000001          1.0229720716348201E-012
 -0.14830000000000002          2.8654251280763043E-012
 -0.14720000000000000          2.8090381583301127E-012
 -0.14610000000000001         -8.5210245977240806E-013
 -0.14500000000000002         -6.7066460891773705E-012
 -0.14390000000000000         -9.3365619055485460E-012
 -0.14280000000000001         -2.8662465196421794E-012
 -0.14169999999999999          1.2016670644654504E-011
 -0.14060000000000000          2.3811237703785793E-011
 -0.13950000000000001          1.6230398969252491E-011
 -0.13840000000000002         -1.5407897180352847E-011
 -0.13730000000000001         -5.0297981057934038E-011
 -0.13619999999999999         -4.9637377541600358E-011
 -0.13510000000000000          9.0075984865434222E-012
 -0.13400000000000001          9.4164419317532833E-011
 -0.13290000000000002          1.2290655992952537E-010
 -0.13180000000000000          2.6032689892652172E-011
 -0.13070000000000001         -1.6201549823957606E-010
 -0.12959999999999999         -2.7931487678323208E-010
 -0.12850000000000000         -1.4661370728585865E-010
 -0.12740000000000001          2.3689861183839866E-010
 -0.12630000000000002          5.8776150613226719E-010
 -0.12520000000000001          4.9419707215392350E-010
 -0.12410000000000000         -1.9680893026396973E-010
 -0.12300000000000001         -1.0688927520874358E-009
 -0.12190000000000001         -1.2865143395046630E-009
 -0.12080000000000000         -2.7819457848465845E-010
 -0.11970000000000000          1.5226921945554750E-009
 -0.11860000000000001          2.6483284454315026E-009
 -0.11750000000000001          1.6441883410323044E-009
 -0.11640000000000000         -1.4215856269927940E-009
 -0.11530000000000000         -4.3652406134242483E-009
 -0.11420000000000001         -4.2207815020844919E-009
 -0.11310000000000001          7.7559257627424216E-011
 -0.11200000000000000          5.8748645948014655E-009
 -0.11090000000000001          8.0345117225988361E-009
 -0.10980000000000001          3.1433011749015805E-009
 -0.10870000000000000         -6.4701835000846586E-009
 -0.10760000000000000         -1.3017233513323845E-008
 -0.10650000000000001         -9.0633571758758080E-009
 -0.10540000000000001          5.0263566642172464E-009
 -0.10430000000000000          1.8863309136918360E-008
 -0.10320000000000000          1.8945108593015902E-008
 -0.10210000000000001          8.1621354119931766E-010
 -0.10100000000000001         -2.3801872472972718E-008
  -9.9900000000000003E-002    -3.3400713306264151E-008
  -9.8799999999999999E-002    -1.4411630111510476E-008
  -9.7700000000000009E-002     2.3564203033288322E-008
  -9.6600000000000005E-002     5.0350998037629324E-008
  -9.5500000000000002E-002     3.8020335324517873E-008
  -9.4400000000000012E-002    -1.2358221113117906E-008
  -9.3300000000000008E-002    -6.4286702183835587E-008
  -9.2200000000000004E-002    -7.0834275334163976E-008
  -9.1100000000000000E-002    -1.5300182454325295E-008
  -9.0000000000000011E-002     6.6558357048052130E-008
  -8.8900000000000007E-002     1.0739036326867790E-007
  -8.7800000000000003E-002     6.2359873709283420E-008
  -8.6699999999999999E-002    -4.6007212262111352E-008
  -8.5600000000000009E-002    -1.3482133454090217E-007
  -8.4500000000000006E-002    -1.2325203613272606E-007
  -8.3400000000000002E-002    -4.3714742936629136E-009
  -8.2299999999999998E-002     1.3625547978790564E-007
  -8.1200000000000008E-002     1.8073585295041994E-007
  -8.0100000000000005E-002     7.7002816567528498E-008
  -7.9000000000000001E-002    -1.0598068911349401E-007
  -7.7899999999999997E-002    -2.2092315532518114E-007
  -7.6800000000000007E-002    -1.5924253204957495E-007
  -7.5700000000000003E-002     4.9622965292428489E-008
  -7.4600000000000000E-002     2.4525789399376663E-007
  -7.3500000000000010E-002     2.5698420813569101E-007
  -7.2399999999999992E-002     4.8290946352835817E-008
  -7.1300000000000002E-002    -2.3550978767161723E-007
  -7.0200000000000012E-002    -3.6742343922924192E-007
  -6.9099999999999995E-002    -2.1806016547998297E-007
  -6.8000000000000005E-002     1.2733525522889977E-007
  -6.6900000000000015E-002     4.1626680058470811E-007
  -6.5799999999999997E-002     4.1608799961068144E-007
  -6.4700000000000008E-002     1.0060765731623178E-007
  -6.3599999999999990E-002    -3.1307385484069528E-007
  -6.2500000000000000E-002    -5.1651198873514659E-007
  -6.1400000000000010E-002    -3.4285804417777399E-007
  -6.0299999999999992E-002     9.5771298447289155E-008
  -5.9200000000000003E-002     4.7755077048350358E-007
  -5.8100000000000013E-002     5.0469782308937283E-007
  -5.6999999999999995E-002     1.3286253874866816E-007
  -5.5900000000000005E-002    -3.7733403246420494E-007
  -5.4800000000000015E-002    -6.3609030576117220E-007
  -5.3699999999999998E-002    -4.1120603100353037E-007
  -5.2600000000000008E-002     1.7983703060053813E-007
  -5.1499999999999990E-002     7.2350627533523948E-007
  -5.0400000000000000E-002     7.9236093597501167E-007
  -4.9300000000000010E-002     2.6825392751561594E-007
  -4.8199999999999993E-002    -5.3121493692742661E-007
  -4.7100000000000003E-002    -1.0415304814159754E-006
  -4.6000000000000013E-002    -8.5106847791394102E-007
  -4.4899999999999995E-002    -3.2890412171582284E-008
  -4.3800000000000006E-002     8.5663867821494932E-007
  -4.2699999999999988E-002     1.1553659078344936E-006
  -4.1599999999999998E-002     6.0145265479150112E-007
  -4.0500000000000008E-002    -4.1766833192014019E-007
  -3.9399999999999991E-002    -1.1074754411311005E-006
  -3.8300000000000001E-002    -8.6802413079567486E-007
  -3.7200000000000011E-002     1.8910272103767056E-007
  -3.6099999999999993E-002     1.2441975059118704E-006
  -3.5000000000000003E-002     1.3579000324170920E-006
  -3.3900000000000013E-002     2.3437983998064738E-007
  -3.2799999999999996E-002    -1.4467514120042324E-006
  -3.1700000000000006E-002    -2.4523935735487612E-006
  -3.0599999999999988E-002    -1.9117599094897741E-006
  -2.9499999999999998E-002    -3.6645612766506019E-008
  -2.8400000000000009E-002     1.9477970454317983E-006
  -2.7299999999999991E-002     2.6673949378164252E-006
  -2.6200000000000001E-002     1.6276375163215562E-006
  -2.5100000000000011E-002    -3.9155472109086986E-007
  -2.3999999999999994E-002    -1.9086417069047457E-006
  -2.2900000000000004E-002    -1.8635217884366284E-006
  -2.1800000000000014E-002    -4.2905381292257516E-007
  -2.0699999999999996E-002     1.1255066283410997E-006
  -1.9600000000000006E-002     1.4264970786825870E-006
  -1.8499999999999989E-002     8.5623554468838847E-008
  -1.7399999999999999E-002    -1.9524027266015764E-006
  -1.6300000000000009E-002    -3.0829976367385825E-006
  -1.5199999999999991E-002    -2.2437880033976398E-006
  -1.4100000000000001E-002     2.4364453565794975E-007
  -1.3000000000000012E-002     2.8201332042954164E-006
  -1.1899999999999994E-002     3.7375295960373478E-006
  -1.0800000000000004E-002     2.2790836737840436E-006
  -9.6999999999999864E-003    -7.0502011340067838E-007
  -8.5999999999999965E-003    -3.3365483886882430E-006
  -7.5000000000000067E-003    -3.9758042476023547E-006
  -6.3999999999999890E-003    -2.3578757009090623E-006
  -5.2999999999999992E-003     2.0180705462280457E-007
  -4.2000000000000093E-003     1.7224358543899143E-006
  -3.0999999999999917E-003     1.0004320074585848E-006
  -2.0000000000000018E-003    -1.4399945484910859E-006
  -9.0000000000001190E-004    -3.6385113162396010E-006
   2.0000000000000573E-004    -3.6267879295337480E-006
   1.2999999999999956E-003    -1.0081666914629750E-006
   2.4000000000000132E-003     2.5273495793953771E-006
   3.5000000000000031E-003     4.2780839066836052E-006
   4.5999999999999930E-003     2.5266799639211968E-006
   5.7000000000000106E-003    -2.0191778276057448E-006
   6.8000000000000005E-003    -6.5328185883117840E-006
   7.8999999999999904E-003    -8.0371282820124179E-006
   9.0000000000000080E-003    -5.6201888583018444E-006
   1.0099999999999998E-002    -1.1810901696662768E-006
   1.1199999999999988E-002     1.9492147202981869E-006
   1.2300000000000005E-002     1.5123030152608408E-006
   1.3399999999999995E-002    -1.9767510366364149E-006
   1.4500000000000013E-002    -5.6753992794256192E-006
   1.5600000000000003E-002    -6.6692850850813556E-006
   1.6699999999999993E-002    -4.2722404032247141E-006
   1.7800000000000010E-002    -5.7149895837937947E-007
   1.8900000000000000E-002     1.1864457292176667E-006
   1.9999999999999990E-002    -9.0850357992167119E-007
   2.1100000000000008E-002    -5.9696162679756526E-006
   2.2199999999999998E-002    -1.0950365322059952E-005
   2.3300000000000015E-002    -1.2829689694626722E-005
   2.4400000000000005E-002    -1.0704221494961530E-005
   2.5499999999999995E-002    -6.3297352426161524E-006
   2.6600000000000013E-002    -2.8484394078986952E-006
   2.7700000000000002E-002    -2.6795153189596022E-006
   2.8799999999999992E-002    -6.0063621276640333E-006
   2.9900000000000010E-002    -1.0776097951747943E-005
   3.1000000000000000E-002    -1.4132147953205276E-005
   3.2099999999999990E-002    -1.4332515092974063E-005
   3.3200000000000007E-002    -1.1943046956730541E-005
   3.4299999999999997E-002    -9.5103323474177159E-006
   3.5400000000000015E-002    -9.8344225989421830E-006
   3.6500000000000005E-002    -1.3903824765293393E-005
   3.7599999999999995E-002    -1.9951350623159669E-005
   3.8700000000000012E-002    -2.4491066142218187E-005
   3.9800000000000002E-002    -2.4822298655635677E-005
   4.0899999999999992E-002    -2.1237348846625537E-005
   4.2000000000000010E-002    -1.7122456483775750E-005
   4.3099999999999999E-002    -1.6592066458542831E-005
   4.4200000000000017E-002    -2.1309051589923911E-005
   4.5300000000000007E-002    -2.9015282052569091E-005
   4.6399999999999997E-002    -3.5136294172843918E-005
   4.7500000000000014E-002    -3.6369106965139508E-005
   4.8600000000000004E-002    -3.3384487323928624E-005
   4.9699999999999994E-002    -3.0364604754140601E-005
   5.0800000000000012E-002    -3.1668812880525365E-005
   5.1900000000000002E-002    -3.8328915252350271E-005
   5.2999999999999992E-002    -4.7277811972890049E-005
   5.4099999999999981E-002    -5.3894545999355614E-005
   5.5200000000000027E-002    -5.5681957746855915E-005
   5.6300000000000017E-002    -5.4024301789468154E-005
   5.7400000000000007E-002    -5.2762341510970145E-005
   5.8499999999999996E-002    -5.5024527682689950E-005
   5.9599999999999986E-002    -6.1028760683257133E-005
   6.0700000000000032E-002    -6.8479486799333245E-005
   6.1800000000000022E-002    -7.4755655077751726E-005
   6.2900000000000011E-002    -7.8838704212103039E-005
   6.4000000000000001E-002    -8.1562480772845447E-005
   6.5099999999999991E-002    -8.4490500739775598E-005
   6.6199999999999981E-002    -8.8772118033375591E-005
   6.7300000000000026E-002    -9.4815331976860762E-005
   6.8400000000000016E-002    -1.0243517317576334E-004
   6.9500000000000006E-002    -1.1087590974057093E-004
   7.0599999999999996E-002    -1.1871720926137641E-004
   7.1699999999999986E-002    -1.2436335964594036E-004
   7.2800000000000031E-002    -1.2733653420582414E-004
   7.3900000000000021E-002    -1.2932090612594038E-004
   7.5000000000000011E-002    -1.3355948613025248E-004
   7.6100000000000001E-002    -1.4239890151657164E-004
   7.7199999999999991E-002    -1.5495784464292228E-004
   7.8299999999999981E-002    -1.6728733316995203E-004
   7.9400000000000026E-002    -1.7554448277223855E-004
   8.0500000000000016E-002    -1.7961260164156556E-004
   8.1600000000000006E-002    -1.8366718722973019E-004
   8.2699999999999996E-002    -1.9264941511210054E-004
   8.3799999999999986E-002    -2.0759913604706526E-004
   8.4900000000000031E-002    -2.2412321413867176E-004
   8.6000000000000021E-002    -2.3607039474882185E-004
   8.7100000000000011E-002    -2.4113336985465139E-004
   8.8200000000000001E-002    -2.4329865118488669E-004
   8.9299999999999990E-002    -2.4957521236501634E-004
   9.0399999999999980E-002    -2.6383460499346256E-004
   9.1500000000000026E-002    -2.8333329828456044E-004
   9.2600000000000016E-002    -3.0138817965053022E-004
   9.3700000000000006E-002    -3.1354816746897995E-004
   9.4799999999999995E-002    -3.2144770375452936E-004
   9.5899999999999985E-002    -3.3062987495213747E-004
   9.7000000000000031E-002    -3.4472628613002598E-004
   9.8100000000000021E-002    -3.6193311098031700E-004
   9.9200000000000010E-002    -3.7713765050284564E-004
  0.10030000000000000         -3.8750626845285296E-004
  0.10139999999999999         -3.9580027805641294E-004
  0.10249999999999998         -4.0756785892881453E-004
  0.10360000000000003         -4.2533923988230526E-004
  0.10470000000000002         -4.4573357445187867E-004
  0.10580000000000001         -4.6270972234196961E-004
  0.10690000000000000         -4.7382581396959722E-004
  0.10799999999999998         -4.8310539568774402E-004
  0.10910000000000003         -4.9686298007145524E-004
  0.11020000000000002         -5.1717093447223306E-004
  0.11130000000000001         -5.3904432570561767E-004
  0.11240000000000000         -5.5545533541589975E-004
  0.11349999999999999         -5.6444806978106499E-004
  0.11460000000000004         -5.7196966372430325E-004
  0.11570000000000003         -5.8591505512595177E-004
  0.11680000000000001         -6.0817546909675002E-004
  0.11790000000000000         -6.3206645427271724E-004
  0.11899999999999999         -6.4885744359344244E-004
  0.12009999999999998         -6.5672147320583463E-004
  0.12120000000000003         -6.6311343107372522E-004
  0.12230000000000002         -6.7730073351413012E-004
  0.12340000000000001         -7.0078024873510003E-004
  0.12450000000000000         -7.2484120028093457E-004
  0.12559999999999999         -7.3889648774638772E-004
  0.12670000000000003         -7.4115209281444550E-004
  0.12780000000000002         -7.4138760101050138E-004
  0.12890000000000001         -7.5173465302214026E-004
  0.13000000000000000         -7.7465089270845056E-004
  0.13109999999999999         -7.9979508882388473E-004
  0.13219999999999998         -8.1404024967923760E-004
  0.13330000000000003         -8.1435759784653783E-004
  0.13440000000000002         -8.1102014519274235E-004
  0.13550000000000001         -8.1740936730057001E-004
  0.13660000000000000         -8.3608523709699512E-004
  0.13769999999999999         -8.5609348025172949E-004
  0.13880000000000003         -8.6345564341172576E-004
  0.13990000000000002         -8.5606001084670424E-004
  0.14100000000000001         -8.4642728324979544E-004
  0.14210000000000000         -8.4981089457869530E-004
  0.14319999999999999         -8.6822453886270523E-004
  0.14429999999999998         -8.8743207743391395E-004
  0.14540000000000003         -8.9026230853050947E-004
  0.14650000000000002         -8.7367428932338953E-004
  0.14760000000000001         -8.5278128972277045E-004
  0.14870000000000000         -8.4599776891991496E-004
  0.14979999999999999         -8.5709081031382084E-004
  0.15090000000000003         -8.7061076192185283E-004
  0.15200000000000002         -8.6755270604044199E-004
  0.15310000000000001         -8.4377522580325603E-004
  0.15420000000000000         -8.1434269668534398E-004
  0.15529999999999999         -7.9871859634295106E-004
  0.15639999999999998         -8.0059666652232409E-004
  0.15750000000000003         -8.0406619235873222E-004
  0.15860000000000002         -7.8965828288346529E-004
  0.15970000000000001         -7.5439893407747149E-004
  0.16080000000000000         -7.1518361801281571E-004
  0.16189999999999999         -6.9195864489302039E-004
  0.16300000000000003         -6.8707851460203528E-004
  0.16410000000000002         -6.8206188734620810E-004
  0.16520000000000001         -6.5548310521990061E-004
  0.16630000000000000         -6.0592259978875518E-004
  0.16739999999999999         -5.5293325567618012E-004
  0.16850000000000004         -5.1893619820475578E-004
  0.16960000000000003         -5.0567666767165065E-004
  0.17070000000000002         -4.9206084804609418E-004
  0.17180000000000001         -4.5451745972968638E-004
  0.17290000000000000         -3.9070632192306221E-004
  0.17399999999999999         -3.2195815583691001E-004
  0.17510000000000003         -2.7292387676425278E-004
  0.17620000000000002         -2.4632518761791289E-004
  0.17730000000000001         -2.1997791191097349E-004
  0.17840000000000000         -1.6951856378000230E-004
  0.17949999999999999         -9.2522052000276744E-005
  0.18060000000000004         -1.3178166227589827E-005
  0.18170000000000003          4.3614360038191080E-005
  0.18280000000000002          7.7765107562299818E-005
  0.18390000000000001          1.1424875265220180E-004
  0.18500000000000000          1.7979598487727344E-004
  0.18609999999999999          2.7447551838122308E-004
  0.18720000000000003          3.7127273390069604E-004
  0.18830000000000002          4.4154725037515163E-004
  0.18940000000000001          4.8397344653494656E-004
  0.19050000000000000          5.2667275303974748E-004
  0.19159999999999999          5.9873220743611455E-004
  0.19270000000000004          7.0152984699234366E-004
  0.19380000000000003          8.0861715832725167E-004
  0.19490000000000002          8.9073699200525880E-004
  0.19600000000000001          9.4567227642983198E-004
  0.19710000000000000          1.0002006310969591E-003
  0.19819999999999999          1.0824037017300725E-003
  0.19930000000000003          1.1942634591832757E-003
  0.20040000000000002          1.3065391685813665E-003
  0.20150000000000001          1.3905615778639913E-003
  0.20260000000000000          1.4457589713856578E-003
  0.20369999999999999          1.5030362410470843E-003
  0.20480000000000004          1.5914730029180646E-003
  0.20590000000000003          1.7110421322286129E-003
  0.20700000000000002          1.8306999700143933E-003
  0.20810000000000001          1.9176158821210265E-003
  0.20920000000000000          1.9720881246030331E-003
  0.21029999999999999          2.0243613980710506E-003
  0.21140000000000003          2.1075806580483913E-003
  0.21250000000000002          2.2223340347409248E-003
  0.21360000000000001          2.3376932367682457E-003
  0.21470000000000000          2.4223702494055033E-003
  0.21579999999999999          2.4744770489633083E-003
  0.21690000000000004          2.5241044349968433E-003
  0.21800000000000003          2.6001443620771170E-003
  0.21910000000000002          2.7037016116082668E-003
  0.22020000000000001          2.8036201838403940E-003
  0.22130000000000000          2.8708816971629858E-003
  0.22239999999999999          2.9059366788715124E-003
  0.22350000000000003          2.9406805988401175E-003
  0.22460000000000002          3.0049891211092472E-003
  0.22570000000000001          3.0971204396337271E-003
  0.22680000000000000          3.1838610302656889E-003
  0.22789999999999999          3.2328139059245586E-003
  0.22900000000000004          3.2456014305353165E-003
  0.23010000000000003          3.2548750750720501E-003
  0.23120000000000002          3.2924439292401075E-003
  0.23230000000000001          3.3566926140338182E-003
  0.23340000000000000          3.4158579073846340E-003
  0.23450000000000004          3.4402068704366684E-003
  0.23560000000000003          3.4297034144401550E-003
  0.23670000000000002          3.4142590593546629E-003
  0.23780000000000001          3.4240067470818758E-003
  0.23890000000000000          3.4559692721813917E-003
  0.23999999999999999          3.4788569901138544E-003
  0.24110000000000004          3.4655251074582338E-003
  0.24220000000000003          3.4186879638582468E-003
  0.24330000000000002          3.3698978368192911E-003
  0.24440000000000001          3.3463465515524149E-003
  0.24550000000000000          3.3440587576478720E-003
  0.24660000000000004          3.3342316746711731E-003
  0.24770000000000003          3.2888867426663637E-003
  0.24880000000000002          3.2093075569719076E-003
  0.24990000000000001          3.1236486975103617E-003
  0.25100000000000000          3.0591394752264023E-003
  0.25209999999999999          3.0152376275509596E-003
  0.25320000000000004          2.9660242144018412E-003
  0.25430000000000003          2.8864371124655008E-003
  0.25540000000000002          2.7772665489464998E-003
  0.25650000000000001          2.6624253951013088E-003
  0.25760000000000000          2.5648144073784351E-003
  0.25870000000000004          2.4831828195601702E-003
  0.25980000000000003          2.3951439652591944E-003
  0.26090000000000002          2.2795959375798702E-003
  0.26200000000000001          2.1383315324783325E-003
  0.26310000000000000          1.9942326471209526E-003
  0.26419999999999999          1.8684441456571221E-003
  0.26530000000000004          1.7594661330804229E-003
  0.26640000000000003          1.6458684112876654E-003
  0.26750000000000002          1.5075093833729625E-003
  0.26860000000000001          1.3455221196636558E-003
  0.26970000000000000          1.1800869833678007E-003
  0.27080000000000004          1.0306738549843431E-003
  0.27190000000000003          8.9780805865302682E-004
  0.27300000000000002          7.6432008063420653E-004
  0.27410000000000001          6.1281275702640414E-004
  0.27520000000000000          4.4304554467089474E-004
  0.27629999999999999          2.7134598349221051E-004
  0.27740000000000004          1.1394765169825405E-004
  0.27850000000000003         -2.8028243832523003E-005
  0.27960000000000002         -1.6908725956454873E-004
  0.28070000000000001         -3.2450127764604986E-004
  0.28179999999999999         -4.9440504517406225E-004
  0.28290000000000004         -6.6467456053942442E-004
  0.28400000000000003         -8.2040688721463084E-004
  0.28510000000000002         -9.5865689218044281E-004
  0.28620000000000001         -1.0908875847235322E-003
  0.28730000000000000         -1.2315970379859209E-003
  0.28840000000000005         -1.3841157779097557E-003
  0.28950000000000004         -1.5390916960313916E-003
  0.29060000000000002         -1.6824022168293595E-003
  0.29170000000000001         -1.8079899018630385E-003
  0.29280000000000000         -1.9227450247853994E-003
  0.29389999999999999         -2.0389116834849119E-003
  0.29500000000000004         -2.1623400971293449E-003
  0.29610000000000003         -2.2881331387907267E-003
  0.29720000000000002         -2.4051025975495577E-003
  0.29830000000000001         -2.5061629712581635E-003
  0.29940000000000000         -2.5940928608179092E-003
  0.30050000000000004         -2.6785698719322681E-003
  0.30160000000000003         -2.7672450523823500E-003
  0.30270000000000002         -2.8582673985511065E-003
  0.30380000000000001         -2.9431267175823450E-003
  0.30490000000000000         -3.0119328293949366E-003
  0.30599999999999999         -3.0639262404292822E-003
  0.30709999999999998         -3.1074422877281904E-003
  0.30819999999999997         -3.1540510244667530E-003
  0.30930000000000007         -3.2070600427687168E-003
  0.31040000000000006         -3.2582890707999468E-003
  0.31150000000000005         -3.2947182189673185E-003
  0.31260000000000004         -3.3107064664363861E-003
  0.31370000000000003         -3.3139765728265047E-003
  0.31480000000000002         -3.3177547156810760E-003
  0.31590000000000001         -3.3291284926235676E-003
  0.31700000000000000         -3.3413905184715986E-003
  0.31809999999999999         -3.3407837618142366E-003
  0.31919999999999998         -3.3202180638909340E-003
  0.32029999999999997         -3.2868448179215193E-003
  0.32140000000000007         -3.2555882353335619E-003
  0.32250000000000006         -3.2346865627914667E-003
  0.32360000000000005         -3.2173050567507744E-003
  0.32470000000000004         -3.1872829422354698E-003
  0.32580000000000003         -3.1355754472315311E-003
  0.32690000000000002         -3.0692785512655973E-003
  0.32800000000000001         -3.0060308054089546E-003
  0.32910000000000000         -2.9557517264038324E-003
  0.33019999999999999         -2.9122622217983007E-003
  0.33129999999999998         -2.8577968478202820E-003
  0.33239999999999997         -2.7818966191262007E-003
  0.33350000000000007         -2.6926225982606411E-003
  0.33460000000000006         -2.6090866886079311E-003
  0.33570000000000005         -2.5408384390175343E-003
  0.33680000000000004         -2.4808794260025024E-003
  0.33790000000000003         -2.4100109003484249E-003
  0.33900000000000002         -2.3183666635304689E-003
  0.34010000000000001         -2.2150042932480574E-003
  0.34120000000000000         -2.1198356989771128E-003
  0.34229999999999999         -2.0447352435439825E-003
  0.34339999999999998         -1.9788735080510378E-003
  0.34449999999999997         -1.9003198249265552E-003
  0.34560000000000007         -1.7988324398174882E-003
  0.34670000000000006         -1.6867348458617926E-003
  0.34780000000000005         -1.5874464297667146E-003
  0.34890000000000004         -1.5119056915864348E-003
