 -0.20000000000000001          0.0000000000000000
 -0.19890000000000002          0.0000000000000000
 -0.19780000000000000          0.0000000000000000
 -0.19670000000000001          0.0000000000000000
 -0.19560000000000002          0.0000000000000000
 -0.19450000000000001          0.0000000000000000
 -0.19340000000000002          0.0000000000000000
 -0.19230000000000000          0.0000000000000000
 -0.19120000000000001          0.0000000000000000
 -0.19010000000000002          2.2380726041459737E-022
 -0.18900000000000000          1.6006688022982676E-021
 -0.18790000000000001          1.0990706793726598E-020
 -0.18680000000000002          5.7042717546129174E-020
 -0.18570000000000000          1.4727082266863477E-019
 -0.18460000000000001          4.0880913771247198E-020
 -0.18350000000000000         -6.9420936453117366E-019
 -0.18240000000000001         -1.0291351047466243E-018
 -0.18130000000000002          3.0273050592687606E-018
 -0.18020000000000000          1.0298789055534320E-017
 -0.17910000000000001         -4.2772425868514617E-018
 -0.17800000000000002         -7.1366344071882348E-017
 -0.17690000000000000         -1.0662245599245220E-016
 -0.17580000000000001          1.8236140251374296E-016
 -0.17470000000000002          8.9703838432840521E-016
 -0.17360000000000000          9.1954203803370224E-016
 -0.17250000000000001         -2.1336825586389238E-015
 -0.17140000000000000         -8.0359963881794158E-015
 -0.17030000000000001         -7.3976503362719465E-015
 -0.16920000000000002          1.5597427321066559E-014
 -0.16810000000000000          5.6600523692853372E-014
 -0.16700000000000001          5.5631328265814267E-014
 -0.16589999999999999         -7.9239627283778785E-014
 -0.16480000000000000         -3.2566242996572015E-013
 -0.16370000000000001         -3.7199266562058797E-013
 -0.16260000000000002          2.6205998634142025E-013
 -0.16150000000000000          1.5457449773284559E-012
 -0.16040000000000001          2.1287383748097577E-012
 -0.15930000000000000         -2.4134573462994413E-013
 -0.15820000000000001         -5.9907604051112617E-012
 -0.15710000000000002         -1.0241591429094310E-011
 -0.15600000000000000         -3.6264910345529255E-012
 -0.15490000000000001          1.8225984957376262E-011
 -0.15379999999999999          4.1019986019019683E-011
 -0.15270000000000000          3.0712595661119835E-011
 -0.15160000000000001         -3.8257796236562669E-011
 -0.15050000000000002         -1.3481014915495138E-010
 -0.14940000000000001         -1.5269525921457472E-010
 -0.14830000000000002          1.9935948725180452E-011
 -0.14720000000000000          3.5105368612065035E-010
 -0.14610000000000001          5.6336818543556433E-010
 -0.14500000000000002          2.6420340915045415E-010
 -0.14390000000000000         -6.5303151774998014E-010
 -0.14280000000000001         -1.6160747184912339E-009
 -0.14169999999999999         -1.4961354377618363E-009
 -0.14060000000000000          4.8347925662994840E-010
 -0.13950000000000001          3.5383058705207304E-009
 -0.13840000000000002          5.0306661059096314E-009
 -0.13730000000000001          2.1107815495469140E-009
 -0.13619999999999999         -5.2331028399521529E-009
 -0.13510000000000000         -1.2206700539252324E-008
 -0.13400000000000001         -1.1215877115944295E-008
 -0.13290000000000002          1.8470307505680239E-009
 -0.13180000000000000          2.1195669219764568E-008
 -0.13070000000000001          3.1299975944421021E-008
 -0.12959999999999999          1.7066668078768998E-008
 -0.12850000000000000         -2.1008709438774531E-008
 -0.12740000000000001         -5.9382980310829225E-008
 -0.12630000000000002         -6.2764478059307294E-008
 -0.12520000000000001         -1.1827289370103244E-008
 -0.12410000000000000          7.1966219650221319E-008
 -0.12300000000000001          1.2899339196792425E-007
 -0.12190000000000001          9.9879933657121001E-008
 -0.12080000000000000         -2.2182936376680118E-008
 -0.11970000000000000         -1.6755815579472255E-007
 -0.11860000000000001         -2.2527859755427926E-007
 -0.11750000000000001         -1.2428613160864188E-007
 -0.11640000000000000          9.6780134128948703E-008
 -0.11530000000000000          2.9440812454595289E-007
 -0.11420000000000001          3.1370800002150645E-007
 -0.11310000000000001          1.1105188946203270E-007
 -0.11200000000000000         -1.9191070066426619E-007
 -0.11090000000000001         -3.8152299453031446E-007
 -0.10980000000000001         -3.1286077728509554E-007
 -0.10870000000000000         -3.5170192091982244E-008
 -0.10760000000000000          2.3167868334894592E-007
 -0.10650000000000001          2.7232593424741935E-007
 -0.10540000000000001          7.1017026925801474E-008
 -0.10430000000000000         -1.4740082576736313E-007
 -0.10320000000000000         -9.9175608170298801E-008
 -0.10210000000000001          2.7488073328640894E-007
 -0.10100000000000001          6.6747975324688014E-007
  -9.9900000000000003E-002     5.7968122746387962E-007
  -9.8799999999999999E-002    -2.5393183022970334E-007
  -9.7700000000000009E-002    -1.4998942106103641E-006
  -9.6600000000000005E-002    -2.2664307834929787E-006
  -9.5500000000000002E-002    -1.6451436977149569E-006
  -9.4400000000000012E-002     5.4450202924272162E-007
  -9.3300000000000008E-002     3.3501967209303984E-006
  -9.2200000000000004E-002     5.0289900173083879E-006
  -9.1100000000000000E-002     4.0623231143399607E-006
  -9.0000000000000011E-002     2.5217772758878709E-007
  -8.8900000000000007E-002    -4.8551933105045464E-006
  -8.7800000000000003E-002    -8.6052159531391226E-006
  -8.6699999999999999E-002    -8.6351510617532767E-006
  -8.5600000000000009E-002    -4.2188953557342757E-006
  -8.4500000000000006E-002     3.2382831705035642E-006
  -8.3400000000000002E-002     1.0787923201860394E-005
  -8.2299999999999998E-002     1.5174172403931152E-005
  -8.1200000000000008E-002     1.4018856745678931E-005
  -8.0100000000000005E-002     6.5541125877643935E-006
  -7.9000000000000001E-002    -6.0029442465747707E-006
  -7.7899999999999997E-002    -2.0206212866469286E-005
  -7.6800000000000007E-002    -3.0475941457552835E-005
  -7.5700000000000003E-002    -3.0285631510196254E-005
  -7.4600000000000000E-002    -1.5030414942884818E-005
  -7.3500000000000010E-002     1.4078998901823070E-005
  -7.2399999999999992E-002     4.7413199354195967E-005
  -7.1300000000000002E-002     6.8514447775669396E-005
  -7.0200000000000012E-002     6.1105667555239052E-005
  -6.9099999999999995E-002     1.9154991605319083E-005
  -6.8000000000000005E-002    -4.5694141590502113E-005
  -6.6900000000000015E-002    -1.0531380394240841E-004
  -6.5799999999999997E-002    -1.2688599235843867E-004
  -6.4700000000000008E-002    -9.0656329120974988E-005
  -6.3599999999999990E-002    -3.8569578464375809E-006
  -6.2500000000000000E-002     9.8642958619166166E-005
  -6.1400000000000010E-002     1.6963572124950588E-004
  -6.0299999999999992E-002     1.7375877359881997E-004
  -5.9200000000000003E-002     1.0692590149119496E-004
  -5.8100000000000013E-002    -1.1120707767986460E-006
  -5.6999999999999995E-002    -1.0352423851145431E-004
  -5.5900000000000005E-002    -1.6266366583295166E-004
  -5.4800000000000015E-002    -1.6925213276408613E-004
  -5.3699999999999998E-002    -1.4185678446665406E-004
  -5.2600000000000008E-002    -1.0708459012676030E-004
  -5.1499999999999990E-002    -7.4816467531491071E-005
  -5.0400000000000000E-002    -2.7678031983668916E-005
  -4.9300000000000010E-002     6.4809682953637093E-005
  -4.8199999999999993E-002     2.1467544138431549E-004
  -4.7100000000000003E-002     3.8868590490892529E-004
  -4.6000000000000013E-002     5.0909031415358186E-004
  -4.4899999999999995E-002     4.8859277740120888E-004
  -4.3800000000000006E-002     2.8247511363588274E-004
  -4.2699999999999988E-002    -7.4651208706200123E-005
  -4.1599999999999998E-002    -4.7500981600023806E-004
  -4.0500000000000008E-002    -7.8957615187391639E-004
  -3.9399999999999991E-002    -9.3847326934337616E-004
  -3.8300000000000001E-002    -9.3655672390013933E-004
  -3.7200000000000011E-002    -8.8093965314328671E-004
  -3.6099999999999993E-002    -8.7941356468945742E-004
  -3.5000000000000003E-002    -9.5498177688568830E-004
  -3.3900000000000013E-002    -9.8054285626858473E-004
  -3.2799999999999996E-002    -6.8715284578502178E-004
  -3.1700000000000006E-002     2.4610979016870260E-004
  -3.0599999999999988E-002     2.0543911959975958E-003
  -2.9499999999999998E-002     4.7613456845283508E-003
  -2.8400000000000009E-002     8.1225428730249405E-003
  -2.7299999999999991E-002     1.1664811521768570E-002
  -2.6200000000000001E-002     1.4806220307946205E-002
  -2.5100000000000011E-002     1.7008565366268158E-002
  -2.3999999999999994E-002     1.7906818538904190E-002
  -2.2900000000000004E-002     1.7379792407155037E-002
  -2.1800000000000014E-002     1.5560009516775608E-002
  -2.0699999999999996E-002     1.2807272374629974E-002
  -1.9600000000000006E-002     9.6725625917315483E-003
  -1.8499999999999989E-002     6.8572955206036568E-003
  -1.7399999999999999E-002     5.1448252052068710E-003
  -1.6300000000000009E-002     5.2726315334439278E-003
  -1.5199999999999991E-002     7.7399909496307373E-003
  -1.4100000000000001E-002     1.2598497793078423E-002
  -1.3000000000000012E-002     1.9319724291563034E-002
  -1.1899999999999994E-002     2.6839010417461395E-002
  -1.0800000000000004E-002     3.3817954361438751E-002
  -9.6999999999999864E-003     3.9067529141902924E-002
  -8.5999999999999965E-003     4.1978478431701660E-002
  -7.5000000000000067E-003     4.2770221829414368E-002
  -6.3999999999999890E-003     4.2427789419889450E-002
  -5.2999999999999992E-003     4.2331349104642868E-002
  -4.2000000000000093E-003     4.3733920902013779E-002
  -3.0999999999999917E-003     4.7328360378742218E-002
  -2.0000000000000018E-003     5.3109772503376007E-002
  -9.0000000000001190E-004     6.0588996857404709E-002
   2.0000000000000573E-004     6.9221124053001404E-002
   1.2999999999999956E-003     7.8788682818412781E-002
   2.4000000000000132E-003     8.9502006769180298E-002
   3.5000000000000031E-003    0.10174930095672607
   4.5999999999999930E-003    0.11565392464399338
   5.7000000000000106E-003    0.13073676824569702
   6.8000000000000005E-003    0.14594477415084839
   7.8999999999999904E-003    0.16009700298309326
   9.0000000000000080E-003    0.17254254221916199
   1.0099999999999998E-002    0.18367061018943787
   1.1199999999999988E-002    0.19496893882751465
   1.2300000000000005E-002    0.20855990052223206
   1.3399999999999995E-002    0.22642271220684052
   1.4500000000000013E-002    0.24967309832572937
   1.5600000000000003E-002    0.27823048830032349
   1.6699999999999993E-002    0.31099405884742737
   1.7800000000000010E-002    0.34639349579811096
   1.8900000000000000E-002    0.38303303718566895
   1.9999999999999990E-002    0.42015144228935242
   2.1100000000000008E-002    0.45777019858360291
   2.2199999999999998E-002    0.49657547473907471
   2.3300000000000015E-002    0.53768050670623779
   2.4400000000000005E-002    0.58239775896072388
   2.5499999999999995E-002    0.63205778598785400
   2.6600000000000013E-002    0.68782502412796021
   2.7700000000000002E-002    0.75046169757843018
   2.8799999999999992E-002    0.82006913423538208
   2.9900000000000010E-002    0.89595949649810791
   3.1000000000000000E-002    0.97682452201843262
   3.2099999999999990E-002     1.0612677335739136
   3.3200000000000007E-002     1.1485488414764404
   3.4299999999999997E-002     1.2392132282257080
   3.5400000000000015E-002     1.3352451324462891
   3.6500000000000005E-002     1.4395953416824341
   3.7599999999999995E-002     1.5552134513854980
   3.8700000000000012E-002     1.6840151548385620
   3.9800000000000002E-002     1.8262603282928467
   4.0899999999999992E-002     1.9806329011917114
   4.2000000000000010E-002     2.1449790000915527
   4.3099999999999999E-002     2.3173706531524658
   4.4200000000000017E-002     2.4970221519470215
   4.5300000000000007E-002     2.6846921443939209
   4.6399999999999997E-002     2.8824708461761475
   4.7500000000000014E-002     3.0930883884429932
   4.8600000000000004E-002     3.3191154003143311
   4.9699999999999994E-002     3.5623679161071777
   5.0800000000000012E-002     3.8237597942352295
   5.1900000000000002E-002     4.1035404205322266
   5.2999999999999992E-002     4.4017691612243652
   5.4099999999999981E-002     4.7186803817749023
   5.5200000000000027E-002     5.0548253059387207
   5.6300000000000017E-002     5.4109210968017578
   5.7400000000000007E-002     5.7875895500183105
   5.8499999999999996E-002     6.1852073669433594
   5.9599999999999986E-002     6.6040124893188477
   6.0700000000000032E-002     7.0444145202636719
   6.1800000000000022E-002     7.5073471069335938
   6.2900000000000011E-002     7.9944686889648438
   6.4000000000000001E-002     8.5080537796020508
   6.5099999999999991E-002     9.0506153106689453
   6.6199999999999981E-002     9.6244068145751953
   6.7300000000000026E-002     10.230954170227051
   6.8400000000000016E-002     10.870873451232910
   6.9500000000000006E-002     11.543945312500000
   7.0599999999999996E-002     12.249573707580566
   7.1699999999999986E-002     12.987297058105469
   7.2800000000000031E-002     13.757264137268066
   7.3900000000000021E-002     14.560430526733398
   7.5000000000000011E-002     15.398483276367188
   7.6100000000000001E-002     16.273513793945312
   7.7199999999999991E-002     17.187669754028320
   7.8299999999999981E-002     18.142814636230469
   7.9400000000000026E-002     19.140426635742188
   8.0500000000000016E-002     20.181493759155273
   8.1600000000000006E-002     21.266517639160156
   8.2699999999999996E-002     22.395610809326172
   8.3799999999999986E-002     23.568668365478516
   8.4900000000000031E-002     24.785627365112305
   8.6000000000000021E-002     26.046684265136719
   8.7100000000000011E-002     27.352357864379883
   8.8200000000000001E-002     28.703435897827148
   8.9299999999999990E-002     30.100755691528320
   9.0399999999999980E-002     31.545116424560547
   9.1500000000000026E-002     33.037166595458984
   9.2600000000000016E-002     34.577499389648438
   9.3700000000000006E-002     36.166595458984375
   9.4799999999999995E-002     37.804618835449219
   9.5899999999999985E-002     39.491302490234375
   9.7000000000000031E-002     41.225917816162109
   9.8100000000000021E-002     43.007308959960938
   9.9200000000000010E-002     44.834297180175781
  0.10030000000000000          46.705707550048828
  0.10139999999999999          48.620746612548828
  0.10249999999999998          50.579124450683594
  0.10360000000000003          52.580848693847656
  0.10470000000000002          54.626224517822266
  0.10580000000000001          56.715496063232422
  0.10690000000000000          58.848487854003906
  0.10799999999999998          61.023986816406250
  0.10910000000000003          63.239650726318359
  0.11020000000000002          65.492210388183594
  0.11130000000000001          67.778083801269531
  0.11240000000000000          70.093734741210938
  0.11349999999999999          72.436111450195312
  0.11460000000000004          74.803184509277344
  0.11570000000000003          77.193305969238281
  0.11680000000000001          79.605415344238281
  0.11790000000000000          82.038406372070312
  0.11899999999999999          84.491020202636719
  0.12009999999999998          86.961212158203125
  0.12120000000000003          89.446319580078125
  0.12230000000000002          91.942596435546875
  0.12340000000000001          94.445899963378906
  0.12450000000000000          96.951713562011719
  0.12559999999999999          99.456192016601562
  0.12670000000000003          101.95523834228516
  0.12780000000000002          104.44509887695312
  0.12890000000000001          106.92202758789062
  0.13000000000000000          109.38220977783203
  0.13109999999999999          111.82235717773438
  0.13219999999999998          114.23951721191406
  0.13330000000000003          116.63114929199219
  0.13440000000000002          118.99443054199219
  0.13550000000000001          121.32601928710938
  0.13660000000000000          123.62114715576172
  0.13769999999999999          125.87490844726562
  0.13880000000000003          128.08216857910156
  0.13990000000000002          130.23786926269531
  0.14100000000000001          132.33734130859375
  0.14210000000000000          134.37744140625000
  0.14319999999999999          136.35528564453125
  0.14429999999999998          138.26904296875000
  0.14540000000000003          140.11671447753906
  0.14650000000000002          141.89613342285156
  0.14760000000000001          143.60414123535156
  0.14870000000000000          145.23696899414062
  0.14979999999999999          146.79034423828125
  0.15090000000000003          148.25971984863281
  0.15200000000000002          149.64146423339844
  0.15310000000000001          150.93167114257812
  0.15420000000000000          152.12742614746094
  0.15529999999999999          153.22662353515625
  0.15639999999999998          154.22843933105469
  0.15750000000000003          155.13256835937500
  0.15860000000000002          155.93844604492188
  0.15970000000000001          156.64501953125000
  0.16080000000000000          157.25083923339844
  0.16189999999999999          157.75413513183594
  0.16300000000000003          158.15345764160156
  0.16410000000000002          158.44853210449219
  0.16520000000000001          158.63832092285156
  0.16630000000000000          158.72221374511719
  0.16739999999999999          158.70002746582031
  0.16850000000000004          158.57202148437500
  0.16960000000000003          158.33932495117188
  0.17070000000000002          158.00405883789062
  0.17180000000000001          157.56782531738281
  0.17290000000000000          157.03059387207031
  0.17399999999999999          156.39314270019531
  0.17510000000000003          155.65620422363281
  0.17620000000000002          154.82180786132812
  0.17730000000000001          153.89237976074219
  0.17840000000000000          152.87034606933594
  0.17949999999999999          151.75775146484375
  0.18060000000000004          150.55636596679688
  0.18170000000000003          149.26980590820312
  0.18280000000000002          147.90240478515625
  0.18390000000000001          146.45883178710938
  0.18500000000000000          144.94367980957031
  0.18609999999999999          143.35841369628906
  0.18720000000000003          141.70549011230469
  0.18830000000000002          139.98768615722656
  0.18940000000000001          138.20884704589844
  0.19050000000000000          136.37374877929688
  0.19159999999999999          134.48733520507812
  0.19270000000000004          132.55165100097656
  0.19380000000000003          130.56997680664062
  0.19490000000000002          128.54614257812500
  0.19600000000000001          126.48571014404297
  0.19710000000000000          124.39566040039062
  0.19819999999999999          122.28040313720703
  0.19930000000000003          120.14320373535156
  0.20040000000000002          117.98467254638672
  0.20150000000000001          115.80756378173828
  0.20260000000000000          113.61732482910156
  0.20369999999999999          111.42050933837891
  0.20480000000000004          109.22303009033203
  0.20590000000000003          107.02861022949219
  0.20700000000000002          104.83775329589844
  0.20810000000000001          102.65285491943359
  0.20920000000000000          100.47875213623047
  0.21029999999999999          98.322708129882812
  0.21140000000000003          96.189071655273438
  0.21250000000000002          94.079185485839844
  0.21360000000000001          91.992942810058594
  0.21470000000000000          89.930389404296875
  0.21579999999999999          87.896820068359375
  0.21690000000000004          85.898788452148438
  0.21800000000000003          83.940422058105469
  0.21910000000000002          82.021583557128906
  0.22020000000000001          80.140266418457031
  0.22130000000000000          78.297004699707031
  0.22239999999999999          76.495239257812500
  0.22350000000000003          74.742843627929688
  0.22460000000000002          73.043052673339844
  0.22570000000000001          71.397094726562500
  0.22680000000000000          69.801368713378906
  0.22789999999999999          68.253578186035156
  0.22900000000000004          66.756866455078125
  0.23010000000000003          65.315223693847656
  0.23120000000000002          63.933132171630859
  0.23230000000000001          62.607582092285156
  0.23340000000000000          61.335441589355469
  0.23450000000000004          60.112842559814453
  0.23560000000000003          58.941749572753906
  0.23670000000000002          57.827320098876953
  0.23780000000000001          56.773300170898438
  0.23890000000000000          55.778339385986328
  0.23999999999999999          54.836235046386719
  0.24110000000000004          53.942199707031250
  0.24220000000000003          53.096969604492188
  0.24330000000000002          52.304718017578125
  0.24440000000000001          51.569377899169922
  0.24550000000000000          50.889045715332031
  0.24660000000000004          50.257884979248047
  0.24770000000000003          49.668045043945312
  0.24880000000000002          49.119026184082031
  0.24990000000000001          48.617275238037109
  0.25100000000000000          48.166728973388672
  0.25209999999999999          47.767444610595703
  0.25320000000000004          47.411128997802734
  0.25430000000000003          47.092021942138672
  0.25540000000000002          46.805633544921875
  0.25650000000000001          46.555217742919922
  0.25760000000000000          46.344955444335938
  0.25870000000000004          46.173488616943359
  0.25980000000000003          46.035114288330078
  0.26090000000000002          45.923198699951172
  0.26200000000000001          45.835041046142578
  0.26310000000000000          45.775924682617188
  0.26419999999999999          45.749954223632812
  0.26530000000000004          45.759838104248047
  0.26640000000000003          45.795936584472656
  0.26750000000000002          45.851432800292969
  0.26860000000000001          45.920680999755859
  0.26970000000000000          46.005954742431641
  0.27080000000000004          46.111915588378906
  0.27190000000000003          46.240589141845703
  0.27300000000000002          46.386825561523438
  0.27410000000000001          46.545333862304688
  0.27520000000000000          46.711826324462891
  0.27629999999999999          46.889614105224609
  0.27740000000000004          47.084960937500000
  0.27850000000000003          47.299274444580078
  0.27960000000000002          47.526729583740234
  0.28070000000000001          47.758602142333984
  0.28179999999999999          47.988941192626953
  0.28290000000000004          48.219772338867188
  0.28400000000000003          48.456985473632812
  0.28510000000000002          48.704574584960938
  0.28620000000000001          48.960819244384766
  0.28730000000000000          49.218967437744141
  0.28840000000000005          49.474353790283203
  0.28950000000000004          49.729125976562500
  0.29060000000000002          49.987030029296875
  0.29170000000000001          50.252914428710938
  0.29280000000000000          50.523216247558594
  0.29389999999999999          50.789901733398438
  0.29500000000000004          51.048725128173828
  0.29610000000000003          51.300426483154297
  0.29720000000000002          51.551391601562500
  0.29830000000000001          51.805244445800781
  0.29940000000000000          52.062164306640625
  0.30050000000000004          52.317184448242188
  0.30160000000000003          52.564464569091797
  0.30270000000000002          52.803215026855469
  0.30380000000000001          53.038402557373047
  0.30490000000000000          53.273838043212891
  0.30599999999999999          53.513259887695312
  0.30709999999999998          53.751148223876953
  0.30819999999999997          53.982410430908203
  0.30930000000000007          54.204708099365234
  0.31040000000000006          54.421478271484375
  0.31150000000000005          54.636039733886719
  0.31260000000000004          54.848819732666016
  0.31370000000000003          55.057792663574219
  0.31480000000000002          55.259094238281250
  0.31590000000000001          55.450817108154297
  0.31700000000000000          55.637935638427734
  0.31809999999999999          55.824687957763672
  0.31919999999999998          56.013221740722656
  0.32029999999999997          56.202117919921875
  0.32140000000000007          56.387889862060547
  0.32250000000000006          56.566841125488281
  0.32360000000000005          56.740150451660156
  0.32470000000000004          56.910507202148438
  0.32580000000000003          57.080253601074219
  0.32690000000000002          57.249202728271484
  0.32800000000000001          57.414527893066406
  0.32910000000000000          57.570644378662109
  0.33019999999999999          57.719886779785156
  0.33129999999999998          57.867530822753906
  0.33239999999999997          58.017818450927734
  0.33350000000000007          58.173133850097656
  0.33460000000000006          58.331279754638672
  0.33570000000000005          58.486412048339844
  0.33680000000000004          58.637187957763672
  0.33790000000000003          58.782993316650391
  0.33900000000000002          58.927997589111328
  0.34010000000000001          59.075149536132812
  0.34120000000000000          59.224514007568359
  0.34229999999999999          59.371852874755859
  0.34339999999999998          59.516674041748047
  0.34449999999999997          59.661312103271484
  0.34560000000000007          59.809753417968750
  0.34670000000000006          59.965381622314453
  0.34780000000000005          60.125793457031250
  0.34890000000000004          60.289463043212891
