 -0.20000000000000001          0.0000000000000000
 -0.19890000000000002          0.0000000000000000
 -0.19780000000000000          0.0000000000000000
 -0.19670000000000001          0.0000000000000000
 -0.19560000000000002          0.0000000000000000
 -0.19450000000000001          0.0000000000000000
 -0.19340000000000002          0.0000000000000000
 -0.19230000000000000          0.0000000000000000
 -0.19120000000000001          1.4086652221723003E-030
 -0.19010000000000002          3.1107181108974070E-029
 -0.18900000000000000          2.8901660303441494E-028
 -0.18790000000000001          1.4963368258170800E-027
 -0.18680000000000002          4.8061497021265918E-027
 -0.18570000000000000          9.7276995857769112E-027
 -0.18460000000000001          1.0604481504075134E-026
 -0.18350000000000000         -3.5212347248495372E-027
 -0.18240000000000001         -4.4946311499195386E-026
 -0.18130000000000002         -1.2004599293575215E-025
 -0.18020000000000000         -1.6606273937952587E-025
 -0.17910000000000001          1.4527884297679747E-025
 -0.17800000000000002          1.3923797296212521E-024
 -0.17690000000000000          2.9956359814891483E-024
 -0.17580000000000001          2.6288932647529290E-025
 -0.17470000000000002         -1.4330865300524668E-023
 -0.17360000000000000         -3.4680758240547381E-023
 -0.17250000000000001         -1.5074661737674024E-023
 -0.17140000000000000          1.1147207911593210E-022
 -0.17030000000000001          2.9918401800284511E-022
 -0.16920000000000002          2.1082189047351395E-022
 -0.16810000000000000         -6.3958615714300741E-022
 -0.16700000000000001         -2.0331715754609121E-021
 -0.16589999999999999         -1.9776941308185647E-021
 -0.16480000000000000          2.5533221720695409E-021
 -0.16370000000000001          1.1125858735412386E-020
 -0.16260000000000002          1.4082879175686008E-020
 -0.16150000000000000         -4.9411581384273257E-021
 -0.16040000000000001         -4.8967874110440283E-020
 -0.15930000000000000         -7.9585541200261523E-020
 -0.15820000000000001         -2.0162070219821158E-020
 -0.15710000000000002          1.6804662697564046E-019
 -0.15600000000000000          3.6349286210966984E-019
 -0.15490000000000001          2.5799310941131443E-019
 -0.15379999999999999         -4.0112983847477402E-019
 -0.15270000000000000         -1.3405537161218132E-018
 -0.15160000000000001         -1.5110157880342910E-018
 -0.15050000000000002          2.9686023259425568E-019
 -0.14940000000000001          3.8800842234433137E-018
 -0.14830000000000002          6.3004899692092150E-018
 -0.14720000000000000          2.9535976832211511E-018
 -0.14610000000000001         -7.9510957943342796E-018
 -0.14500000000000002         -2.0117757107506230E-017
 -0.14390000000000000         -1.9310011930625748E-017
 -0.14280000000000001          6.1626796112063492E-018
 -0.14169999999999999          4.8507568494726502E-017
 -0.14060000000000000          7.2457851903537921E-017
 -0.13950000000000001          3.3616798765167356E-017
 -0.13840000000000002         -7.7095483021208324E-017
 -0.13730000000000001         -1.9427416652815604E-016
 -0.13619999999999999         -1.9337538516178042E-016
 -0.13510000000000000          1.6111059656421874E-017
 -0.13400000000000001          3.6708703280195027E-016
 -0.13290000000000002          5.9462432875257050E-016
 -0.13180000000000000          3.7844246237195983E-016
 -0.13070000000000001         -3.6323636808417302E-016
 -0.12959999999999999         -1.2380009093337831E-015
 -0.12850000000000000         -1.4773973018206740E-015
 -0.12740000000000001         -4.6597119431163419E-016
 -0.12630000000000002          1.5775647711850074E-015
 -0.12520000000000001          3.3458083054999825E-015
 -0.12410000000000000          3.0817227025456417E-015
 -0.12300000000000001         -3.9635000942633662E-017
 -0.12190000000000001         -4.7075431524939634E-015
 -0.12080000000000000         -7.6322217114539216E-015
 -0.11970000000000000         -5.5280211933353678E-015
 -0.11860000000000001          2.0546592550995443E-015
 -0.11750000000000001          1.1178357332386046E-014
 -0.11640000000000000          1.5086763015628203E-014
 -0.11530000000000000          8.7174699696292851E-015
 -0.11420000000000001         -6.5931071027507636E-015
 -0.11310000000000001         -2.2056050155748810E-014
 -0.11200000000000000         -2.6050084940727747E-014
 -0.11090000000000001         -1.2355128347545184E-014
 -0.10980000000000001          1.3616676349296163E-014
 -0.10870000000000000          3.6092863317212578E-014
 -0.10760000000000000          3.8533690398679515E-014
 -0.10650000000000001          1.5843387054224368E-014
 -0.10540000000000001         -1.9888787611190700E-014
 -0.10430000000000000         -4.5893305567487955E-014
 -0.10320000000000000         -4.4460783118300748E-014
 -0.10210000000000001         -1.6778890898753486E-014
 -0.10100000000000001          1.6755841438192802E-014
  -9.9900000000000003E-002     3.2115765803046939E-014
  -9.8799999999999999E-002     2.2232163552076030E-014
  -9.7700000000000009E-002     5.0363244966848773E-015
  -9.6600000000000005E-002     8.6869640780339215E-015
  -9.5500000000000002E-002     4.2122897644979521E-014
  -9.4400000000000012E-002     7.5276868343344266E-014
  -9.3300000000000008E-002     5.2263081422266808E-014
  -9.2200000000000004E-002    -6.1672218167833220E-014
  -9.1100000000000000E-002    -2.2963027963493476E-013
  -9.0000000000000011E-002    -3.3445826403549761E-013
  -8.8900000000000007E-002    -2.3896618191188157E-013
  -8.7800000000000003E-002     1.0621664409560944E-013
  -8.6699999999999999E-002     5.7618883622656547E-013
  -8.5600000000000009E-002     8.8509446083059884E-013
  -8.4500000000000006E-002     7.2896441487280139E-013
  -8.3400000000000002E-002     5.6148691754832458E-016
  -8.2299999999999998E-002    -1.0539037090945280E-012
  -8.1200000000000008E-002    -1.8675516862132202E-012
  -8.0100000000000005E-002    -1.8158880432314617E-012
  -7.9000000000000001E-002    -6.0677439635281605E-013
  -7.7899999999999997E-002     1.4202138813937393E-012
  -7.6800000000000007E-002     3.3042839298058624E-012
  -7.5700000000000003E-002     3.8647318852114143E-012
  -7.4600000000000000E-002     2.3512218647742111E-012
  -7.3500000000000010E-002    -9.8678064417573319E-013
  -7.2399999999999992E-002    -4.7725048739344356E-012
  -7.1300000000000002E-002    -7.0001344130987686E-012
  -7.0200000000000012E-002    -6.0181000807735252E-012
  -6.9099999999999995E-002    -1.5437942807797200E-012
  -6.8000000000000005E-002     4.8617845860299269E-012
  -6.6900000000000015E-002     1.0245879665526925E-011
  -6.5799999999999997E-002     1.1583730502584544E-011
  -6.4700000000000008E-002     7.4028118704494439E-012
  -6.3599999999999990E-002    -1.1398396332698568E-012
  -6.2500000000000000E-002    -1.0437442576893829E-011
  -6.1400000000000010E-002    -1.5999340741146284E-011
  -6.0299999999999992E-002    -1.4754721749943300E-011
  -5.9200000000000003E-002    -6.8909500501590504E-012
  -5.8100000000000013E-002     3.9264355655710403E-012
  -5.6999999999999995E-002     1.2343410148163425E-011
  -5.5900000000000005E-002     1.4345667015414065E-011
  -5.4800000000000015E-002     9.8301748685525325E-012
  -5.3699999999999998E-002     2.9851394793556363E-012
  -5.2600000000000008E-002    -1.7966262700654101E-013
  -5.1499999999999990E-002     3.9408159895060191E-012
  -5.0400000000000000E-002     1.3083047666062608E-011
  -4.9300000000000010E-002     1.9005984286390998E-011
  -4.8199999999999993E-002     1.1681370280791636E-011
  -4.7100000000000003E-002    -1.3939030485410342E-011
  -4.6000000000000013E-002    -5.2433550556951758E-011
  -4.4899999999999995E-002    -8.7607116006083174E-011
  -4.3800000000000006E-002    -9.8782440560718499E-011
  -4.2699999999999988E-002    -7.1175891569463801E-011
  -4.1599999999999998E-002    -4.8248354096724899E-012
  -4.0500000000000008E-002     8.3448421783760551E-011
  -3.9399999999999991E-002     1.6698943616777484E-010
  -3.8300000000000001E-002     2.2180109138236759E-010
  -3.7200000000000011E-002     2.3731061560283706E-010
  -3.6099999999999993E-002     2.1847913755923543E-010
  -3.5000000000000003E-002     1.7720311329405547E-010
  -3.3900000000000013E-002     1.1779907604925199E-010
  -3.2799999999999996E-002     2.5931826130864977E-011
  -3.1700000000000006E-002    -1.3061106363121411E-010
  -3.0599999999999988E-002    -3.8739292329559305E-010
  -2.9499999999999998E-002    -7.6159056838775996E-010
  -2.8400000000000009E-002    -1.2347832756276489E-009
  -2.7299999999999991E-002    -1.7504144800284394E-009
  -2.6200000000000001E-002    -2.2282722333955007E-009
  -2.5100000000000011E-002    -2.5889759225350417E-009
  -2.3999999999999994E-002    -2.7764097687565936E-009
  -2.2900000000000004E-002    -2.7685884695927143E-009
  -2.1800000000000014E-002    -2.5758193356040238E-009
  -2.0699999999999996E-002    -2.2333603855173578E-009
  -1.9600000000000006E-002    -1.7979365773967970E-009
  -1.8499999999999989E-002    -1.3514690477833824E-009
  -1.7399999999999999E-002    -1.0052677579253100E-009
  -1.6300000000000009E-002    -8.9160373528685000E-010
  -1.5199999999999991E-002    -1.1333382010647597E-009
  -1.4100000000000001E-002    -1.7959854714533208E-009
  -1.3000000000000012E-002    -2.8425266584974906E-009
  -1.1899999999999994E-002    -4.1184113896974850E-009
  -1.0800000000000004E-002    -5.3852309278568100E-009
  -9.6999999999999864E-003    -6.3986447251807022E-009
  -8.5999999999999965E-003    -7.0009660291248110E-009
  -7.5000000000000067E-003    -7.1862329420468996E-009
  -6.3999999999999890E-003    -7.1048309457921732E-009
  -5.2999999999999992E-003    -7.0028769449947958E-009
  -4.2000000000000093E-003    -7.1242771682022976E-009
  -3.0999999999999917E-003    -7.6225727951850786E-009
  -2.0000000000000018E-003    -8.5240392522223374E-009
  -9.0000000000001190E-004    -9.7554604394645139E-009
   2.0000000000000573E-004    -1.1214869921616355E-008
   1.2999999999999956E-003    -1.2841078422809460E-008
   2.4000000000000132E-003    -1.4640850309888265E-008
   3.5000000000000031E-003    -1.6659498669469031E-008
   4.5999999999999930E-003    -1.8915995880774972E-008
   5.7000000000000106E-003    -2.1346949097278412E-008
   6.8000000000000005E-003    -2.3800946991059391E-008
   7.8999999999999904E-003    -2.6096802940855923E-008
   9.0000000000000080E-003    -2.8121483808263292E-008
   1.0099999999999998E-002    -2.9917355703901194E-008
   1.1199999999999988E-002    -3.1709099346244329E-008
   1.2300000000000005E-002    -3.3848682079451464E-008
   1.3399999999999995E-002    -3.6697386462947179E-008
   1.4500000000000013E-002    -4.0495624631375904E-008
   1.5600000000000003E-002    -4.5277676719024385E-008
   1.6699999999999993E-002    -5.0867118517317067E-008
   1.7800000000000010E-002    -5.6951556359763345E-008
   1.8900000000000000E-002    -6.3201959221714787E-008
   1.9999999999999990E-002    -6.9387887435823359E-008
   2.1100000000000008E-002    -7.5449115399806033E-008
   2.2199999999999998E-002    -8.1508112259598420E-008
   2.3300000000000015E-002    -8.7831899975299166E-008
   2.4400000000000005E-002    -9.4764494917853881E-008
   2.5499999999999995E-002    -1.0265028294043077E-007
   2.6600000000000013E-002    -1.1176110348287693E-007
   2.7700000000000002E-002    -1.2223503631503263E-007
   2.8799999999999992E-002    -1.3403746379481163E-007
   2.9900000000000010E-002    -1.4696117034418421E-007
   3.1000000000000000E-002    -1.6068190689111361E-007
   3.2099999999999990E-002    -1.7487056425125047E-007
   3.3200000000000007E-002    -1.8933583589841874E-007
   3.4299999999999997E-002    -2.0414448442807043E-007
   3.5400000000000015E-002    -2.1965949770219595E-007
   3.6500000000000005E-002    -2.3646114755138115E-007
   3.7599999999999995E-002    -2.5516607138342806E-007
   3.8700000000000012E-002    -2.7621268827715539E-007
   3.9800000000000002E-002    -2.9970755122121773E-007
   4.0899999999999992E-002    -3.2540717143092479E-007
   4.2000000000000010E-002    -3.5285060562273429E-007
   4.3099999999999999E-002    -3.8158606230354053E-007
   4.4200000000000017E-002    -4.1138909523397160E-007
   4.5300000000000007E-002    -4.4237501128918666E-007
   4.6399999999999997E-002    -4.7496189381490694E-007
   4.7500000000000014E-002    -5.0971419796042028E-007
   4.8600000000000004E-002    -5.4715030728402780E-007
   4.9699999999999994E-002    -5.8760480214914423E-007
   5.0800000000000012E-002    -6.3119756532614701E-007
   5.1900000000000002E-002    -6.7790114144372637E-007
   5.2999999999999992E-002    -7.2765141112540732E-007
   5.4099999999999981E-002    -7.8043649409664795E-007
   5.5200000000000027E-002    -8.3632590985871502E-007
   5.6300000000000017E-002    -8.9544420234233257E-007
   5.7400000000000007E-002    -9.5792620413703844E-007
   5.8499999999999996E-002    -1.0238937875328702E-006
   5.9599999999999986E-002    -1.0934709280263633E-006
   6.0700000000000032E-002    -1.1668219030980254E-006
   6.1800000000000022E-002    -1.2441820445019403E-006
   6.2900000000000011E-002    -1.3258555782158510E-006
   6.4000000000000001E-002    -1.4121752656137687E-006
   6.5099999999999991E-002    -1.5034459011076251E-006
   6.6199999999999981E-002    -1.5998999742805609E-006
   6.7300000000000026E-002    -1.7016847095874255E-006
   6.8400000000000016E-002    -1.8088823026118916E-006
   6.9500000000000006E-002    -1.9215472093492281E-006
   7.0599999999999996E-002    -2.0397428670548834E-006
   7.1699999999999986E-002    -2.1635669327224605E-006
   7.2800000000000031E-002    -2.2931624243938131E-006
   7.3900000000000021E-002    -2.4287182895932347E-006
   7.5000000000000011E-002    -2.5704616746224929E-006
   7.6100000000000001E-002    -2.7186422357772244E-006
   7.7199999999999991E-002    -2.8735103114740923E-006
   7.8299999999999981E-002    -3.0352941848832415E-006
   7.9400000000000026E-002    -3.2041875783761498E-006
   8.0500000000000016E-002    -3.3803557926148642E-006
   8.1600000000000006E-002    -3.5639573070511688E-006
   8.2699999999999996E-002    -3.7551658351731021E-006
   8.3799999999999986E-002    -3.9541805563203525E-006
   8.4900000000000031E-002    -4.1612106542743277E-006
   8.6000000000000021E-002    -4.3764380279753823E-006
   8.7100000000000011E-002    -4.5999777285032906E-006
   8.8200000000000001E-002    -4.8318543122150004E-006
   8.9299999999999990E-002    -5.0720141189231072E-006
   9.0399999999999980E-002    -5.3203698371362407E-006
   9.1500000000000026E-002    -5.5768650781828910E-006
   9.2600000000000016E-002    -5.8415307648829184E-006
   9.3700000000000006E-002    -6.1145046856836416E-006
   9.4799999999999995E-002    -6.3960078477975912E-006
   9.5899999999999985E-002    -6.6862839958048426E-006
   9.7000000000000031E-002    -6.9855236688454170E-006
   9.8100000000000021E-002    -7.2938041739689652E-006
   9.9200000000000010E-002    -7.6110636655357666E-006
  0.10030000000000000         -7.9371138781425543E-006
  0.10139999999999999         -8.2716915130731650E-006
  0.10249999999999998         -8.6145355453481898E-006
  0.10360000000000003         -8.9654577095643617E-006
  0.10470000000000002         -9.3243779701879248E-006
  0.10580000000000001         -9.6913245215546340E-006
  0.10690000000000000         -1.0066376489703543E-005
  0.10799999999999998         -1.0449573892401531E-005
  0.10910000000000003         -1.0840830327651929E-005
  0.11020000000000002         -1.1239872947044205E-005
  0.11130000000000001         -1.1646256098174490E-005
  0.11240000000000000         -1.2059430446242914E-005
  0.11349999999999999         -1.2478833014029078E-005
  0.11460000000000004         -1.2903973583888728E-005
  0.11570000000000003         -1.3334488357941154E-005
  0.11680000000000001         -1.3770134501100983E-005
  0.11790000000000000         -1.4210745575837791E-005
  0.11899999999999999         -1.4656172425020486E-005
  0.12009999999999998         -1.5106229511729907E-005
  0.12120000000000003         -1.5560646716039628E-005
  0.12230000000000002         -1.6019046597648412E-005
  0.12340000000000001         -1.6480949852848426E-005
  0.12450000000000000         -1.6945763491094112E-005
  0.12559999999999999         -1.7412799934390932E-005
  0.12670000000000003         -1.7881317035062239E-005
  0.12780000000000002         -1.8350545360590331E-005
  0.12890000000000001         -1.8819742763298564E-005
  0.13000000000000000         -1.9288252588012256E-005
  0.13109999999999999         -1.9755530956899747E-005
  0.13219999999999998         -2.0221154045430012E-005
  0.13330000000000003         -2.0684788978542201E-005
  0.13440000000000002         -2.1146126528037712E-005
  0.13550000000000001         -2.1604793801088817E-005
  0.13660000000000000         -2.2060263290768489E-005
  0.13769999999999999         -2.2511816496262327E-005
  0.13880000000000003         -2.2958578483667225E-005
  0.13990000000000002         -2.3399603378493339E-005
  0.14100000000000001         -2.3834007151890546E-005
  0.14210000000000000         -2.4261067665065639E-005
  0.14319999999999999         -2.4680262868059799E-005
  0.14429999999999998         -2.5091252609854564E-005
  0.14540000000000003         -2.5493785869912244E-005
  0.14650000000000002         -2.5887589799822308E-005
  0.14760000000000001         -2.6272269678884186E-005
  0.14870000000000000         -2.6647285267245024E-005
  0.14979999999999999         -2.7011976271751337E-005
  0.15090000000000003         -2.7365589630790055E-005
  0.15200000000000002         -2.7707359549822286E-005
  0.15310000000000001         -2.8036572985001840E-005
  0.15420000000000000         -2.8352626031846739E-005
  0.15529999999999999         -2.8655082132900134E-005
  0.15639999999999998         -2.8943681172677316E-005
  0.15750000000000003         -2.9218301278888248E-005
  0.15860000000000002         -2.9478851502062753E-005
  0.15970000000000001         -2.9725228159804828E-005
  0.16080000000000000         -2.9957282094983384E-005
  0.16189999999999999         -3.0174765925039537E-005
  0.16300000000000003         -3.0377394068636931E-005
  0.16410000000000002         -3.0564882763428614E-005
  0.16520000000000001         -3.0736973712919280E-005
  0.16630000000000000         -3.0893443181412295E-005
  0.16739999999999999         -3.1034101994009688E-005
  0.16850000000000004         -3.1158844649326056E-005
  0.16960000000000003         -3.1267645681509748E-005
  0.17070000000000002         -3.1360552384285256E-005
  0.17180000000000001         -3.1437670259037986E-005
  0.17290000000000000         -3.1499137548962608E-005
  0.17399999999999999         -3.1545117963105440E-005
  0.17510000000000003         -3.1575789762428030E-005
  0.17620000000000002         -3.1591338483849540E-005
  0.17730000000000001         -3.1591975130140781E-005
  0.17840000000000000         -3.1577921618008986E-005
  0.17949999999999999         -3.1549396226182580E-005
  0.18060000000000004         -3.1506617233389989E-005
  0.18170000000000003         -3.1449846574105322E-005
  0.18280000000000002         -3.1379433494294062E-005
  0.18390000000000001         -3.1295832741307095E-005
  0.18500000000000000         -3.1199568184092641E-005
  0.18609999999999999         -3.1091145501704887E-005
  0.18720000000000003         -3.0971019441494718E-005
  0.18830000000000002         -3.0839550163364038E-005
  0.18940000000000001         -3.0697072361363098E-005
  0.19050000000000000         -3.0543935281457379E-005
  0.19159999999999999         -3.0380528187379241E-005
  0.19270000000000004         -3.0207262170733884E-005
  0.19380000000000003         -3.0024557418073528E-005
  0.19490000000000002         -2.9832868676749058E-005
  0.19600000000000001         -2.9632716177729890E-005
  0.19710000000000000         -2.9424729291349649E-005
  0.19819999999999999         -2.9209584681666456E-005
  0.19930000000000003         -2.8987837140448391E-005
  0.20040000000000002         -2.8759865017491393E-005
  0.20150000000000001         -2.8526033929665573E-005
  0.20260000000000000         -2.8286778615438379E-005
  0.20369999999999999         -2.8042655685567297E-005
  0.20480000000000004         -2.7794278139481321E-005
  0.20590000000000003         -2.7542137104319409E-005
  0.20700000000000002         -2.7286536351311952E-005
  0.20810000000000001         -2.7027692340197973E-005
  0.20920000000000000         -2.6765883376356214E-005
  0.21029999999999999         -2.6501478714635596E-005
  0.21140000000000003         -2.6234887627651915E-005
  0.21250000000000002         -2.5966484827222303E-005
  0.21360000000000001         -2.5696530428831466E-005
  0.21470000000000000         -2.5425235435250215E-005
  0.21579999999999999         -2.5152847229037434E-005
  0.21690000000000004         -2.4879664124455303E-005
  0.21800000000000003         -2.4606039005448110E-005
  0.21910000000000002         -2.4332182874786668E-005
  0.22020000000000001         -2.4058119379333220E-005
  0.22130000000000000         -2.3783815777278505E-005
  0.22239999999999999         -2.3509324819315225E-005
  0.22350000000000003         -2.3234897525981069E-005
  0.22460000000000002         -2.2960895876167342E-005
  0.22570000000000001         -2.2687549062538892E-005
  0.22680000000000000         -2.2414815248339437E-005
  0.22789999999999999         -2.2142505258671008E-005
  0.22900000000000004         -2.1870449927519076E-005
  0.23010000000000003         -2.1598574676318094E-005
  0.23120000000000002         -2.1326874048099853E-005
  0.23230000000000001         -2.1055318939033896E-005
  0.23340000000000000         -2.0783754735020921E-005
  0.23450000000000004         -2.0511937691480853E-005
  0.23560000000000003         -2.0239673176547512E-005
  0.23670000000000002         -1.9966884792665951E-005
  0.23780000000000001         -1.9693563444889151E-005
  0.23890000000000000         -1.9419589079916477E-005
  0.23999999999999999         -1.9144716134178452E-005
  0.24110000000000004         -1.8868646293412894E-005
  0.24220000000000003         -1.8591137632029131E-005
  0.24330000000000002         -1.8312153770239092E-005
  0.24440000000000001         -1.8031782019534148E-005
  0.24550000000000000         -1.7749960534274578E-005
  0.24660000000000004         -1.7466370991314761E-005
  0.24770000000000003         -1.7180558643303812E-005
  0.24880000000000002         -1.6892146959435195E-005
  0.24990000000000001         -1.6600957678747363E-005
  0.25100000000000000         -1.6306914403685369E-005
  0.25209999999999999         -1.6009906175895594E-005
  0.25320000000000004         -1.5709663784946315E-005
  0.25430000000000003         -1.5405817975988612E-005
  0.25540000000000002         -1.5098125913937110E-005
  0.25650000000000001         -1.4786512110731564E-005
  0.25760000000000000         -1.4471034774032887E-005
  0.25870000000000004         -1.4151761206449009E-005
  0.25980000000000003         -1.3828539522364736E-005
  0.26090000000000002         -1.3501112334779464E-005
  0.26200000000000001         -1.3169352314434946E-005
  0.26310000000000000         -1.2833208529627882E-005
  0.26419999999999999         -1.2492692803789396E-005
  0.26530000000000004         -1.2147872439527418E-005
  0.26640000000000003         -1.1798716514022090E-005
  0.26750000000000002         -1.1445175005064812E-005
  0.26860000000000001         -1.1087216989835724E-005
  0.26970000000000000         -1.0724859748734161E-005
  0.27080000000000004         -1.0358206964156125E-005
  0.27190000000000003         -9.9873404906247742E-006
  0.27300000000000002         -9.6123203547904268E-006
  0.27410000000000001         -9.2332711574272253E-006
  0.27520000000000000         -8.8503284132457338E-006
  0.27629999999999999         -8.4636303654406220E-006
  0.27740000000000004         -8.0733780123409815E-006
  0.27850000000000003         -7.6797250585514121E-006
  0.27960000000000002         -7.2827792791940738E-006
  0.28070000000000001         -6.8827534960291814E-006
  0.28179999999999999         -6.4800196923897602E-006
  0.28290000000000004         -6.0750148804800119E-006
  0.28400000000000003         -5.6681174100958742E-006
  0.28510000000000002         -5.2595519264286850E-006
  0.28620000000000001         -4.8495221562916413E-006
  0.28730000000000000         -4.4383632484823465E-006
  0.28840000000000005         -4.0265290408569854E-006
  0.28950000000000004         -3.6145261219644453E-006
  0.29060000000000002         -3.2027751331042964E-006
  0.29170000000000001         -2.7914688871533144E-006
  0.29280000000000000         -2.3806187527952716E-006
  0.29389999999999999         -1.9703384168678895E-006
  0.29500000000000004         -1.5610168020430137E-006
  0.29610000000000003         -1.1532736152730649E-006
  0.29720000000000002         -7.4781411285584909E-007
  0.29830000000000001         -3.4521636393947119E-007
  0.29940000000000000          5.4207099253744673E-008
  0.30050000000000004          4.5029491957393475E-007
  0.30160000000000003          8.4275473000161583E-007
  0.30270000000000002          1.2310823649386293E-006
  0.30380000000000001          1.6147610040206928E-006
  0.30490000000000000          1.9933386283810250E-006
  0.30599999999999999          2.3664124455535784E-006
  0.30709999999999998          2.7336759558238555E-006
  0.30819999999999997          3.0948856419854565E-006
  0.30930000000000007          3.4498298191465437E-006
  0.31040000000000006          3.7982777030265424E-006
  0.31150000000000005          4.1399334804737009E-006
  0.31260000000000004          4.4744115257344674E-006
  0.31370000000000003          4.8012489060056396E-006
  0.31480000000000002          5.1199599511164706E-006
  0.31590000000000001          5.4301153795677237E-006
  0.31700000000000000          5.7314355217386037E-006
  0.31809999999999999          6.0238153309910558E-006
  0.31919999999999998          6.3071965996641666E-006
  0.32029999999999997          6.5813778746814933E-006
  0.32140000000000007          6.8461345108516980E-006
  0.32250000000000006          7.1012896114552859E-006
  0.32360000000000005          7.3467062975396402E-006
  0.32470000000000004          7.5823709266842343E-006
  0.32580000000000003          7.8082830441417173E-006
  0.32690000000000002          8.0242898548021913E-006
  0.32800000000000001          8.2300630310783163E-006
  0.32910000000000000          8.4252433225628920E-006
  0.33019999999999999          8.6096097220433876E-006
  0.33129999999999998          8.7831922428449616E-006
  0.33239999999999997          8.9460945673636161E-006
  0.33350000000000007          9.0982657638960518E-006
  0.33460000000000006          9.2396048785303719E-006
  0.33570000000000005          9.3701200967188925E-006
  0.33680000000000004          9.4899642135715112E-006
  0.33790000000000003          9.5994473667815328E-006
  0.33900000000000002          9.6989797384594567E-006
  0.34010000000000001          9.7887304946198128E-006
  0.34120000000000000          9.8684931799652986E-006
  0.34229999999999999          9.9379894891171716E-006
  0.34339999999999998          9.9970584415132180E-006
  0.34449999999999997          1.0045780072687194E-005
  0.34560000000000007          1.0084411769639701E-005
  0.34670000000000006          1.0113234566233587E-005
  0.34780000000000005          1.0132489478564821E-005
  0.34890000000000004          1.0142335668206215E-005
