 -0.20000000000000001          0.0000000000000000
 -0.19890000000000002          0.0000000000000000
 -0.19780000000000000          0.0000000000000000
 -0.19670000000000001          0.0000000000000000
 -0.19560000000000002          0.0000000000000000
 -0.19450000000000001          0.0000000000000000
 -0.19340000000000002          0.0000000000000000
 -0.19230000000000000          0.0000000000000000
 -0.19120000000000001          0.0000000000000000
 -0.19010000000000002          0.0000000000000000
 -0.18900000000000000         -2.5367552971001224E-025
 -0.18790000000000001         -5.0450975993302693E-024
 -0.18680000000000002         -2.9978683395222147E-023
 -0.18570000000000000         -8.9587872225651125E-023
 -0.18460000000000001         -1.2578548692462514E-022
 -0.18350000000000000          2.9562066387436446E-022
 -0.18240000000000001          2.8127640592437634E-021
 -0.18130000000000002          9.1688503803083186E-021
 -0.18020000000000000          9.2637717789766747E-021
 -0.17910000000000001         -3.5788331093631932E-020
 -0.17800000000000002         -1.3928531150792746E-019
 -0.17690000000000000         -8.2088667281989990E-020
 -0.17580000000000001          6.2280175738168839E-019
 -0.17470000000000002          1.6731287124339052E-018
 -0.17360000000000000          7.1181231079902233E-020
 -0.17250000000000001         -7.9811877978389194E-018
 -0.17140000000000000         -1.5633154403157290E-017
 -0.17030000000000001          4.5683745937074007E-018
 -0.16920000000000002          6.9962247995467951E-017
 -0.16810000000000000          1.0194304894511547E-016
 -0.16700000000000001         -8.9471792433476987E-017
 -0.16589999999999999         -5.1318613428057243E-016
 -0.16480000000000000         -4.8985265298466143E-016
 -0.16370000000000001          1.1032144622615321E-015
 -0.16260000000000002          3.6751573735237912E-015
 -0.16150000000000000          2.2793065805125188E-015
 -0.16040000000000001         -9.4813844208039166E-015
 -0.15930000000000000         -2.5930939592301428E-014
 -0.15820000000000001         -1.5821255777374409E-014
 -0.15710000000000002          5.8324113767780846E-014
 -0.15600000000000000          1.6569475555072615E-013
 -0.15490000000000001          1.3584072018275653E-013
 -0.15379999999999999         -2.4912146998073352E-013
 -0.15270000000000000         -8.9216633213101241E-013
 -0.15160000000000001         -1.0036738150656294E-012
 -0.15050000000000002          5.8313456060436151E-013
 -0.14940000000000001          3.8719318549987533E-012
 -0.14830000000000002          5.8320089209307792E-012
 -0.14720000000000000          1.0044415386233872E-012
 -0.14610000000000001         -1.2871342013055691E-011
 -0.14500000000000002         -2.6597384017447025E-011
 -0.14390000000000000         -1.8484736311051832E-011
 -0.14280000000000001          2.8473768481922320E-011
 -0.14169999999999999          9.4961365160189672E-011
 -0.14060000000000000          1.0934551181174312E-010
 -0.13950000000000001         -1.1057150854653124E-011
 -0.13840000000000002         -2.5648674850666479E-010
 -0.13730000000000001         -4.3678613503851647E-010
 -0.13619999999999999         -2.4577676005498124E-010
 -0.13510000000000000          4.5509968016337813E-010
 -0.13400000000000001          1.2938262683449055E-009
 -0.13290000000000002          1.3720649061355210E-009
 -0.13180000000000000         -1.0716499215810029E-010
 -0.13070000000000001         -2.7850375339257319E-009
 -0.12959999999999999         -4.5907118106926250E-009
 -0.12850000000000000         -2.7545798975125465E-009
 -0.12740000000000001          3.5696661182530374E-009
 -0.12630000000000002          1.0890649271289475E-008
 -0.12520000000000001          1.2072226773796270E-008
 -0.12410000000000000          1.5399074237972694E-009
 -0.12300000000000001         -1.7690881648491986E-008
 -0.12190000000000001         -3.1618945683932008E-008
 -0.12080000000000000         -2.2960778167657882E-008
 -0.11970000000000000          1.3112242847058669E-008
 -0.11860000000000001          5.6974336359873686E-008
 -0.11750000000000001          7.0715863387250959E-008
 -0.11640000000000000          2.5873667652831179E-008
 -0.11530000000000000         -6.4185030623777897E-008
 -0.11420000000000001         -1.3720044478305055E-007
 -0.11310000000000001         -1.1910472608178820E-007
 -0.11200000000000000          1.1205344208066186E-008
 -0.11090000000000001          1.8035834159491340E-007
 -0.10980000000000001          2.5184937157973991E-007
 -0.10870000000000000          1.2897388046440047E-007
 -0.10760000000000000         -1.4169765449878590E-007
 -0.10650000000000001         -3.6454397900342899E-007
 -0.10540000000000001         -3.2685122164366227E-007
 -0.10430000000000000          9.3517416033281565E-009
 -0.10320000000000000          4.1740415213098321E-007
 -0.10210000000000001          5.3680099654228754E-007
 -0.10100000000000001          1.7209562486185276E-007
  -9.9900000000000003E-002    -4.6957174504315037E-007
  -9.8799999999999999E-002    -8.4692692325915485E-007
  -9.7700000000000009E-002    -4.9173917204822846E-007
  -9.6600000000000005E-002     5.2065433919782763E-007
  -9.5500000000000002E-002     1.4568512369806093E-006
  -9.4400000000000012E-002     1.3841312238582708E-006
  -9.3300000000000008E-002    -4.0456910710460241E-008
  -9.2200000000000004E-002    -2.0626025616366607E-006
  -9.1100000000000000E-002    -3.1373172078020329E-006
  -9.0000000000000011E-002    -2.0105876501475300E-006
  -8.8900000000000007E-002     1.1431155826358218E-006
  -8.7800000000000003E-002     4.4695011638396742E-006
  -8.6699999999999999E-002     5.4853298934177818E-006
  -8.5600000000000009E-002     2.8637291507040147E-006
  -8.4500000000000006E-002    -2.3213067379400794E-006
  -8.3400000000000002E-002    -6.9637067099393032E-006
  -8.2299999999999998E-002    -7.8806888268447397E-006
  -8.1200000000000008E-002    -4.0828545024854607E-006
  -8.0100000000000005E-002     2.3256059193950881E-006
  -7.9000000000000001E-002     7.4408380896782044E-006
  -7.7899999999999997E-002     8.2596270658542267E-006
  -7.6800000000000007E-002     4.8225674618156620E-006
  -7.5700000000000003E-002     8.4986972127191761E-008
  -7.4600000000000000E-002    -2.5479780560992028E-006
  -7.3500000000000010E-002    -2.1745138383262476E-006
  -7.2399999999999992E-002    -1.3318176570466799E-006
  -7.1300000000000002E-002    -3.7414072266992664E-006
  -7.0200000000000012E-002    -1.0267506695528561E-005
  -6.9099999999999995E-002    -1.6416306607426738E-005
  -6.8000000000000005E-002    -1.4227293831937530E-005
  -6.6900000000000015E-002     1.6377704241678392E-006
  -6.5799999999999997E-002     2.7519068680705232E-005
  -6.4700000000000008E-002     4.9484442570249548E-005
  -6.3599999999999990E-002     4.9978487368210576E-005
  -6.2500000000000000E-002     1.9646166038003203E-005
  -6.1400000000000010E-002    -3.3253847504965859E-005
  -6.0299999999999992E-002    -8.3491831901485908E-005
  -5.9200000000000003E-002    -1.0137264325749635E-004
  -5.8100000000000013E-002    -7.0539819716947501E-005
  -5.6999999999999995E-002     3.4350097166217854E-007
  -5.5900000000000005E-002     8.0483849160372045E-005
  -5.4800000000000015E-002     1.3331105583347735E-004
  -5.3699999999999998E-002     1.3575392949861343E-004
  -5.2600000000000008E-002     8.7954882474160958E-005
  -5.1499999999999990E-002     8.4770526882589194E-006
  -5.0400000000000000E-002    -7.8683391620865936E-005
  -4.9300000000000010E-002    -1.5340124082286223E-004
  -4.8199999999999993E-002    -1.9846468057950283E-004
  -4.7100000000000003E-002    -1.9368610810490295E-004
  -4.6000000000000013E-002    -1.1783778609244215E-004
  -4.4899999999999995E-002     3.4458138543401321E-005
  -4.3800000000000006E-002     2.2987449483480402E-004
  -4.2699999999999988E-002     3.8962403777988548E-004
  -4.1599999999999998E-002     4.1673029772940464E-004
  -4.0500000000000008E-002     2.5211166939701738E-004
  -3.9399999999999991E-002    -7.2785143856864587E-005
  -3.8300000000000001E-002    -4.2762275552376823E-004
  -3.7200000000000011E-002    -6.3795031746852085E-004
  -3.6099999999999993E-002    -5.8003858430316245E-004
  -3.5000000000000003E-002    -2.5935520534409705E-004
  -3.3900000000000013E-002     1.8156775331585541E-004
  -3.2799999999999996E-002     5.3848762763662706E-004
  -3.1700000000000006E-002     6.6082348348575897E-004
  -3.0599999999999988E-002     5.3287140326581687E-004
  -2.9499999999999998E-002     2.6583924773158983E-004
  -2.8400000000000009E-002     6.1614387051190421E-006
  -2.7299999999999991E-002    -1.7292212578461159E-004
  -2.6200000000000001E-002    -3.1259705428964121E-004
  -2.5100000000000011E-002    -5.0429929979151826E-004
  -2.3999999999999994E-002    -7.6368887675940618E-004
  -2.2900000000000004E-002    -9.4649597303963205E-004
  -2.1800000000000014E-002    -7.9767301213020390E-004
  -2.0699999999999996E-002    -1.3611179019810401E-004
  -1.9600000000000006E-002     9.3547377036876111E-004
  -1.8499999999999989E-002     1.9597045611591205E-003
  -1.7399999999999999E-002     2.2971851285550249E-003
  -1.6300000000000009E-002     1.4931398909544037E-003
  -1.5199999999999991E-002    -3.6570228985452252E-004
  -1.4100000000000001E-002    -2.5496974121774030E-003
  -1.3000000000000012E-002    -3.9637316949662597E-003
  -1.1899999999999994E-002    -3.6979387514293636E-003
  -1.0800000000000004E-002    -1.5525219496343890E-003
  -9.6999999999999864E-003     1.7839767970136793E-003
  -8.5999999999999965E-003     5.0392160192121319E-003
  -7.5000000000000067E-003     6.9943354465055296E-003
  -6.3999999999999890E-003     7.0953867398190406E-003
  -5.2999999999999992E-003     5.6877578608681223E-003
  -4.2000000000000093E-003     3.7465372588477842E-003
  -3.0999999999999917E-003     2.2772254887964403E-003
  -2.0000000000000018E-003     1.7521168338134985E-003
  -9.0000000000001190E-004     1.9141450757164248E-003
   2.0000000000000573E-004     2.0505567081277824E-003
   1.2999999999999956E-003     1.5573344426234230E-003
   2.4000000000000132E-003     4.4719388824903257E-004
   3.5000000000000031E-003    -5.1481695845756578E-004
   4.5999999999999930E-003    -1.5838998660998925E-004
   5.7000000000000106E-003     2.4174409918473775E-003
   6.8000000000000005E-003     7.1874763816579439E-003
   7.8999999999999904E-003     1.2933086603878383E-002
   9.0000000000000080E-003     1.7575057223437884E-002
   1.0099999999999998E-002     1.9034430384634881E-002
   1.1199999999999988E-002     1.6265748068689474E-002
   1.2300000000000005E-002     9.9624423310152865E-003
   1.3399999999999995E-002     2.5245256256302899E-003
   1.4500000000000013E-002    -2.8067103121441912E-003
   1.5600000000000003E-002    -3.3284560777262885E-003
   1.6699999999999993E-002     1.8498966237510581E-003
   1.7800000000000010E-002     1.1280355975029592E-002
   1.8900000000000000E-002     2.1725585684177734E-002
   1.9999999999999990E-002     2.9592845588919701E-002
   2.1100000000000008E-002     3.2596524804827429E-002
   2.2199999999999998E-002     3.0823115259405440E-002
   2.3300000000000015E-002     2.6630649343129045E-002
   2.4400000000000005E-002     2.3396601900454034E-002
   2.5499999999999995E-002     2.3754121735687434E-002
   2.6600000000000013E-002     2.8263552114362694E-002
   2.7700000000000002E-002     3.5269696265454072E-002
   2.8799999999999992E-002     4.2031712830061387E-002
   2.9900000000000010E-002     4.6462874859565628E-002
   3.1000000000000000E-002     4.8424541950219224E-002
   3.2099999999999990E-002     4.9768216907970488E-002
   3.3200000000000007E-002     5.3095404058686256E-002
   3.4299999999999997E-002     6.0036949813356402E-002
   3.5400000000000015E-002     7.0173516869534588E-002
   3.6500000000000005E-002     8.1314228475082628E-002
   3.7599999999999995E-002     9.0939685702311798E-002
   3.8700000000000012E-002     9.7842410206781527E-002
   3.9800000000000002E-002    0.10286333411930544
   4.0899999999999992E-002    0.10826236009596193
   4.2000000000000010E-002    0.11620067059992027
   4.3099999999999999E-002    0.12738020718095852
   4.4200000000000017E-002    0.14075271785257298
   4.5300000000000007E-002    0.15443556010721043
   4.6399999999999997E-002    0.16715760529039064
   4.7500000000000014E-002    0.17923246324059913
   4.8600000000000004E-002    0.19239816069600268
   4.9699999999999994E-002    0.20869795978066305
   5.0800000000000012E-002    0.22912190854546083
   5.1900000000000002E-002    0.25293993949886484
   5.2999999999999992E-002    0.27811488509174187
   5.4099999999999981E-002    0.30256465077395922
   5.5200000000000027E-002    0.32545280456538372
   5.6300000000000017E-002    0.34773758053774695
   5.7400000000000007E-002    0.37163728475565461
   5.8499999999999996E-002    0.39933553338045297
   5.9599999999999986E-002    0.43174314498895477
   6.0700000000000032E-002    0.46806579828256051
   6.1800000000000022E-002    0.50639510154717382
   6.2900000000000011E-002    0.54499065875999808
   6.4000000000000001E-002    0.58337378501884196
   6.5099999999999991E-002    0.62262988090506555
   6.6199999999999981E-002    0.66480851173391564
   6.7300000000000026E-002    0.71193104982366040
   6.8400000000000016E-002    0.76514941453922902
   6.9500000000000006E-002    0.82455444335925931
   7.0599999999999996E-002    0.88936972618090704
   7.1699999999999986E-002    0.95818758010851157
   7.2800000000000031E-002     1.0292838811872997
   7.3900000000000021E-002     1.1008094549177601
   7.5000000000000011E-002     1.1714088916776997
   7.6100000000000001E-002     1.2410657405851604
   7.7199999999999991E-002     1.3117134571073663
   7.8299999999999981E-002     1.3871326446531311
   7.9400000000000026E-002     1.4716596603391539
   8.0500000000000016E-002     1.5683033466336969
   8.1600000000000006E-002     1.6771392822263349
   8.2699999999999996E-002     1.7949751615521881
   8.3799999999999986E-002     1.9165420532224009
   8.4900000000000031E-002     2.0368196964261212
   8.6000000000000021E-002     2.1533262729641911
   8.7100000000000011E-002     2.2675261497494517
   8.8200000000000001E-002     2.3844661712643260
   8.9299999999999990E-002     2.5108063220974373
   9.0399999999999980E-002     2.6518576145168522
   9.1500000000000026E-002     2.8089084625240353
   9.2600000000000016E-002     2.9781420230861495
   9.3700000000000006E-002     3.1522963047023405
   9.4799999999999995E-002     3.3241662979121585
   9.5899999999999985E-002     3.4903783798213159
   9.7000000000000031E-002     3.6529941558833050
   9.8100000000000021E-002     3.8189873695368459
   9.9200000000000010E-002     3.9962007999414846
  0.10030000000000000          4.1897163391107712
  0.10139999999999999          4.3992853164667025
  0.10249999999999998          4.6196951866143809
  0.10360000000000003          4.8441910743707011
  0.10470000000000002          5.0675444602959647
  0.10580000000000001          5.2880010604851435
  0.10690000000000000          5.5080122947685606
  0.10799999999999998          5.7320451736442619
  0.10910000000000003          5.9642963409415941
  0.11020000000000002          6.2061495780936626
  0.11130000000000001          6.4560852050772741
  0.11240000000000000          6.7103490829458954
  0.11349999999999999          6.9653129577627588
  0.11460000000000004          7.2189455032339183
  0.11570000000000003          7.4712100028981929
  0.11680000000000001          7.7236013412465487
  0.11790000000000000          7.9767966270436341
  0.11899999999999999          8.2300071716297829
  0.12009999999999998          8.4818973541248663
  0.12120000000000003          8.7313976287830357
  0.12230000000000002          8.9796009063708944
  0.12340000000000001          9.2285413742053350
  0.12450000000000000          9.4796724319445591
  0.12559999999999999          9.7320575714098609
  0.12670000000000003          9.9806680679308251
  0.12780000000000002          10.219259262083627
  0.12890000000000001          10.443279266356058
  0.13000000000000000          10.651037216185129
  0.13109999999999999          10.844022750853069
  0.13219999999999998          11.025974273680191
  0.13330000000000003          11.199176788328602
  0.13440000000000002          11.364141464231899
  0.13550000000000001          11.521286964414983
  0.13660000000000000          11.667366981504809
  0.13769999999999999          11.798006057737702
  0.13880000000000003          11.906331062315324
  0.13990000000000002          11.986852645872439
  0.14100000000000001          12.035198211668325
  0.14210000000000000          12.051666259764019
  0.14319999999999999          12.040884017942723
  0.14429999999999998          12.007472038267426
  0.14540000000000003          11.954538345335296
  0.14650000000000002          11.880592346189792
  0.14760000000000001          11.781554222105326
  0.14870000000000000          11.649148941038442
  0.14979999999999999          11.478590011595097
  0.15090000000000003          11.264965057371482
  0.15200000000000002          11.007537841795331
  0.15310000000000001          10.706952095030219
  0.15420000000000000          10.364283561705053
  0.15529999999999999          9.9806375503525473
  0.15639999999999998          9.5584211349473129
  0.15750000000000003          9.0957641601548769
  0.15860000000000002          8.5888748168932079
  0.15970000000000001          8.0329198837267590
  0.16080000000000000          7.4247198104846319
  0.16189999999999999          6.7624201774585737
  0.16300000000000003          6.0445456504811048
  0.16410000000000002          5.2720642089833767
  0.16520000000000001          4.4433026313772555
  0.16630000000000000          3.5585222244254369
  0.16739999999999999          2.6155276298515537
  0.16850000000000004          1.6139354705804116
  0.16960000000000003         0.55577158927863612
  0.17070000000000002        -0.56066751480145338
  0.17180000000000001         -1.7383747100833189
  0.17290000000000000         -2.9764139652254076
  0.17399999999999999         -4.2790055274963965
  0.17510000000000003         -5.6423125267028045
  0.17620000000000002         -7.0690059661863067
  0.17730000000000001         -8.5565376281734640
  0.17840000000000000         -10.107853889464815
  0.17949999999999999         -11.721083641051571
  0.18060000000000004         -13.399265289305800
  0.18170000000000003         -15.139911651610316
  0.18280000000000002         -16.945323944090607
  0.18390000000000001         -18.812221527098234
  0.18500000000000000         -20.740846633909570
  0.18609999999999999         -22.732244491575390
  0.18720000000000003         -24.781747817991207
  0.18830000000000002         -26.888191223142368
  0.18940000000000001         -29.049795150754459
  0.19050000000000000         -31.265544891354828
  0.19159999999999999         -33.538604736325311
  0.19270000000000004         -35.872501373287975
  0.19380000000000003         -38.259807586666653
  0.19490000000000002         -40.697177886959388
  0.19600000000000001         -43.178199768062662
  0.19710000000000000         -45.701332092281170
  0.19819999999999999         -48.269649505611000
  0.19930000000000003         -50.882968902583400
  0.20040000000000002         -53.544631958003066
  0.20150000000000001         -56.246810913080935
  0.20260000000000000         -58.981929779047469
  0.20369999999999999         -61.741111755365566
  0.20480000000000004         -64.530525207513733
  0.20590000000000003         -67.350486755365026
  0.20700000000000002         -70.208816528313974
  0.20810000000000001         -73.094467163079329
  0.20920000000000000         -75.996284484856403
  0.21029999999999999         -78.908363342278008
  0.21140000000000003         -81.825195312492568
  0.21250000000000002         -84.750991821281360
  0.21360000000000001         -87.691558837882653
  0.21470000000000000         -90.640678405753462
  0.21579999999999999         -93.592292785636005
  0.21690000000000004         -96.538383483877922
  0.21800000000000003         -99.480445861807326
  0.21910000000000002         -102.41490173338909
  0.22020000000000001         -105.33274841307632
  0.22130000000000000         -108.24199676512683
  0.22239999999999999         -111.12976837157188
  0.22350000000000003         -113.99321746825130
  0.22460000000000002         -116.83205413817292
  0.22570000000000001         -119.64572143553595
  0.22680000000000000         -122.42169952391460
  0.22789999999999999         -125.16555786131669
  0.22900000000000004         -127.87498474119926
  0.23010000000000003         -130.54315185545681
  0.23120000000000002         -133.16030883787846
  0.23230000000000001         -135.72859191893292
  0.23340000000000000         -138.24691772459676
  0.23450000000000004         -140.71379089354184
  0.23560000000000003         -143.12097167967445
  0.23670000000000002         -145.46986389158829
  0.23780000000000001         -147.75199890135372
  0.23890000000000000         -149.96759033201758
  0.23999999999999999         -152.10369873045488
  0.24110000000000004         -154.17140197752502
  0.24220000000000003         -156.17317199705610
  0.24330000000000002         -158.10403442381374
  0.24440000000000001         -159.95184326170420
  0.24550000000000000         -161.71203613279781
  0.24660000000000004         -163.38389587400860
  0.24770000000000003         -164.96624755857877
  0.24880000000000002         -166.46713256834425
  0.24990000000000001         -167.88464355467227
  0.25100000000000000         -169.20399475096121
  0.25209999999999999         -170.41726684568766
  0.25320000000000004         -171.53520202635164
  0.25430000000000003         -172.55882263182031
  0.25540000000000002         -173.49786376951553
  0.25650000000000001         -174.34873962400766
  0.25760000000000000         -175.09426879881229
  0.25870000000000004         -175.72058105467161
  0.25980000000000003         -176.21992492674190
  0.26090000000000002         -176.61866760252312
  0.26200000000000001         -176.93856811521840
  0.26310000000000000         -177.16940307615590
  0.26419999999999999         -177.29875183103871
  0.26530000000000004         -177.30937194822621
  0.26640000000000003         -177.20187377928093
  0.26750000000000002         -176.98793029783565
  0.26860000000000001         -176.68656921385130
  0.26970000000000000         -176.30317687986698
  0.27080000000000004         -175.81819152830454
  0.27190000000000003         -175.21557617185928
  0.27300000000000002         -174.49189758299218
  0.27410000000000001         -173.67060852049224
  0.27520000000000000         -172.78155517576579
  0.27629999999999999         -171.81513977049244
  0.27740000000000004         -170.75761413572693
  0.27850000000000003         -169.59266662596141
  0.27960000000000002         -168.32568359373496
  0.28070000000000001         -166.97390747068823
  0.28179999999999999         -165.54971313475087
  0.28290000000000004         -164.07025146482914
  0.28400000000000003         -162.51736450193866
  0.28510000000000002         -160.88658142088414
  0.28620000000000001         -159.17309570311087
  0.28730000000000000         -157.40031433104073
  0.28840000000000005         -155.56878662107997
  0.28950000000000004         -153.68850708006451
  0.29060000000000002         -151.75076293943971
  0.29170000000000001         -149.75813293455707
  0.29280000000000000         -147.72013854979164
  0.29389999999999999         -145.65962219236997
  0.29500000000000004         -143.57275390623735
  0.29610000000000003         -141.46446228026099
  0.29720000000000002         -139.31455993651122
  0.29830000000000001         -137.12167358397235
  0.29940000000000000         -134.90927124022255
  0.30050000000000004         -132.70669555662903
  0.30160000000000003         -130.52265930174642
  0.30270000000000002         -128.34597778319196
  0.30380000000000001         -126.15616607664919
  0.30490000000000000         -123.95444488524315
  0.30599999999999999         -121.76278686522382
  0.30709999999999998         -119.62159729002872
  0.30819999999999997         -117.53786468504845
  0.30930000000000007         -115.48692321776349
  0.31040000000000006         -113.43450164793947
  0.31150000000000005         -111.38146972655295
  0.31260000000000004         -109.36195373534220
  0.31370000000000003         -107.42924499510801
  0.31480000000000002         -105.60851287840897
  0.31590000000000001         -103.86402893065524
  0.31700000000000000         -102.16018676756947
  0.31809999999999999         -100.46015167235478
  0.31919999999999998         -98.802108764640096
  0.32029999999999997         -97.237747192374627
  0.32140000000000007         -95.813972473136488
  0.32250000000000006         -94.505729675285053
  0.32360000000000005         -93.266494750968775
  0.32470000000000004         -92.052795410148590
  0.32580000000000003         -90.890419006340096
  0.32690000000000002         -89.846282958976929
  0.32800000000000001         -88.941871643059045
  0.32910000000000000         -88.167861938469287
  0.33019999999999999         -87.477577209465451
  0.33129999999999998         -86.830398559563179
  0.33239999999999997         -86.252586364739017
  0.33350000000000007         -85.794486999504684
  0.33460000000000006         -85.496376037590665
  0.33570000000000005         -85.325706481926616
  0.33680000000000004         -85.225517272942270
  0.33790000000000003         -85.179840087883676
  0.33900000000000002         -85.192489624016488
  0.34010000000000001         -85.321037292473520
  0.34120000000000000         -85.605033874504741
  0.34229999999999999         -86.016227722160963
  0.34339999999999998         -86.513618469231233
  0.34449999999999997         -87.045875549309315
  0.34560000000000007         -87.625900268547554
  0.34670000000000006         -88.303657531731076
  0.34780000000000005         -89.124572753898974
  0.34890000000000004         -90.063606262199670
