 -0.20000000000000001          0.0000000000000000
 -0.19890000000000002          0.0000000000000000
 -0.19780000000000000          0.0000000000000000
 -0.19670000000000001          0.0000000000000000
 -0.19560000000000002          0.0000000000000000
 -0.19450000000000001          0.0000000000000000
 -0.19340000000000002          0.0000000000000000
 -0.19230000000000000          0.0000000000000000
 -0.19120000000000001          4.5142269478432943E-024
 -0.19010000000000002         -5.8987680033076367E-023
 -0.18900000000000000         -1.5812394989905851E-022
 -0.18790000000000001          1.0563379150050595E-021
 -0.18680000000000002          3.6481011653900500E-021
 -0.18570000000000000         -7.2494997457070986E-021
 -0.18460000000000001         -4.8540722565761875E-020
 -0.18350000000000000         -2.1360719550895851E-020
 -0.18240000000000001          3.3925334238517492E-019
 -0.18130000000000002          8.0481266651261640E-019
 -0.18020000000000000         -5.5241339184308596E-019
 -0.17910000000000001         -5.7218887112569479E-018
 -0.17800000000000002         -8.4734959199278564E-018
 -0.17690000000000000          1.1227410135327175E-017
 -0.17580000000000001          6.1161615378162659E-017
 -0.17470000000000002          7.2534779700505353E-017
 -0.17360000000000000         -1.0624439474784606E-016
 -0.17250000000000001         -4.8782025036738126E-016
 -0.17140000000000000         -5.5829513858439276E-016
 -0.17030000000000001          6.3230686581222380E-016
 -0.16920000000000002          3.0886838310644144E-015
 -0.16810000000000000          3.8498058263687369E-015
 -0.16700000000000001         -2.2922793136169245E-015
 -0.16589999999999999         -1.5825955116169875E-014
 -0.16480000000000000         -2.2935643049495566E-014
 -0.16370000000000001          1.6965069375834692E-015
 -0.16260000000000002          6.5259409475718760E-014
 -0.16150000000000000          1.1497290478609118E-013
 -0.16040000000000001          4.2334164602683688E-014
 -0.15930000000000000         -2.0918272810536293E-013
 -0.15820000000000001         -4.7770901817623113E-013
 -0.15710000000000002         -3.5832654118189700E-013
 -0.15600000000000000          4.6404492661661356E-013
 -0.15490000000000001          1.6210548528516888E-012
 -0.15379999999999999          1.8165305414388766E-012
 -0.15270000000000000         -3.1977502243374367E-013
 -0.15160000000000001         -4.3617787333360969E-012
 -0.15050000000000002         -6.8260462386671161E-012
 -0.14940000000000001         -2.8696294472607686E-012
 -0.14830000000000002          8.5778415620518800E-012
 -0.14720000000000000          1.9972433429327197E-011
 -0.14610000000000001          1.7173868230302425E-011
 -0.14500000000000002         -8.5108699601765814E-012
 -0.14390000000000000         -4.5290694805633080E-011
 -0.14280000000000001         -5.9061394663828537E-011
 -0.14169999999999999         -1.6837992805607271E-011
 -0.14060000000000000          7.4324282839377531E-011
 -0.13950000000000001          1.4778046841801284E-010
 -0.13840000000000002          1.1242334840844137E-010
 -0.13730000000000001         -6.2612567908182371E-011
 -0.13619999999999999         -2.7804880620152517E-010
 -0.13510000000000000         -3.3497618567857046E-010
 -0.13400000000000001         -8.8941576326106997E-011
 -0.13290000000000002          3.7120034823701076E-010
 -0.13180000000000000          6.9636957311658421E-010
 -0.13070000000000001          5.0542942053866113E-010
 -0.12959999999999999         -2.4740193227401619E-010
 -0.12850000000000000         -1.0796983307415076E-009
 -0.12740000000000001         -1.2340933830401468E-009
 -0.12630000000000002         -3.0760469171831062E-010
 -0.12520000000000001          1.2225233048113182E-009
 -0.12410000000000000          2.1376638237313728E-009
 -0.12300000000000001          1.3873162618693868E-009
 -0.12190000000000001         -8.5171075747680902E-010
 -0.12080000000000000         -2.9484525931877670E-009
 -0.11970000000000000         -2.9137674495416377E-009
 -0.11860000000000001         -1.7573179023067098E-010
 -0.11750000000000001          3.4656388869791499E-009
 -0.11640000000000000          4.8574735345141562E-009
 -0.11530000000000000          2.0769486130944870E-009
 -0.11420000000000001         -3.4356866240869977E-009
 -0.11310000000000001         -7.3175558945592911E-009
 -0.11200000000000000         -5.5456190750646783E-009
 -0.11090000000000001          1.8007114688245451E-009
 -0.10980000000000001          9.6075307709497793E-009
 -0.10870000000000000          1.1110333986152909E-008
 -0.10760000000000000          3.4814879867894888E-009
 -0.10650000000000001         -8.8916820573103905E-009
 -0.10540000000000001         -1.6748508357977698E-008
 -0.10430000000000000         -1.2871529619928879E-008
 -0.10320000000000000          1.6050960560676231E-009
 -0.10210000000000001          1.6917919509751300E-008
 -0.10100000000000001          2.1452249754361219E-008
  -9.9900000000000003E-002     1.0796655125488996E-008
  -9.8799999999999999E-002    -8.1085183012419293E-009
  -9.7700000000000009E-002    -2.1549986684021860E-008
  -9.6600000000000005E-002    -1.9363243453085488E-008
  -9.5500000000000002E-002    -3.1338236450295653E-009
  -9.4400000000000012E-002     1.4426669636691258E-008
  -9.3300000000000008E-002     1.9033763010156690E-008
  -9.2200000000000004E-002     6.3485732226808977E-009
  -9.1100000000000000E-002    -1.3530004672190898E-008
  -9.0000000000000011E-002    -2.2800048071758283E-008
  -8.8900000000000007E-002    -9.8082733046567228E-009
  -8.7800000000000003E-002     1.9963209751949762E-008
  -8.6699999999999999E-002     4.4775990915013608E-008
  -8.5600000000000009E-002     4.0686867208705735E-008
  -8.4500000000000006E-002     3.9528580408898506E-010
  -8.3400000000000002E-002    -5.6600992337507705E-008
  -8.2299999999999998E-002    -9.2177891986011673E-008
  -8.1200000000000008E-002    -7.3930863209170639E-008
  -8.0100000000000005E-002    -7.7370171380763963E-010
  -7.9000000000000001E-002     8.9422876214939606E-008
  -7.7899999999999997E-002     1.3973715340398485E-007
  -7.6800000000000007E-002     1.1185535697677551E-007
  -7.5700000000000003E-002     1.5863372837543466E-008
  -7.4600000000000000E-002    -9.1906549926079606E-008
  -7.3500000000000010E-002    -1.4561709349436569E-007
  -7.2399999999999992E-002    -1.1653803255740058E-007
  -7.1300000000000002E-002    -3.3640354502040282E-008
  -7.0200000000000012E-002     4.0323325123381437E-008
  -6.9099999999999995E-002     6.0295398895959806E-008
  -6.8000000000000005E-002     3.5776317020008719E-008
  -6.6900000000000015E-002     1.9642735438196723E-008
  -6.5799999999999997E-002     5.4995798137724705E-008
  -6.4700000000000008E-002     1.2504690971582022E-007
  -6.3599999999999990E-002     1.5424190280555194E-007
  -6.2500000000000000E-002     6.8720190427029593E-008
  -6.1400000000000010E-002    -1.2877588062565337E-007
  -6.0299999999999992E-002    -3.3468043625362043E-007
  -5.9200000000000003E-002    -4.0199691397901915E-007
  -5.8100000000000013E-002    -2.4523455977032427E-007
  -5.6999999999999995E-002     8.4633533958822227E-008
  -5.5900000000000005E-002     4.1668414496598416E-007
  -5.4800000000000015E-002     5.6338666354349698E-007
  -5.3699999999999998E-002     4.4052404746253160E-007
  -5.2600000000000008E-002     1.1952076306442905E-007
  -5.1499999999999990E-002    -2.2352692496951931E-007
  -5.0400000000000000E-002    -4.2422999513291870E-007
  -4.9300000000000010E-002    -4.2954647483384178E-007
  -4.8199999999999993E-002    -3.1361912533611758E-007
  -4.7100000000000003E-002    -2.0329568428678613E-007
  -4.6000000000000013E-002    -1.6933812219122046E-007
  -4.4899999999999995E-002    -1.6284698745039350E-007
  -4.3800000000000006E-002    -4.7192592944611533E-008
  -4.2699999999999988E-002     2.8813178687414620E-007
  -4.1599999999999998E-002     8.0589882145432057E-007
  -4.0500000000000008E-002     1.2843745480495272E-006
  -3.9399999999999991E-002     1.4148523632684373E-006
  -3.8300000000000001E-002     9.9469161796150729E-007
  -3.7200000000000011E-002     9.6537874583191297E-008
  -3.6099999999999993E-002    -9.1534349166977336E-007
  -3.5000000000000003E-002    -1.5639382127119461E-006
  -3.3900000000000013E-002    -1.5380031754830270E-006
  -3.2799999999999996E-002    -8.8536819475848461E-007
  -3.1700000000000006E-002     2.2892816531339122E-008
  -3.0599999999999988E-002     7.4197208732584841E-007
  -2.9499999999999998E-002     1.0375828196629300E-006
  -2.8400000000000009E-002     9.9314684121054597E-007
  -2.7299999999999991E-002     8.6542161170655163E-007
  -2.6200000000000001E-002     8.1882348013095907E-007
  -2.5100000000000011E-002     7.7072087378837750E-007
  -2.3999999999999994E-002     4.8636070459906477E-007
  -2.2900000000000004E-002    -1.5533161956682306E-007
  -2.1800000000000014E-002    -9.6037535968207521E-007
  -2.0699999999999996E-002    -1.4756559494344401E-006
  -1.9600000000000006E-002    -1.2838366956202663E-006
  -1.8499999999999989E-002    -3.1682685630585183E-007
  -1.7399999999999999E-002     1.0554614391367068E-006
  -1.6300000000000009E-002     2.2309059204417281E-006
  -1.5199999999999991E-002     2.7240762392466422E-006
  -1.4100000000000001E-002     2.4159226086339913E-006
  -1.3000000000000012E-002     1.5592377167195082E-006
  -1.1899999999999994E-002     5.8119786672250484E-007
  -1.0800000000000004E-002    -1.5452833679319156E-007
  -9.6999999999999864E-003    -4.8092641691255267E-007
  -8.5999999999999965E-003    -4.1851615151244914E-007
  -7.5000000000000067E-003    -8.0845303784826683E-008
  -6.3999999999999890E-003     4.2369941866127192E-007
  -5.2999999999999992E-003     1.0400516430308926E-006
  -4.2000000000000093E-003     1.7487640207036748E-006
  -3.0999999999999917E-003     2.4995779313030653E-006
  -2.0000000000000018E-003     3.1477422908210428E-006
  -9.0000000000001190E-004     3.4659856282814872E-006
   2.0000000000000573E-004     3.2716889108996838E-006
   1.2999999999999956E-003     2.6098705347976647E-006
   2.4000000000000132E-003     1.8361045022174949E-006
   3.5000000000000031E-003     1.4658202189821168E-006
   4.5999999999999930E-003     1.8306632227904629E-006
   5.7000000000000106E-003     2.7873290946445195E-006
   6.8000000000000005E-003     3.7559600514214253E-006
   7.8999999999999904E-003     4.1344687815580983E-006
   9.0000000000000080E-003     3.8018990835553268E-006
   1.0099999999999998E-002     3.2822010780364508E-006
   1.1199999999999988E-002     3.3760009046091000E-006
   1.2300000000000005E-002     4.5117485569790006E-006
   1.3399999999999995E-002     6.3488732848782092E-006
   1.4500000000000013E-002     7.9936953625292517E-006
   1.5600000000000003E-002     8.6830013970029540E-006
   1.6699999999999993E-002     8.3769209595629945E-006
   1.7800000000000010E-002     7.7649901868426241E-006
   1.8900000000000000E-002     7.6828755481983535E-006
   1.9999999999999990E-002     8.4386820162762888E-006
   2.1100000000000008E-002     9.6121448223129846E-006
   2.2199999999999998E-002     1.0468922482687049E-005
   2.3300000000000015E-002     1.0611190191411879E-005
   2.4400000000000005E-002     1.0319882676412817E-005
   2.5499999999999995E-002     1.0344147085561417E-005
   2.6600000000000013E-002     1.1362247278157156E-005
   2.7700000000000002E-002     1.3547547496273182E-005
   2.8799999999999992E-002     1.6508762200828642E-005
   2.9900000000000010E-002     1.9540955690899864E-005
   3.1000000000000000E-002     2.1951766029815190E-005
   3.2099999999999990E-002     2.3297312509384938E-005
   3.3200000000000007E-002     2.3516189685324207E-005
   3.4299999999999997E-002     2.2974621970206499E-005
   3.5400000000000015E-002     2.2373031242750585E-005
   3.6500000000000005E-002     2.2454782083514147E-005
   3.7599999999999995E-002     2.3637414415134117E-005
   3.8700000000000012E-002     2.5818531867116690E-005
   3.9800000000000002E-002     2.8561704311869107E-005
   4.0899999999999992E-002     3.1513347494183108E-005
   4.2000000000000010E-002     3.4659620723687112E-005
   4.3099999999999999E-002     3.8138248783070594E-005
   4.4200000000000017E-002     4.1779483581194654E-005
   4.5300000000000007E-002     4.4891014113090932E-005
   4.6399999999999997E-002     4.6666580601595342E-005
   4.7500000000000014E-002     4.6968172682682052E-005
   4.8600000000000004E-002     4.6766883315285668E-005
   4.9699999999999994E-002     4.7675915993750095E-005
   5.0800000000000012E-002     5.0835977162932977E-005
   5.1900000000000002E-002     5.6009841500781476E-005
   5.2999999999999992E-002     6.1739745433442295E-005
   5.4099999999999981E-002     6.6439723013900220E-005
   5.5200000000000027E-002     6.9538109528366476E-005
   5.6300000000000017E-002     7.1718583058100194E-005
   5.7400000000000007E-002     7.4114279414061457E-005
   5.8499999999999996E-002     7.7285432780627161E-005
   5.9599999999999986E-002     8.0911559052765369E-005
   6.0700000000000032E-002     8.4391220298130065E-005
   6.1800000000000022E-002     8.7663553131278604E-005
   6.2900000000000011E-002     9.1362460807431489E-005
   6.4000000000000001E-002     9.6203955763485283E-005
   6.5099999999999991E-002     1.0220715921605006E-004
   6.6199999999999981E-002     1.0857970482902601E-004
   6.7300000000000026E-002     1.1434740008553490E-004
   6.8400000000000016E-002     1.1910165630979463E-004
   6.9500000000000006E-002     1.2316965148784220E-004
   7.0599999999999996E-002     1.2715147749986500E-004
   7.1699999999999986E-002     1.3133682659827173E-004
   7.2800000000000031E-002     1.3568457507062703E-004
   7.3900000000000021E-002     1.4021397510077804E-004
   7.5000000000000011E-002     1.4520194963552058E-004
   7.6100000000000001E-002     1.5097776486072689E-004
   7.7199999999999991E-002     1.5736797649879009E-004
   7.8299999999999981E-002     1.6368924116250128E-004
   7.9400000000000026E-002     1.6927419346757233E-004
   8.0500000000000016E-002     1.7419015057384968E-004
   8.1600000000000006E-002     1.7920449317898601E-004
   8.2699999999999996E-002     1.8505839398130774E-004
   8.3799999999999986E-002     1.9157381029799581E-004
   8.4900000000000031E-002     1.9769842037931085E-004
   8.6000000000000021E-002     2.0251631212886423E-004
   8.7100000000000011E-002     2.0623498130589724E-004
   8.8200000000000001E-002     2.1018822735641152E-004
   8.9299999999999990E-002     2.1562662732321769E-004
   9.0399999999999980E-002     2.2247759625315666E-004
   9.1500000000000026E-002     2.2934307344257832E-004
   9.2600000000000016E-002     2.3478620278183371E-004
   9.3700000000000006E-002     2.3870360746514052E-004
   9.4799999999999995E-002     2.4236823082901537E-004
   9.5899999999999985E-002     2.4710537400096655E-004
   9.7000000000000031E-002     2.5283830473199487E-004
   9.8100000000000021E-002     2.5813333922997117E-004
   9.9200000000000010E-002     2.6161127607338130E-004
  0.10030000000000000          2.6344161597080529E-004
  0.10139999999999999          2.6525981957092881E-004
  0.10249999999999998          2.6863647508434951E-004
  0.10360000000000003          2.7363639674149454E-004
  0.10470000000000002          2.7878460241481662E-004
  0.10580000000000001          2.8247520094737411E-004
  0.10690000000000000          2.8436639695428312E-004
  0.10799999999999998          2.8552825096994638E-004
  0.10910000000000003          2.8703908901661634E-004
  0.11020000000000002          2.8888179804198444E-004
  0.11130000000000001          2.8997918707318604E-004
  0.11240000000000000          2.8952371212653816E-004
  0.11349999999999999          2.8807061607949436E-004
  0.11460000000000004          2.8693120111711323E-004
  0.11570000000000003          2.8690416365861893E-004
  0.11680000000000001          2.8741112328134477E-004
  0.11790000000000000          2.8716737870126963E-004
  0.11899999999999999          2.8541515348479152E-004
  0.12009999999999998          2.8282546554692090E-004
  0.12120000000000003          2.8066165396012366E-004
  0.12230000000000002          2.7921207947656512E-004
  0.12340000000000001          2.7723662788048387E-004
  0.12450000000000000          2.7320021763443947E-004
  0.12559999999999999          2.6707942015491426E-004
  0.12670000000000003          2.6049348525702953E-004
  0.12780000000000002          2.5536472094245255E-004
  0.12890000000000001          2.5164993712678552E-004
  0.13000000000000000          2.4786146241240203E-004
  0.13109999999999999          2.4195677542593330E-004
  0.13219999999999998          2.3392194998450577E-004
  0.13330000000000003          2.2564061509910971E-004
  0.13440000000000002          2.1904632740188390E-004
  0.13550000000000001          2.1405229927040637E-004
  0.13660000000000000          2.0872053573839366E-004
  0.13769999999999999          2.0087412849534303E-004
  0.13880000000000003          1.9068804976996034E-004
  0.13990000000000002          1.8035479297395796E-004
  0.14100000000000001          1.7176917754113674E-004
  0.14210000000000000          1.6478223551530391E-004
  0.14319999999999999          1.5734115731902421E-004
  0.14429999999999998          1.4767838001716882E-004
  0.14540000000000003          1.3679897529073060E-004
  0.14650000000000002          1.2717125355266035E-004
  0.14760000000000001          1.2034548853989691E-004
  0.14870000000000000          1.1472573532955721E-004
  0.14979999999999999          1.0752584785223007E-004
  0.15090000000000003          9.6909796411637217E-005
  0.15200000000000002          8.4280043665785342E-005
  0.15310000000000001          7.3040086135733873E-005
  0.15420000000000000          6.5515581809449941E-005
  0.15529999999999999          6.0281930927885696E-005
  0.15639999999999998          5.3896295867161825E-005
  0.15750000000000003          4.4164582504890859E-005
  0.15860000000000002          3.2631651265546679E-005
  0.15970000000000001          2.3518425223301165E-005
  0.16080000000000000          1.8789784007822163E-005
  0.16189999999999999          1.6680680346325971E-005
  0.16300000000000003          1.2973811863048468E-005
  0.16410000000000002          5.4610632105323020E-006
  0.16520000000000001         -4.4668686314253137E-006
  0.16630000000000000         -1.2489147593441885E-005
  0.16739999999999999         -1.5403462384711020E-005
  0.16850000000000004         -1.4832897250016686E-005
  0.16960000000000003         -1.5217192412819713E-005
  0.17070000000000002         -1.9183120457455516E-005
  0.17180000000000001         -2.5300199922639877E-005
  0.17290000000000000         -2.9552766136475839E-005
  0.17399999999999999         -2.9867436751374044E-005
  0.17510000000000003         -2.7180985853192396E-005
  0.17620000000000002         -2.5377057681907900E-005
  0.17730000000000001         -2.6372608772362582E-005
  0.17840000000000000         -2.8370041036396287E-005
  0.17949999999999999         -2.8408921934897080E-005
  0.18060000000000004         -2.4702507289475761E-005
  0.18170000000000003         -1.9504121155478060E-005
  0.18280000000000002         -1.5998442904674448E-005
  0.18390000000000001         -1.5206342141027562E-005
  0.18500000000000000         -1.4359084161696956E-005
  0.18609999999999999         -9.8234941106056795E-006
  0.18720000000000003         -1.2369789601507364E-006
  0.18830000000000002          8.4581151895690709E-006
  0.18940000000000001          1.5353731214418076E-005
  0.19050000000000000          1.9203918782295659E-005
  0.19159999999999999          2.3306383809540421E-005
  0.19270000000000004          3.1036597647471353E-005
  0.19380000000000003          4.2437965021235868E-005
  0.19490000000000002          5.3633168136002496E-005
  0.19600000000000001          6.0713246057275683E-005
  0.19710000000000000          6.3726118241902441E-005
  0.19819999999999999          6.6631393565330654E-005
  0.19930000000000003          7.4252195190638304E-005
  0.20040000000000002          8.6790169007144868E-005
  0.20150000000000001          1.0131834278581664E-004
  0.20260000000000000          1.1326948151690885E-004
  0.20369999999999999          1.2045715993735939E-004
  0.20480000000000004          1.2468712520785630E-004
  0.20590000000000003          1.3052840949967504E-004
  0.20700000000000002          1.4008786820340902E-004
  0.20810000000000001          1.5124780475161970E-004
  0.20920000000000000          1.6048717952799052E-004
  0.21029999999999999          1.6634835628792644E-004
  0.21140000000000003          1.7065608699340373E-004
  0.21250000000000002          1.7667099018581212E-004
  0.21360000000000001          1.8535334675107151E-004
  0.21470000000000000          1.9554214668460190E-004
  0.21579999999999999          2.0407259580679238E-004
  0.21690000000000004          2.0881254749838263E-004
  0.21800000000000003          2.1066801855340600E-004
  0.21910000000000002          2.1184711658861488E-004
  0.22020000000000001          2.1414566435851157E-004
  0.22130000000000000          2.1882592409383506E-004
  0.22239999999999999          2.2462019114755094E-004
  0.22350000000000003          2.2824433108326048E-004
  0.22460000000000002          2.2900025942362845E-004
  0.22570000000000001          2.2670713951811194E-004
  0.22680000000000000          2.2412829275708646E-004
  0.22789999999999999          2.2296908718999475E-004
  0.22900000000000004          2.2361832088790834E-004
  0.23010000000000003          2.2457860177382827E-004
  0.23120000000000002          2.2295823146123439E-004
  0.23230000000000001          2.1753288456238806E-004
  0.23340000000000000          2.0974389917682856E-004
  0.23450000000000004          2.0353007130324841E-004
  0.23560000000000003          2.0097292144782841E-004
  0.23670000000000002          2.0053707703482360E-004
  0.23780000000000001          1.9720953423529863E-004
  0.23890000000000000          1.8752529285848141E-004
  0.23999999999999999          1.7350076814182103E-004
  0.24110000000000004          1.6100620268844068E-004
  0.24220000000000003          1.5383931167889386E-004
  0.24330000000000002          1.5038155834190547E-004
  0.24440000000000001          1.4538300456479192E-004
  0.24550000000000000          1.3395000132732093E-004
  0.24660000000000004          1.1753470607800409E-004
  0.24770000000000003          1.0227682651020586E-004
  0.24880000000000002          9.3735521659255028E-005
  0.24990000000000001          8.9666507847141474E-005
  0.25100000000000000          8.3345978055149317E-005
  0.25209999999999999          6.9634319515898824E-005
  0.25320000000000004          5.1054317736998200E-005
  0.25430000000000003          3.4706845326581970E-005
  0.25540000000000002          2.6122139388462529E-005
  0.25650000000000001          2.2537793483934365E-005
  0.25760000000000000          1.5790470570209436E-005
  0.25870000000000004          5.9497966731214547E-007
  0.25980000000000003         -1.9111686924588867E-005
  0.26090000000000002         -3.3542204619152471E-005
  0.26200000000000001         -3.7699828681070358E-005
  0.26310000000000000         -3.6545134207699448E-005
  0.26419999999999999         -4.0320272091776133E-005
  0.26530000000000004         -5.5477783462265506E-005
  0.26640000000000003         -7.6614931458607316E-005
  0.26750000000000002         -9.1997600975446403E-005
  0.26860000000000001         -9.4256356533151120E-005
  0.26970000000000000         -8.8613989646546543E-005
  0.27080000000000004         -8.6233172623906285E-005
  0.27190000000000003         -9.5862254966050386E-005
  0.27300000000000002         -1.1228930088691413E-004
  0.27410000000000001         -1.2497557327151299E-004
  0.27520000000000000         -1.2429106573108584E-004
  0.27629999999999999         -1.1411040759412572E-004
  0.27740000000000004         -1.0716325050452724E-004
  0.27850000000000003         -1.1247104703215882E-004
  0.27960000000000002         -1.2649828568100929E-004
  0.28070000000000001         -1.3538952043745667E-004
  0.28179999999999999         -1.2884112948086113E-004
  0.28290000000000004         -1.1381020885892212E-004
  0.28400000000000003         -1.0211134940618649E-004
  0.28510000000000002         -1.0206794831901789E-004
  0.28620000000000001         -1.0991887393174693E-004
  0.28730000000000000         -1.1403219104977325E-004
  0.28840000000000005         -1.0563285468379036E-004
  0.28950000000000004         -8.8302484073210508E-005
  0.29060000000000002         -7.3766626883298159E-005
  0.29170000000000001         -6.9853595050517470E-005
  0.29280000000000000         -7.1564842073712498E-005
  0.29389999999999999         -6.8898283643648028E-005
  0.29500000000000004         -5.6427219533361495E-005
  0.29610000000000003         -3.8809990655863658E-005
  0.29720000000000002         -2.6435905965627171E-005
  0.29830000000000001         -2.2043861463316716E-005
  0.29940000000000000         -1.9854733182000928E-005
  0.30050000000000004         -1.0378009392297827E-005
  0.30160000000000003          7.3783580774033908E-006
  0.30270000000000002          2.4906748876674101E-005
  0.30380000000000001          3.4720749681582674E-005
  0.30490000000000000          3.6559657019097358E-005
  0.30599999999999999          3.8779926399001852E-005
  0.30709999999999998          4.8693756980355829E-005
  0.30819999999999997          6.5543048549443483E-005
  0.30930000000000007          8.0857556895352900E-005
  0.31040000000000006          8.7394531874451786E-005
  0.31150000000000005          8.7562606495339423E-005
  0.31260000000000004          9.1257941676303744E-005
  0.31370000000000003          1.0213960922555998E-004
  0.31480000000000002          1.1662799806799740E-004
  0.31590000000000001          1.2505718041211367E-004
  0.31700000000000000          1.2495771807152778E-004
  0.31809999999999999          1.1870861635543406E-004
  0.31919999999999998          1.1602465383475646E-004
  0.32029999999999997          1.2173030700068921E-004
  0.32140000000000007          1.3114826288074255E-004
  0.32250000000000006          1.3681051495950669E-004
  0.32360000000000005          1.3335864059627056E-004
  0.32470000000000004          1.2360069376882166E-004
  0.32580000000000003          1.1579181591514498E-004
  0.32690000000000002          1.1355611786711961E-004
  0.32800000000000001          1.1331604764563963E-004
  0.32910000000000000          1.0741507867351174E-004
  0.33019999999999999          9.4893381174188107E-005
  0.33129999999999998          7.9965087934397161E-005
  0.33239999999999997          6.8471941631287336E-005
  0.33350000000000007          6.0877813666593283E-005
  0.33460000000000006          5.1349095883779228E-005
  0.33570000000000005          3.5500754165695980E-005
  0.33680000000000004          1.5297668142011389E-005
  0.33790000000000003         -3.6630131035053637E-006
  0.33900000000000002         -1.7708331142785028E-005
  0.34010000000000001         -3.0152266845107079E-005
  0.34120000000000000         -5.0042490329360589E-005
  0.34229999999999999         -7.8889963333494961E-005
  0.34339999999999998         -1.1057579831685871E-004
  0.34449999999999997         -1.3435508299153298E-004
  0.34560000000000007         -1.4733523130416870E-004
  0.34670000000000006         -1.5969327068887651E-004
  0.34780000000000005         -1.8314884800929576E-004
  0.34890000000000004         -2.2073384025134146E-004
