 -0.20000000000000001          0.0000000000000000
 -0.19890000000000002          0.0000000000000000
 -0.19780000000000000          0.0000000000000000
 -0.19670000000000001         -3.7832921861991053E-006
 -0.19560000000000002         -9.1304182205931284E-006
 -0.19450000000000001          3.6537551295623416E-006
 -0.19340000000000002          4.8630430683260784E-005
 -0.19230000000000000          9.1267116658855230E-005
 -0.19120000000000001          6.5287749748677015E-005
 -0.19010000000000002         -2.8551963623613119E-005
 -0.18900000000000000         -7.2979200922418386E-005
 -0.18790000000000001          2.3363938453258015E-005
 -0.18680000000000002          1.0627342999214306E-004
 -0.18570000000000000         -1.6347746714018285E-004
 -0.18460000000000001         -8.2650867989286780E-004
 -0.18350000000000000         -1.1949881445616484E-003
 -0.18240000000000001         -2.3531909391749650E-004
 -0.18130000000000002          2.1854143124073744E-003
 -0.18020000000000000          4.3675308115780354E-003
 -0.17910000000000001          3.6295396275818348E-003
 -0.17800000000000002         -1.1149392230436206E-003
 -0.17690000000000000         -7.3020854033529758E-003
 -0.17580000000000001         -9.8064662888646126E-003
 -0.17470000000000002         -5.1883119158446789E-003
 -0.17360000000000000          4.4242981821298599E-003
 -0.17250000000000001          1.2013621628284454E-002
 -0.17140000000000000          1.1339676566421986E-002
 -0.17030000000000001          2.8765366878360510E-003
 -0.16920000000000002         -5.9304302558302879E-003
 -0.16810000000000000         -7.2348657995462418E-003
 -0.16700000000000001         -5.3355965064838529E-004
 -0.16589999999999999          6.0523166321218014E-003
 -0.16480000000000000          3.0453505460172892E-003
 -0.16370000000000001         -1.0761444456875324E-002
 -0.16260000000000002         -2.5411071255803108E-002
 -0.16150000000000000         -2.6960171759128571E-002
 -0.16040000000000001         -8.8939759880304337E-003
 -0.15930000000000000          2.1874563768506050E-002
 -0.15820000000000001          4.9052603542804718E-002
 -0.15710000000000002          5.7084091007709503E-002
 -0.15600000000000000          3.9498452097177505E-002
 -0.15490000000000001          1.2331682955846190E-003
 -0.15379999999999999         -4.3570313602685928E-002
 -0.15270000000000000         -7.5459718704223633E-002
 -0.15160000000000001         -7.5555719435214996E-002
 -0.15050000000000002         -3.5048376768827438E-002
 -0.14940000000000001          3.4800324589014053E-002
 -0.14830000000000002         0.10144630819559097
 -0.14720000000000000         0.12610065937042236
 -0.14610000000000001          8.9772030711174011E-002
 -0.14500000000000002          1.1599696241319180E-002
 -0.14390000000000000         -5.8581274002790451E-002
 -0.14280000000000001         -7.2901137173175812E-002
 -0.14169999999999999         -2.0501688122749329E-002
 -0.14060000000000000          6.3029125332832336E-002
 -0.13950000000000001         0.12073093652725220
 -0.13840000000000002         0.11476121097803116
 -0.13730000000000001          5.1031734794378281E-002
 -0.13619999999999999         -2.8935495764017105E-002
 -0.13510000000000000         -7.8662872314453125E-002
 -0.13400000000000001         -7.4212297797203064E-002
 -0.13290000000000002         -2.1062996238470078E-002
 -0.13180000000000000          5.6612946093082428E-002
 -0.13070000000000001         0.12963388860225677
 -0.12959999999999999         0.17174242436885834
 -0.12850000000000000         0.16533079743385315
 -0.12740000000000001         0.11053473502397537
 -0.12630000000000002          3.2955940812826157E-002
 -0.12520000000000001         -2.2635266184806824E-002
 -0.12410000000000000         -1.6988944262266159E-002
 -0.12300000000000001          5.5453035980463028E-002
 -0.12190000000000001         0.15926140546798706
 -0.12080000000000000         0.24173289537429810
 -0.11970000000000000         0.27031394839286804
 -0.11860000000000001         0.25250118970870972
 -0.11750000000000001         0.22209858894348145
 -0.11640000000000000         0.20664687454700470
 -0.11530000000000000         0.20745690166950226
 -0.11420000000000001         0.20936872065067291
 -0.11310000000000001         0.20672725141048431
 -0.11200000000000000         0.21622861921787262
 -0.11090000000000001         0.26209762692451477
 -0.10980000000000001         0.34867528080940247
 -0.10870000000000000         0.44924828410148621
 -0.10760000000000000         0.52398300170898438
 -0.10650000000000001         0.55119317770004272
 -0.10540000000000001         0.54382646083831787
 -0.10430000000000000         0.53819769620895386
 -0.10320000000000000         0.56741893291473389
 -0.10210000000000001         0.64245551824569702
 -0.10100000000000001         0.75184071063995361
  -9.9900000000000003E-002    0.87314742803573608
  -9.8799999999999999E-002    0.98399835824966431
  -9.7700000000000009E-002     1.0688998699188232
  -9.6600000000000005E-002     1.1254471540451050
  -9.5500000000000002E-002     1.1693177223205566
  -9.4400000000000012E-002     1.2299036979675293
  -9.3300000000000008E-002     1.3322482109069824
  -9.2200000000000004E-002     1.4767699241638184
  -9.1100000000000000E-002     1.6372827291488647
  -9.0000000000000011E-002     1.7845425605773926
  -8.8900000000000007E-002     1.9158974885940552
  -8.7800000000000003E-002     2.0602900981903076
  -8.6699999999999999E-002     2.2497487068176270
  -8.5600000000000009E-002     2.4841356277465820
  -8.4500000000000006E-002     2.7273156642913818
  -8.3400000000000002E-002     2.9427416324615479
  -8.2299999999999998E-002     3.1333928108215332
  -8.1200000000000008E-002     3.3421864509582520
  -8.0100000000000005E-002     3.6087040901184082
  -7.9000000000000001E-002     3.9270699024200439
  -7.7899999999999997E-002     4.2530570030212402
  -7.6800000000000007E-002     4.5568842887878418
  -7.5700000000000003E-002     4.8646159172058105
  -7.4600000000000000E-002     5.2372403144836426
  -7.3500000000000010E-002     5.7020707130432129
  -7.2399999999999992E-002     6.2099757194519043
  -7.1300000000000002E-002     6.6741423606872559
  -7.0200000000000012E-002     7.0612025260925293
  -6.9099999999999995E-002     7.4412102699279785
  -6.8000000000000005E-002     7.9338669776916504
  -6.6900000000000015E-002     8.5937347412109375
  -6.5799999999999997E-002     9.3494367599487305
  -6.4700000000000008E-002     10.068192481994629
  -6.3599999999999990E-002     10.690046310424805
  -6.2500000000000000E-002     11.296263694763184
  -6.1400000000000010E-002     12.033337593078613
  -6.0299999999999992E-002     12.961214065551758
  -5.9200000000000003E-002     13.981467247009277
  -5.8100000000000013E-002     14.929667472839355
  -5.6999999999999995E-002     15.747194290161133
  -5.5900000000000005E-002     16.556940078735352
  -5.4800000000000015E-002     17.554317474365234
  -5.3699999999999998E-002     18.813026428222656
  -5.2600000000000008E-002     20.203929901123047
  -5.1499999999999990E-002     21.520259857177734
  -5.0400000000000000E-002     22.689834594726562
  -4.9300000000000010E-002     23.859455108642578
  -4.8199999999999993E-002     25.253181457519531
  -4.7100000000000003E-002     26.942255020141602
  -4.6000000000000013E-002     28.761512756347656
  -4.4899999999999995E-002     30.469713211059570
  -4.3800000000000006E-002     32.000080108642578
  -4.2699999999999988E-002     33.542968750000000
  -4.1599999999999998E-002     35.366512298583984
  -4.0500000000000008E-002     37.546432495117188
  -3.9399999999999991E-002     39.881679534912109
  -3.8300000000000001E-002     42.091056823730469
  -3.7200000000000011E-002     44.101341247558594
  -3.6099999999999993E-002     46.133468627929688
  -3.5000000000000003E-002     48.488883972167969
  -3.3900000000000013E-002     51.245826721191406
  -3.2799999999999996E-002     54.172439575195312
  -3.1700000000000006E-002     56.953113555908203
  -3.0599999999999988E-002     59.505168914794922
  -2.9499999999999998E-002     62.066913604736328
  -2.8400000000000009E-002     64.964843750000000
  -2.7299999999999991E-002     68.289299011230469
  -2.6200000000000001E-002     71.809478759765625
  -2.5100000000000011E-002     75.209617614746094
  -2.3999999999999994E-002     78.410102844238281
  -2.2900000000000004E-002     81.648208618164062
  -2.1800000000000014E-002     85.230911254882812
  -2.0699999999999996E-002     89.222450256347656
  -1.9600000000000006E-002     93.375137329101562
  -1.8499999999999989E-002     97.382438659667969
  -1.7399999999999999E-002     101.18653869628906
  -1.6300000000000009E-002     105.03535461425781
  -1.5199999999999991E-002     109.22874450683594
  -1.4100000000000001E-002     113.81829071044922
  -1.3000000000000012E-002     118.56484985351562
  -1.1899999999999994E-002     123.19187164306641
  -1.0800000000000004E-002     127.66185760498047
  -9.6999999999999864E-003     132.20622253417969
  -8.5999999999999965E-003     137.07298278808594
  -7.5000000000000067E-003     142.26766967773438
  -6.3999999999999890E-003     147.55505371093750
  -5.2999999999999992E-003     152.70588684082031
  -4.2000000000000093E-003     157.73103332519531
  -3.0999999999999917E-003     162.85708618164062
  -2.0000000000000018E-003     168.27891540527344
  -9.0000000000001190E-004     173.95347595214844
   2.0000000000000573E-004     179.65431213378906
   1.2999999999999956E-003     185.21746826171875
   2.4000000000000132E-003     190.71340942382812
   3.5000000000000031E-003     196.36680603027344
   4.5999999999999930E-003     202.30003356933594
   5.7000000000000106E-003     208.39118957519531
   6.8000000000000005E-003     214.39765930175781
   7.8999999999999904E-003     220.20545959472656
   9.0000000000000080E-003     225.95578002929688
   1.0099999999999998E-002     231.89015197753906
   1.1199999999999988E-002     238.09329223632812
   1.2300000000000005E-002     244.39492797851562
   1.3399999999999995E-002     250.54689025878906
   1.4500000000000013E-002     256.46969604492188
   1.5600000000000003E-002     262.34170532226562
   1.6699999999999993E-002     268.39624023437500
   1.7800000000000010E-002     274.67785644531250
   1.8900000000000000E-002     280.98233032226562
   1.9999999999999990E-002     287.06903076171875
   2.1100000000000008E-002     292.90979003906250
   2.2199999999999998E-002     298.69876098632812
   2.3300000000000015E-002     304.65289306640625
   2.4400000000000005E-002     310.76712036132812
   2.5499999999999995E-002     316.82077026367188
   2.6600000000000013E-002     322.60345458984375
   2.7700000000000002E-002     328.13241577148438
   2.8799999999999992E-002     333.62145996093750
   2.9900000000000010E-002     339.25018310546875
   3.1000000000000000E-002     344.97814941406250
   3.2099999999999990E-002     350.57202148437500
   3.3200000000000007E-002     355.86718750000000
   3.4299999999999997E-002     360.92037963867188
   3.5400000000000015E-002     365.94686889648438
   3.6500000000000005E-002     371.07763671875000
   3.7599999999999995E-002     376.22149658203125
   3.8700000000000012E-002     381.14932250976562
   3.9800000000000002E-002     385.73880004882812
   4.0899999999999992E-002     390.09954833984375
   4.2000000000000010E-002     394.45330810546875
   4.3099999999999999E-002     398.88980102539062
   4.4200000000000017E-002     403.27139282226562
   4.5300000000000007E-002     407.39398193359375
   4.6399999999999997E-002     411.19525146484375
   4.7500000000000014E-002     414.81323242187500
   4.8600000000000004E-002     418.43566894531250
   4.9699999999999994E-002     422.09164428710938
   5.0800000000000012E-002     425.60894775390625
   5.1900000000000002E-002     428.80313110351562
   5.2999999999999992E-002     431.67074584960938
   5.4099999999999981E-002     434.40255737304688
   5.5200000000000027E-002     437.17727661132812
   5.6300000000000017E-002     439.98263549804688
   5.7400000000000007E-002     442.61859130859375
   5.8499999999999996E-002     444.91497802734375
   5.9599999999999986E-002     446.91113281250000
   6.0700000000000032E-002     448.80593872070312
   6.1800000000000022E-002     450.75564575195312
   6.2900000000000011E-002     452.70455932617188
   6.4000000000000001E-002     454.44274902343750
   6.5099999999999991E-002     455.83959960937500
   6.6199999999999981E-002     456.97543334960938
   6.7300000000000026E-002     458.06710815429688
   6.8400000000000016E-002     459.23968505859375
   6.9500000000000006E-002     460.39874267578125
   7.0599999999999996E-002     461.34057617187500
   7.1699999999999986E-002     461.95806884765625
   7.2800000000000031E-002     462.36337280273438
   7.3900000000000021E-002     462.76007080078125
   7.5000000000000011E-002     463.22933959960938
   7.6100000000000001E-002     463.68417358398438
   7.7199999999999991E-002     463.94534301757812
   7.8299999999999981E-002     463.93551635742188
   7.9400000000000026E-002     463.77566528320312
   8.0500000000000016E-002     463.62573242187500
   8.1600000000000006E-002     463.54089355468750
   8.2699999999999996E-002     463.40570068359375
   8.3799999999999986E-002     463.09329223632812
   8.4900000000000031E-002     462.58700561523438
   8.6000000000000021E-002     462.00863647460938
   8.7100000000000011E-002     461.48208618164062
   8.8200000000000001E-002     461.00845336914062
   8.9299999999999990E-002     460.47048950195312
   9.0399999999999980E-002     459.76290893554688
   9.1500000000000026E-002     458.92245483398438
   9.2600000000000016E-002     458.07662963867188
   9.3700000000000006E-002     457.31744384765625
   9.4799999999999995E-002     456.61599731445312
   9.5899999999999985E-002     455.83413696289062
   9.7000000000000031E-002     454.88970947265625
   9.8100000000000021E-002     453.84542846679688
   9.9200000000000010E-002     452.83862304687500
  0.10030000000000000          451.94869995117188
  0.10139999999999999          451.10247802734375
  0.10249999999999998          450.20410156250000
  0.10360000000000003          449.19091796875000
  0.10470000000000002          448.15487670898438
  0.10580000000000001          447.18859863281250
  0.10690000000000000          446.31192016601562
  0.10799999999999998          445.46459960937500
  0.10910000000000003          444.54226684570312
  0.11020000000000002          443.54403686523438
  0.11130000000000001          442.54116821289062
  0.11240000000000000          441.60519409179688
  0.11349999999999999          440.74523925781250
  0.11460000000000004          439.90075683593750
  0.11570000000000003          439.04238891601562
  0.11680000000000001          438.20071411132812
  0.11790000000000000          437.42425537109375
  0.11899999999999999          436.71908569335938
  0.12009999999999998          436.02352905273438
  0.12120000000000003          435.27813720703125
  0.12230000000000002          434.49209594726562
  0.12340000000000001          433.73745727539062
  0.12450000000000000          433.08303833007812
  0.12559999999999999          432.50106811523438
  0.12670000000000003          431.92962646484375
  0.12780000000000002          431.30798339843750
  0.12890000000000001          430.68585205078125
  0.13000000000000000          430.14181518554688
  0.13109999999999999          429.71612548828125
  0.13219999999999998          429.34445190429688
  0.13330000000000003          428.93743896484375
  0.13440000000000002          428.45626831054688
  0.13550000000000001          427.96832275390625
  0.13660000000000000          427.57247924804688
  0.13769999999999999          427.28701782226562
  0.13880000000000003          427.01135253906250
  0.13990000000000002          426.66696166992188
  0.14100000000000001          426.26864624023438
  0.14210000000000000          425.93542480468750
  0.14319999999999999          425.75027465820312
  0.14429999999999998          425.66665649414062
  0.14540000000000003          425.54055786132812
  0.14650000000000002          425.27670288085938
  0.14760000000000001          424.96496582031250
  0.14870000000000000          424.75463867187500
  0.14979999999999999          424.71569824218750
  0.15090000000000003          424.74298095703125
  0.15200000000000002          424.67654418945312
  0.15310000000000001          424.45123291015625
  0.15420000000000000          424.19290161132812
  0.15529999999999999          424.06817626953125
  0.15639999999999998          424.12463378906250
  0.15750000000000003          424.21218872070312
  0.15860000000000002          424.15594482421875
  0.15970000000000001          423.95028686523438
  0.16080000000000000          423.77484130859375
  0.16189999999999999          423.81216430664062
  0.16300000000000003          424.02493286132812
  0.16410000000000002          424.19500732421875
  0.16520000000000001          424.11886596679688
  0.16630000000000000          423.84002685546875
  0.16739999999999999          423.61422729492188
  0.16850000000000004          423.64285278320312
  0.16960000000000003          423.87896728515625
  0.17070000000000002          424.04840087890625
  0.17180000000000001          423.95458984375000
  0.17290000000000000          423.68740844726562
  0.17399999999999999          423.53247070312500
  0.17510000000000003          423.68078613281250
  0.17620000000000002          424.00198364257812
  0.17730000000000001          424.17401123046875
  0.17840000000000000          424.01095581054688
  0.17949999999999999          423.65032958984375
  0.18060000000000004          423.42538452148438
  0.18170000000000003          423.52142333984375
  0.18280000000000002          423.78833007812500
  0.18390000000000001          423.90914916992188
  0.18500000000000000          423.72695922851562
  0.18609999999999999          423.40365600585938
  0.18720000000000003          423.23202514648438
  0.18830000000000002          423.35235595703125
  0.18940000000000001          423.58489990234375
  0.19050000000000000          423.63241577148438
  0.19159999999999999          423.38107299804688
  0.19270000000000004          423.02966308593750
  0.19380000000000003          422.84967041015625
  0.19490000000000002          422.90542602539062
  0.19600000000000001          422.99578857421875
  0.19710000000000000          422.89105224609375
  0.19819999999999999          422.57168579101562
  0.19930000000000003          422.27175903320312
  0.20040000000000002          422.19857788085938
  0.20150000000000001          422.29998779296875
  0.20260000000000000          422.31939697265625
  0.20369999999999999          422.06497192382812
  0.20480000000000004          421.62689208984375
  0.20590000000000003          421.27905273437500
  0.20700000000000002          421.21066284179688
  0.20810000000000001          421.28997802734375
  0.20920000000000000          421.21679687500000
  0.21029999999999999          420.84353637695312
  0.21140000000000003          420.32135009765625
  0.21250000000000002          419.96676635742188
  0.21360000000000001          419.91543579101562
  0.21470000000000000          419.96112060546875
  0.21579999999999999          419.79144287109375
  0.21690000000000004          419.30767822265625
  0.21800000000000003          418.72592163085938
  0.21910000000000002          418.37402343750000
  0.22020000000000001          418.34100341796875
  0.22130000000000000          418.36569213867188
  0.22239999999999999          418.12405395507812
  0.22350000000000003          417.55200195312500
  0.22460000000000002          416.90716552734375
  0.22570000000000001          416.51156616210938
  0.22680000000000000          416.40890502929688
  0.22789999999999999          416.34164428710938
  0.22900000000000004          416.02792358398438
  0.23010000000000003          415.44360351562500
  0.23120000000000002          414.85964965820312
  0.23230000000000001          414.51660156250000
  0.23340000000000000          414.39898681640625
  0.23450000000000004          414.23406982421875
  0.23560000000000003          413.80496215820312
  0.23670000000000002          413.17852783203125
  0.23780000000000001          412.62280273437500
  0.23890000000000000          412.31991577148438
  0.23999999999999999          412.17050170898438
  0.24110000000000004          411.89337158203125
  0.24220000000000003          411.34097290039062
  0.24330000000000002          410.67807006835938
  0.24440000000000001          410.19418334960938
  0.24550000000000000          409.98913574218750
  0.24660000000000004          409.88256835937500
  0.24770000000000003          409.58581542968750
  0.24880000000000002          409.00076293945312
  0.24990000000000001          408.33590698242188
  0.25100000000000000          407.88345336914062
  0.25209999999999999          407.67938232421875
  0.25320000000000004          407.51080322265625
  0.25430000000000003          407.11703491210938
  0.25540000000000002          406.49023437500000
  0.25650000000000001          405.88626098632812
  0.25760000000000000          405.56176757812500
  0.25870000000000004          405.49090576171875
  0.25980000000000003          405.38592529296875
  0.26090000000000002          404.99609375000000
  0.26200000000000001          404.37594604492188
  0.26310000000000000          403.79959106445312
  0.26419999999999999          403.50332641601562
  0.26530000000000004          403.42584228515625
  0.26640000000000003          403.27728271484375
  0.26750000000000002          402.86880493164062
  0.26860000000000001          402.30215454101562
  0.26970000000000000          401.85375976562500
  0.27080000000000004          401.68368530273438
  0.27190000000000003          401.66564941406250
  0.27300000000000002          401.53182983398438
  0.27410000000000001          401.16690063476562
  0.27520000000000000          400.70977783203125
  0.27629999999999999          400.41720581054688
  0.27740000000000004          400.35653686523438
  0.27850000000000003          400.35101318359375
  0.27960000000000002          400.15936279296875
  0.28070000000000001          399.75885009765625
  0.28179999999999999          399.36889648437500
  0.28290000000000004          399.21566772460938
  0.28400000000000003          399.29522705078125
  0.28510000000000002          399.37734985351562
  0.28620000000000001          399.23849487304688
  0.28730000000000000          398.91055297851562
  0.28840000000000005          398.63552856445312
  0.28950000000000004          398.61242675781250
  0.29060000000000002          398.77722167968750
  0.29170000000000001          398.89410400390625
  0.29280000000000000          398.78973388671875
  0.29389999999999999          398.55313110351562
  0.29500000000000004          398.41180419921875
  0.29610000000000003          398.50881958007812
  0.29720000000000002          398.74258422851562
  0.29830000000000001          398.89605712890625
  0.29940000000000000          398.84732055664062
  0.30050000000000004          398.70806884765625
  0.30160000000000003          398.69973754882812
  0.30270000000000002          398.91287231445312
  0.30380000000000001          399.23309326171875
  0.30490000000000000          399.46096801757812
  0.30599999999999999          399.53073120117188
  0.30709999999999998          399.56192016601562
  0.30819999999999997          399.70739746093750
  0.30930000000000007          399.97616577148438
  0.31040000000000006          400.25476074218750
  0.31150000000000005          400.42874145507812
  0.31260000000000004          400.56307983398438
  0.31370000000000003          400.78887939453125
  0.31480000000000002          401.17132568359375
  0.31590000000000001          401.61801147460938
  0.31700000000000000          401.97186279296875
  0.31809999999999999          402.18820190429688
  0.31919999999999998          402.40380859375000
  0.32029999999999997          402.76062011718750
  0.32140000000000007          403.26489257812500
  0.32250000000000006          403.74865722656250
  0.32360000000000005          404.07818603515625
  0.32470000000000004          404.31417846679688
  0.32580000000000003          404.65304565429688
  0.32690000000000002          405.21969604492188
  0.32800000000000001          405.90750122070312
  0.32910000000000000          406.47845458984375
  0.33019999999999999          406.82064819335938
  0.33129999999999998          407.08178710937500
  0.33239999999999997          407.53448486328125
  0.33350000000000007          408.27413940429688
  0.33460000000000006          409.09750366210938
  0.33570000000000005          409.71041870117188
  0.33680000000000004          410.04907226562500
  0.33790000000000003          410.33859252929688
  0.33900000000000002          410.88778686523438
  0.34010000000000001          411.75488281250000
  0.34120000000000000          412.66027832031250
  0.34229999999999999          413.30178833007812
  0.34339999999999998          413.66363525390625
  0.34449999999999997          414.05139160156250
  0.34560000000000007          414.76104736328125
  0.34670000000000006          415.73840332031250
  0.34780000000000005          416.64562988281250
  0.34890000000000004          417.20614624023438
