 -0.20000000000000001          6.1200268100947142E-004
 -0.19890000000000002          1.5700874791946262E-004
 -0.19780000000000000         -3.6473202635534108E-004
 -0.19670000000000001         -4.5015901559963822E-004
 -0.19560000000000002         -6.4338673837482929E-005
 -0.19450000000000001          3.4157308982685208E-004
 -0.19340000000000002          3.1916284933686256E-004
 -0.19230000000000000         -1.0027204552898183E-004
 -0.19120000000000001         -4.4295479892753065E-004
 -0.19010000000000002         -3.0209202668629587E-004
 -0.18900000000000000          2.2073576110415161E-004
 -0.18790000000000001          6.1065325280651450E-004
 -0.18680000000000002          4.7384417848661542E-004
 -0.18570000000000000         -4.9489219236420467E-005
 -0.18460000000000001         -4.2795477202162147E-004
 -0.18350000000000000         -2.8902155463583767E-004
 -0.18240000000000001          1.9904217333532870E-004
 -0.18130000000000002          5.1143206655979156E-004
 -0.18020000000000000          3.2131274929270148E-004
 -0.17910000000000001         -1.5806261217221618E-004
 -0.17800000000000002         -4.0094158612191677E-004
 -0.17690000000000000         -1.2484061880968511E-004
 -0.17580000000000001          4.1002419311553240E-004
 -0.17470000000000002          6.7106203641742468E-004
 -0.17360000000000000          4.0856565465219319E-004
 -0.17250000000000001         -8.5984058387111872E-005
 -0.17140000000000000         -2.8682858101092279E-004
 -0.17030000000000001          1.8048320271191187E-005
 -0.16920000000000002          5.1138503476977348E-004
 -0.16810000000000000          6.8530038697645068E-004
 -0.16700000000000001          3.7517762393690646E-004
 -0.16589999999999999         -7.0641624915879220E-005
 -0.16480000000000000         -1.5877818805165589E-004
 -0.16370000000000001          2.3325372603721917E-004
 -0.16260000000000002          7.3316594352945685E-004
 -0.16150000000000000          8.6641882080584764E-004
 -0.16040000000000001          5.4930004989728332E-004
 -0.15930000000000000          1.6721460269764066E-004
 -0.15820000000000001          1.6329569916706532E-004
 -0.15710000000000002          5.7490589097142220E-004
 -0.15600000000000000          1.0033192811533809E-003
 -0.15490000000000001          1.0412379633635283E-003
 -0.15379999999999999          7.0303631946444511E-004
 -0.15270000000000000          4.0592983714304864E-004
 -0.15160000000000001          5.2805803716182709E-004
 -0.15050000000000002          1.0124166728928685E-003
 -0.14940000000000001          1.4318356988951564E-003
 -0.14830000000000002          1.4409647556021810E-003
 -0.14720000000000000          1.1359843192622066E-003
 -0.14610000000000001          9.4607914797961712E-004
 -0.14500000000000002          1.1772712459787726E-003
 -0.14390000000000000          1.6924114897847176E-003
 -0.14280000000000001          2.0618739072233438E-003
 -0.14169999999999999          2.0207427442073822E-003
 -0.14060000000000000          1.7473123734816909E-003
 -0.13950000000000001          1.6724208835512400E-003
 -0.13840000000000002          2.0247537177056074E-003
 -0.13730000000000001          2.5937063619494438E-003
 -0.13619999999999999          2.9563871212303638E-003
 -0.13510000000000000          2.9252383392304182E-003
 -0.13400000000000001          2.7436050586402416E-003
 -0.13290000000000002          2.8250284958630800E-003
 -0.13180000000000000          3.3163046464323997E-003
 -0.13070000000000001          3.9443136192858219E-003
 -0.12959999999999999          4.3053235858678818E-003
 -0.12850000000000000          4.2897420935332775E-003
 -0.12740000000000001          4.1951527819037437E-003
 -0.12630000000000002          4.4130780734121799E-003
 -0.12520000000000001          5.0208903849124908E-003
 -0.12410000000000000          5.7079852558672428E-003
 -0.12300000000000001          6.1067701317369938E-003
 -0.12190000000000001          6.1792093329131603E-003
 -0.12080000000000000          6.2516629695892334E-003
 -0.11970000000000000          6.6676493734121323E-003
 -0.11860000000000001          7.4281529523432255E-003
 -0.11750000000000001          8.1939511001110077E-003
 -0.11640000000000000          8.6445305496454239E-003
 -0.11530000000000000          8.8118910789489746E-003
 -0.11420000000000001          9.0424465015530586E-003
 -0.11310000000000001          9.6333902329206467E-003
 -0.11200000000000000          1.0525374673306942E-002
 -0.11090000000000001          1.1374419555068016E-002
 -0.10980000000000001          1.1917128227651119E-002
 -0.10870000000000000          1.2242880649864674E-002
 -0.10760000000000000          1.2694327160716057E-002
 -0.10650000000000001          1.3502544723451138E-002
 -0.10540000000000001          1.4550519175827503E-002
 -0.10430000000000000          1.5500113368034363E-002
 -0.10320000000000000          1.6150055453181267E-002
 -0.10210000000000001          1.6643574461340904E-002
 -0.10100000000000001          1.7309777438640594E-002
  -9.9900000000000003E-002     1.8318342044949532E-002
  -9.8799999999999999E-002     1.9505089148879051E-002
  -9.7700000000000009E-002     2.0551502704620361E-002
  -9.6600000000000005E-002     2.1322218701243401E-002
  -9.5500000000000002E-002     2.2001039236783981E-002
  -9.4400000000000012E-002     2.2891895845532417E-002
  -9.3300000000000008E-002     2.4098608642816544E-002
  -9.2200000000000004E-002     2.5421755388379097E-002
  -9.1100000000000000E-002     2.6571176946163177E-002
  -9.0000000000000011E-002     2.7474302798509598E-002
  -8.8900000000000007E-002     2.8337612748146057E-002
  -8.7800000000000003E-002     2.9431708157062531E-002
  -8.6699999999999999E-002     3.0798144638538361E-002
  -8.5600000000000009E-002     3.2215043902397156E-002
  -8.4500000000000006E-002     3.3429857343435287E-002
  -8.3400000000000002E-002     3.4427080303430557E-002
  -8.2299999999999998E-002     3.5430550575256348E-002
  -8.1200000000000008E-002     3.6673605442047119E-002
  -8.0100000000000005E-002     3.8150921463966370E-002
  -7.9000000000000001E-002     3.9624299854040146E-002
  -7.7899999999999997E-002     4.0879391133785248E-002
  -7.6800000000000007E-002     4.1940502822399139E-002
  -7.5700000000000003E-002     4.3041430413722992E-002
  -7.4600000000000000E-002     4.4371522963047028E-002
  -7.3500000000000010E-002     4.5878697186708450E-002
  -7.2399999999999992E-002     4.7322679311037064E-002
  -7.1300000000000002E-002     4.8534717410802841E-002
  -7.0200000000000012E-002     4.9579624086618423E-002
  -6.9099999999999995E-002     5.0685640424489975E-002
  -6.8000000000000005E-002     5.1987491548061371E-002
  -6.6900000000000015E-002     5.3407400846481323E-002
  -6.5799999999999997E-002     5.4727308452129364E-002
  -6.4700000000000008E-002     5.5816657841205597E-002
  -6.3599999999999990E-002     5.6768510490655899E-002
  -6.2500000000000000E-002     5.7781010866165161E-002
  -6.1400000000000010E-002     5.8961566537618637E-002
  -6.0299999999999992E-002     6.0194436460733414E-002
  -5.9200000000000003E-002     6.1274066567420959E-002
  -5.8100000000000013E-002     6.2132399529218674E-002
  -5.6999999999999995E-002     6.2863878905773163E-002
  -5.5900000000000005E-002     6.3653692603111267E-002
  -5.4800000000000015E-002     6.4547210931777954E-002
  -5.3699999999999998E-002     6.5437957644462585E-002
  -5.2600000000000008E-002     6.6158324480056763E-002
  -5.1499999999999990E-002     6.6670358180999756E-002
  -5.0400000000000000E-002     6.7079618573188782E-002
  -4.9300000000000010E-002     6.7543506622314453E-002
  -4.8199999999999993E-002     6.8049989640712738E-002
  -4.7100000000000003E-002     6.8503692746162415E-002
  -4.6000000000000013E-002     6.8758323788642883E-002
  -4.4899999999999995E-002     6.8817585706710815E-002
  -4.3800000000000006E-002     6.8774990737438202E-002
  -4.2699999999999988E-002     6.8766660988330841E-002
  -4.1599999999999998E-002     6.8774066865444183E-002
  -4.0500000000000008E-002     6.8669438362121582E-002
  -3.9399999999999991E-002     6.8357400596141815E-002
  -3.8300000000000001E-002     6.7866660654544830E-002
  -3.7200000000000011E-002     6.7314803600311279E-002
  -3.6099999999999993E-002     6.6768512129783630E-002
  -3.5000000000000003E-002     6.6183321177959442E-002
  -3.3900000000000013E-002     6.5468512475490570E-002
  -3.2799999999999996E-002     6.4568512141704559E-002
  -3.1700000000000006E-002     6.3516661524772644E-002
  -3.0599999999999988E-002     6.2396287918090820E-002
  -2.9499999999999998E-002     6.1253696680068970E-002
  -2.8400000000000009E-002     6.0033325105905533E-002
  -2.7299999999999991E-002     5.8679621666669846E-002
  -2.6200000000000001E-002     5.7142585515975952E-002
  -2.5100000000000011E-002     5.5520363152027130E-002
  -2.3999999999999994E-002     5.3868509829044342E-002
  -2.2900000000000004E-002     5.2129622548818588E-002
  -2.1800000000000014E-002     5.0311103463172913E-002
  -2.0699999999999996E-002     4.8346288502216339E-002
  -1.9600000000000006E-002     4.6307399868965149E-002
  -1.8499999999999989E-002     4.4205550104379654E-002
  -1.7399999999999999E-002     4.2046289891004562E-002
  -1.6300000000000009E-002     3.9774067699909210E-002
  -1.5199999999999991E-002     3.7425920367240906E-002
  -1.4100000000000001E-002     3.4999996423721313E-002
  -1.3000000000000012E-002     3.2511107623577118E-002
  -1.1899999999999994E-002     2.9962958768010139E-002
  -1.0800000000000004E-002     2.7385180816054344E-002
  -9.6999999999999864E-003     2.4774070829153061E-002
  -8.5999999999999965E-003     2.2059256210923195E-002
  -7.5000000000000067E-003     1.9329627975821495E-002
  -6.3999999999999890E-003     1.6548145562410355E-002
  -5.2999999999999992E-003     1.3785183429718018E-002
  -4.2000000000000093E-003     1.0948146693408489E-002
  -3.0999999999999917E-003     8.1148138269782066E-003
  -2.0000000000000018E-003     5.2259252406656742E-003
  -9.0000000000001190E-004     2.3370366543531418E-003
   2.0000000000000573E-004    -5.3333328105509281E-004
   1.2999999999999956E-003    -3.3666661474853754E-003
   2.4000000000000132E-003    -6.2740733847022057E-003
   3.5000000000000031E-003    -9.1666653752326965E-003
   4.5999999999999930E-003    -1.2011109851300716E-002
   5.7000000000000106E-003    -1.4799998141825199E-002
   6.8000000000000005E-003    -1.7551848664879799E-002
   7.8999999999999904E-003    -2.0307404920458794E-002
   9.0000000000000080E-003    -2.3022219538688660E-002
   1.0099999999999998E-002    -2.5725921615958214E-002
   1.1199999999999988E-002    -2.8399996459484100E-002
   1.2300000000000005E-002    -3.0966661870479584E-002
   1.3399999999999995E-002    -3.3422216773033142E-002
   1.4500000000000013E-002    -3.5825919359922409E-002
   1.5600000000000003E-002    -3.8251847028732300E-002
   1.6699999999999993E-002    -4.0611106902360916E-002
   1.7800000000000010E-002    -4.2866662144660950E-002
   1.8900000000000000E-002    -4.5051846653223038E-002
   1.9999999999999990E-002    -4.7037031501531601E-002
   2.1100000000000008E-002    -4.8981476575136185E-002
   2.2199999999999998E-002    -5.0951845943927765E-002
   2.3300000000000015E-002    -5.2837029099464417E-002
   2.4400000000000005E-002    -5.4555546492338181E-002
   2.5499999999999995E-002    -5.6207399815320969E-002
   2.6600000000000013E-002    -5.7651843875646591E-002
   2.7700000000000002E-002    -5.9029620140790939E-002
   2.8799999999999992E-002    -6.0459252446889877E-002
   2.9900000000000010E-002    -6.1740733683109283E-002
   3.1000000000000000E-002    -6.2970362603664398E-002
   3.2099999999999990E-002    -6.3925914466381073E-002
   3.3200000000000007E-002    -6.4755544066429138E-002
   3.4299999999999997E-002    -6.5622210502624512E-002
   3.5400000000000015E-002    -6.6414803266525269E-002
   3.6500000000000005E-002    -6.7096285521984100E-002
   3.7599999999999995E-002    -6.7637026309967041E-002
   3.8700000000000012E-002    -6.8029619753360748E-002
   3.9800000000000002E-002    -6.8392582237720490E-002
   4.0899999999999992E-002    -6.8577766418457031E-002
   4.2000000000000010E-002    -6.8792581558227539E-002
   4.3099999999999999E-002    -6.8948142230510712E-002
   4.4200000000000017E-002    -6.8933323025703430E-002
   4.5300000000000007E-002    -6.8748138844966888E-002
   4.6399999999999997E-002    -6.8474061787128448E-002
   4.7500000000000014E-002    -6.8251840770244598E-002
   4.8600000000000004E-002    -6.7933320999145508E-002
   4.9699999999999994E-002    -6.7518509924411774E-002
   5.0800000000000012E-002    -6.7059248685836792E-002
   5.1900000000000002E-002    -6.6437028348445892E-002
   5.2999999999999992E-002    -6.5718509256839752E-002
   5.4099999999999981E-002    -6.4977772533893585E-002
   5.5200000000000027E-002    -6.4318507909774780E-002
   5.6300000000000017E-002    -6.3607402145862579E-002
   5.7400000000000007E-002    -6.2762953341007233E-002
   5.8499999999999996E-002    -6.1696287244558334E-002
   5.9599999999999986E-002    -6.0637030750513077E-002
   6.0700000000000032E-002    -5.9577770531177521E-002
   6.1800000000000022E-002    -5.8666657656431198E-002
   6.2900000000000011E-002    -5.7659253478050232E-002
   6.4000000000000001E-002    -5.6518509984016418E-002
   6.5099999999999991E-002    -5.5333327502012253E-002
   6.6199999999999981E-002    -5.3985178470611572E-002
   6.7300000000000026E-002    -5.2829623222351074E-002
   6.8400000000000016E-002    -5.1651846617460251E-002
   6.9500000000000006E-002    -5.0459250807762146E-002
   7.0599999999999996E-002    -4.9392584711313248E-002
   7.1699999999999986E-002    -4.7985177487134933E-002
   7.2800000000000031E-002    -4.6511106193065643E-002
   7.3900000000000021E-002    -4.5155551284551620E-002
   7.5000000000000011E-002    -4.4044438749551773E-002
   7.6100000000000001E-002    -4.2948141694068909E-002
   7.7199999999999991E-002    -4.1599992662668228E-002
   7.8299999999999981E-002    -4.0214810520410538E-002
   7.9400000000000026E-002    -3.8792587816715240E-002
   8.0500000000000016E-002    -3.7562958896160126E-002
   8.1600000000000006E-002    -3.6533329635858536E-002
   8.2699999999999996E-002    -3.5362958908081055E-002
   8.3799999999999986E-002    -3.3992588520050049E-002
   8.4900000000000031E-002    -3.2681476324796677E-002
   8.6000000000000021E-002    -3.1496293842792511E-002
   8.7100000000000011E-002    -3.0399996787309647E-002
   8.8200000000000001E-002    -2.9355552047491074E-002
   8.9299999999999990E-002    -2.8207404538989067E-002
   9.0399999999999980E-002    -2.6985181495547295E-002
   9.1500000000000026E-002    -2.5822218507528305E-002
   9.2600000000000016E-002    -2.4799996986985207E-002
   9.3700000000000006E-002    -2.3777775466442108E-002
   9.4799999999999995E-002    -2.2911107167601585E-002
   9.5899999999999985E-002    -2.1866664290428162E-002
   9.7000000000000031E-002    -2.0925922319293022E-002
   9.8100000000000021E-002    -1.9859256222844124E-002
   9.9200000000000010E-002    -1.8874071538448334E-002
  0.10030000000000000         -1.8148146569728851E-002
  0.10139999999999999         -1.7444442957639694E-002
  0.10249999999999998         -1.6592590138316154E-002
  0.10360000000000003         -1.5725923702120781E-002
  0.10470000000000002         -1.4740739017724991E-002
  0.10580000000000001         -1.3962960802018642E-002
  0.10690000000000000         -1.3481480069458485E-002
  0.10799999999999998         -1.2925923801958561E-002
  0.10910000000000003         -1.2288887053728104E-002
  0.11020000000000002         -1.1422220617532730E-002
  0.11130000000000001         -1.0644443333148956E-002
  0.11240000000000000         -1.0118517093360424E-002
  0.11349999999999999         -9.7851837053894997E-003
  0.11460000000000004         -9.3925911933183670E-003
  0.11570000000000003         -8.7777767330408096E-003
  0.11680000000000001         -8.0666653811931610E-003
  0.11790000000000000         -7.4962954968214035E-003
  0.11899999999999999         -7.1333325468003750E-003
  0.12009999999999998         -6.9037028588354588E-003
  0.12120000000000003         -6.5481471829116344E-003
  0.12230000000000002         -6.1111100949347019E-003
  0.12340000000000001         -5.5999993346631527E-003
  0.12450000000000000         -5.1851845346391201E-003
  0.12559999999999999         -4.9333325587213039E-003
  0.12670000000000003         -4.7481474466621876E-003
  0.12780000000000002         -4.5555550605058670E-003
  0.12890000000000001         -4.1259252466261387E-003
  0.13000000000000000         -3.6518513225018978E-003
  0.13109999999999999         -3.3629625104367733E-003
  0.13219999999999998         -3.2814810983836651E-003
  0.13330000000000003         -3.2888883724808693E-003
  0.13440000000000002         -3.1407403293997049E-003
  0.13550000000000001         -2.7185182552784681E-003
  0.13660000000000000         -2.3111107293516397E-003
  0.13769999999999999         -2.1629626862704754E-003
  0.13880000000000003         -2.2444440983235836E-003
  0.13990000000000002         -2.2444440983235836E-003
  0.14100000000000001         -2.0444442052394152E-003
  0.14210000000000000         -1.6148146241903305E-003
  0.14319999999999999         -1.3777775457128882E-003
  0.14429999999999998         -1.3925924431532621E-003
  0.14540000000000003         -1.4962961431592703E-003
  0.14650000000000002         -1.4444442931562662E-003
  0.14760000000000001         -1.2814813526347280E-003
  0.14870000000000000         -9.9259242415428162E-004
  0.14979999999999999         -8.7407394312322140E-004
  0.15090000000000003         -8.8148139184340835E-004
  0.15200000000000002         -9.3333318363875151E-004
  0.15310000000000001         -9.4814802287146449E-004
  0.15420000000000000         -8.0740731209516525E-004
  0.15529999999999999         -6.2222214182838798E-004
  0.15639999999999998         -4.8148143105208874E-004
  0.15750000000000003         -4.3703697156161070E-004
  0.15860000000000002         -5.3333328105509281E-004
  0.15970000000000001         -6.2962953234091401E-004
  0.16080000000000000         -5.4814806208014488E-004
  0.16189999999999999         -3.1111107091419399E-004
  0.16300000000000003         -2.1481479052454233E-004
  0.16410000000000002         -2.7407403104007244E-004
  0.16520000000000001         -4.4444439117796719E-004
  0.16630000000000000         -4.5185178169049323E-004
  0.16739999999999999         -2.6666664052754641E-004
  0.16850000000000004         -1.3333332026377320E-004
  0.16960000000000003         -6.6666660131886601E-005
  0.17070000000000002         -1.4814813039265573E-004
  0.17180000000000001         -2.8148145065642893E-004
  0.17290000000000000         -2.8148145065642893E-004
  0.17399999999999999         -1.9999998039565980E-004
  0.17510000000000003         -2.9629625714733265E-005
  0.17620000000000002          3.7037032598163933E-005
  0.17730000000000001         -5.9259251429466531E-005
  0.17840000000000000         -1.7777775065042078E-004
  0.17949999999999999         -2.3703700571786612E-004
  0.18060000000000004         -1.9999998039565980E-004
  0.18170000000000003         -6.6666660131886601E-005
  0.18280000000000002          9.6296280389651656E-005
  0.18390000000000001          5.9259251429466531E-005
  0.18500000000000000         -2.9629625714733265E-005
  0.18609999999999999         -2.1481479052454233E-004
  0.18720000000000003         -1.6296294052153826E-004
  0.18830000000000002         -7.4074064286833163E-006
  0.18940000000000001          1.0370369273005053E-004
  0.19050000000000000          8.8888875325210392E-005
  0.19159999999999999         -4.4444437662605196E-005
  0.19270000000000004         -2.0740738546010107E-004
  0.19380000000000003         -1.4074072532821447E-004
  0.19490000000000002         -1.4814812857366633E-005
  0.19600000000000001          8.1481470260769129E-005
  0.19710000000000000          1.2592591519933194E-004
  0.19819999999999999         -1.4814812857366633E-005
  0.19930000000000003         -1.1851850285893306E-004
  0.20040000000000002         -1.2592591519933194E-004
  0.20150000000000001          2.9629625714733265E-005
  0.20260000000000000          1.0370369273005053E-004
  0.20369999999999999          8.8888875325210392E-005
  0.20480000000000004         -5.9259251429466531E-005
  0.20590000000000003         -1.2592591519933194E-004
  0.20700000000000002         -1.1111109779449180E-004
  0.20810000000000001          5.1851846365025267E-005
  0.20920000000000000          1.2592591519933194E-004
  0.21029999999999999          1.0370369273005053E-004
  0.21140000000000003         -8.1481470260769129E-005
  0.21250000000000002         -1.4814813039265573E-004
  0.21360000000000001         -9.6296280389651656E-005
  0.21470000000000000          1.0370369273005053E-004
  0.21579999999999999          1.5555553545709699E-004
  0.21690000000000004          2.2222218831302598E-005
  0.21800000000000003         -1.0370369273005053E-004
  0.21910000000000002         -1.4074072532821447E-004
  0.22020000000000001         -2.2222218831302598E-005
  0.22130000000000000          1.0370369273005053E-004
  0.22239999999999999          1.5555553545709699E-004
  0.22350000000000003          7.4074065196327865E-005
  0.22460000000000002         -1.5555553545709699E-004
  0.22570000000000001         -2.0740738546010107E-004
  0.22680000000000000         -6.6666660131886601E-005
  0.22789999999999999          1.6296294052153826E-004
  0.22900000000000004          1.9999998039565980E-004
  0.23010000000000003          6.6666660131886601E-005
  0.23120000000000002         -1.9999998039565980E-004
  0.23230000000000001         -1.9259256077930331E-004
  0.23340000000000000         -7.4074064286833163E-006
  0.23450000000000004          1.8518515571486205E-004
  0.23560000000000003          2.0740738546010107E-004
  0.23670000000000002          0.0000000000000000
  0.23780000000000001         -1.7037034558597952E-004
  0.23890000000000000         -1.7777775065042078E-004
  0.23999999999999999         -2.2222218831302598E-005
  0.24110000000000004          1.3333332026377320E-004
  0.24220000000000003          1.4074072532821447E-004
  0.24330000000000002          3.7037032598163933E-005
  0.24440000000000001         -1.1851850285893306E-004
  0.24550000000000000         -1.8518515571486205E-004
  0.24660000000000004         -2.2222218831302598E-005
  0.24770000000000003          1.7777775065042078E-004
  0.24880000000000002          1.9259256077930331E-004
  0.24990000000000001         -1.4814812857366633E-005
  0.25100000000000000         -2.1481479052454233E-004
  0.25209999999999999         -1.7037034558597952E-004
  0.25320000000000004          1.0370369273005053E-004
  0.25430000000000003          1.7777775065042078E-004
  0.25540000000000002          9.6296280389651656E-005
  0.25650000000000001         -8.1481470260769129E-005
  0.25760000000000000         -1.7777775065042078E-004
  0.25870000000000004         -1.0370369273005053E-004
  0.25980000000000003          8.1481470260769129E-005
  0.26090000000000002          1.6296294052153826E-004
  0.26200000000000001          1.1111109779449180E-004
  0.26310000000000000         -7.4074064286833163E-006
  0.26419999999999999         -1.5555553545709699E-004
  0.26530000000000004         -1.1851850285893306E-004
  0.26640000000000003          7.4074064286833163E-006
  0.26750000000000002          1.7777775065042078E-004
  0.26860000000000001          1.1851850285893306E-004
  0.26970000000000000         -2.2222218831302598E-005
  0.27080000000000004         -1.7777775065042078E-004
  0.27190000000000003         -1.4814813039265573E-004
  0.27300000000000002          3.7037032598163933E-005
  0.27410000000000001          1.7037034558597952E-004
  0.27520000000000000          1.1111109779449180E-004
  0.27629999999999999         -1.4814812857366633E-005
  0.27740000000000004         -1.4814813039265573E-004
  0.27850000000000003         -1.0370369273005053E-004
  0.27960000000000002          7.4074064286833163E-006
  0.28070000000000001          1.4074072532821447E-004
  0.28179999999999999          1.3333332026377320E-004
  0.28290000000000004         -2.9629625714733265E-005
  0.28400000000000003         -1.7037034558597952E-004
  0.28510000000000002         -1.2592591519933194E-004
  0.28620000000000001          2.2222218831302598E-005
  0.28730000000000000          1.5555553545709699E-004
  0.28840000000000005          1.3333332026377320E-004
  0.28950000000000004         -6.6666660131886601E-005
  0.29060000000000002         -1.4074072532821447E-004
  0.29170000000000001         -3.7037032598163933E-005
  0.29280000000000000          5.9259251429466531E-005
  0.29389999999999999          1.1111109779449180E-004
  0.29500000000000004          3.7037032598163933E-005
  0.29610000000000003         -8.1481470260769129E-005
  0.29720000000000002         -9.6296280389651656E-005
  0.29830000000000001         -5.1851846365025267E-005
  0.29940000000000000          8.1481470260769129E-005
  0.30050000000000004          1.4814813039265573E-004
  0.30160000000000003         -2.2222218831302598E-005
  0.30270000000000002         -1.1851850285893306E-004
  0.30380000000000001         -1.1851850285893306E-004
  0.30490000000000000          1.4814812857366633E-005
  0.30599999999999999          1.9259256077930331E-004
  0.30709999999999998          1.3333332026377320E-004
  0.30819999999999997         -5.9259251429466531E-005
  0.30930000000000007         -1.4814813039265573E-004
  0.31040000000000006         -1.1111109779449180E-004
  0.31150000000000005          7.4074064286833163E-006
  0.31260000000000004          1.4814813039265573E-004
  0.31370000000000003          9.6296280389651656E-005
  0.31480000000000002         -2.9629625714733265E-005
  0.31590000000000001         -1.3333332026377320E-004
  0.31700000000000000         -1.4074072532821447E-004
  0.31809999999999999         -7.4074064286833163E-006
  0.31919999999999998          1.7037034558597952E-004
  0.32029999999999997          1.7037034558597952E-004
  0.32140000000000007          1.4814812857366633E-005
  0.32250000000000006         -1.1111109779449180E-004
  0.32360000000000005         -1.3333332026377320E-004
  0.32470000000000004         -9.6296280389651656E-005
  0.32580000000000003          1.4074072532821447E-004
  0.32690000000000002          1.8518515571486205E-004
  0.32800000000000001          2.2222218831302598E-005
  0.32910000000000000         -1.3333332026377320E-004
  0.33019999999999999         -1.7777775065042078E-004
  0.33129999999999998         -2.2222218831302598E-005
  0.33239999999999997          1.0370369273005053E-004
  0.33350000000000007          1.6296294052153826E-004
  0.33460000000000006          0.0000000000000000
  0.33570000000000005         -9.6296280389651656E-005
  0.33680000000000004         -1.0370369273005053E-004
  0.33790000000000003          2.9629625714733265E-005
  0.33900000000000002          9.6296280389651656E-005
  0.34010000000000001          4.4444437662605196E-005
  0.34120000000000000          7.4074064286833163E-006
  0.34229999999999999         -9.6296280389651656E-005
  0.34339999999999998         -8.1481470260769129E-005
  0.34449999999999997          1.4814812857366633E-005
  0.34560000000000007          1.1111109779449180E-004
  0.34670000000000006          7.4074065196327865E-005
  0.34780000000000005         -8.1481470260769129E-005
  0.34890000000000004         -9.6296280389651656E-005
