 -0.20000000000000001          0.0000000000000000
 -0.19890000000000002          0.0000000000000000
 -0.19780000000000000          0.0000000000000000
 -0.19670000000000001         -1.0716394438503585E-010
 -0.19560000000000002         -2.8917587768795272E-010
 -0.19450000000000001         -1.8011356295311032E-010
 -0.19340000000000002          2.7522553680547901E-010
 -0.19230000000000000          3.0994407040907390E-010
 -0.19120000000000001         -1.8711404647930863E-010
 -0.19010000000000002          1.2151298856011294E-009
 -0.18900000000000000          6.7288876692828126E-009
 -0.18790000000000001          1.0972533992514855E-008
 -0.18680000000000002          1.8790421996150997E-010
 -0.18570000000000000         -3.1259457244914302E-008
 -0.18460000000000001         -5.8942038805298580E-008
 -0.18350000000000000         -3.5054810609835840E-008
 -0.18240000000000001          5.9814063035901199E-008
 -0.18130000000000002          1.6241587275089842E-007
 -0.18020000000000000          1.4927144320608932E-007
 -0.17910000000000001         -4.1503479764060103E-008
 -0.17800000000000002         -2.9124552725079411E-007
 -0.17690000000000000         -3.4384942182441591E-007
 -0.17580000000000001         -4.4652800568201201E-008
 -0.17470000000000002          4.2439583580744511E-007
 -0.17360000000000000          6.0320667216728907E-007
 -0.17250000000000001          1.6625976684281341E-007
 -0.17140000000000000         -6.4813343669811729E-007
 -0.17030000000000001         -1.0814354709509644E-006
 -0.16920000000000002         -4.9689816705722478E-007
 -0.16810000000000000          8.8620333826838760E-007
 -0.16700000000000001          1.9361707472853595E-006
 -0.16589999999999999          1.4927521760910167E-006
 -0.16480000000000000         -4.7601906771888025E-007
 -0.16370000000000001         -2.5614172045607120E-006
 -0.16260000000000002         -2.9451034606609028E-006
 -0.16150000000000000         -1.0160807732972899E-006
 -0.16040000000000001          1.8947952185044414E-006
 -0.15930000000000000          3.4820500331989024E-006
 -0.15820000000000001          2.4123980892909458E-006
 -0.15710000000000002         -4.6894504635019985E-007
 -0.15600000000000000         -2.8091860713175265E-006
 -0.15490000000000001         -2.7301277896185638E-006
 -0.15379999999999999         -3.4310943419768591E-007
 -0.15270000000000000          2.5118572466453770E-006
 -0.15160000000000001          3.9152564568212256E-006
 -0.15050000000000002          3.2834022931638174E-006
 -0.14940000000000001          1.3599144494946813E-006
 -0.14830000000000002         -8.4088298990536714E-007
 -0.14720000000000000         -2.7739140477933688E-006
 -0.14610000000000001         -4.0541240196034778E-006
 -0.14500000000000002         -3.8355315155058634E-006
 -0.14390000000000000         -1.1470342542452272E-006
 -0.14280000000000001          3.7142915516596986E-006
 -0.14169999999999999          8.2544447650434449E-006
 -0.14060000000000000          8.9224495241069235E-006
 -0.13950000000000001          3.9848578126111533E-006
 -0.13840000000000002         -4.3231179915892426E-006
 -0.13730000000000001         -1.0740152902144473E-005
 -0.13619999999999999         -1.0751078661996871E-005
 -0.13510000000000000         -4.1318421608593781E-006
 -0.13400000000000001          4.8781080295157153E-006
 -0.13290000000000002          1.0965051842504181E-005
 -0.13180000000000000          1.1641320270427968E-005
 -0.13070000000000001          8.2783390098484233E-006
 -0.12959999999999999          3.8184903132787440E-006
 -0.12850000000000000         -8.4922035625822900E-008
 -0.12740000000000001         -3.5410205327934818E-006
 -0.12630000000000002         -6.4693945205362979E-006
 -0.12520000000000001         -7.0328314905054867E-006
 -0.12410000000000000         -2.8655642836383777E-006
 -0.12300000000000001          5.8083383009943645E-006
 -0.12190000000000001          1.4689871022710577E-005
 -0.12080000000000000          1.7906475477502681E-005
 -0.11970000000000000          1.2798487659892999E-005
 -0.11860000000000001          2.5404185635125032E-006
 -0.11750000000000001         -6.1739046941511333E-006
 -0.11640000000000000         -8.4558932940126397E-006
 -0.11530000000000000         -4.6371596909011714E-006
 -0.11420000000000001          1.2484231319831451E-006
 -0.11310000000000001          5.9841149777639657E-006
 -0.11200000000000000          9.8412911029299721E-006
 -0.11090000000000001          1.4748969078937080E-005
 -0.10980000000000001          2.0337289242888801E-005
 -0.10870000000000000          2.2712627469445579E-005
 -0.10760000000000000          1.7960006516659632E-005
 -0.10650000000000001          7.0461192080983892E-006
 -0.10540000000000001         -3.2769091831141850E-006
 -0.10430000000000000         -5.3047701840114314E-006
 -0.10320000000000000          3.1684976420365274E-006
 -0.10210000000000001          1.6890586266526952E-005
 -0.10100000000000001          2.7646339731290936E-005
  -9.9900000000000003E-002     3.0957311537349597E-005
  -9.8799999999999999E-002     2.8742024369421415E-005
  -9.7700000000000009E-002     2.5922983695636503E-005
  -9.6600000000000005E-002     2.5022658519446850E-005
  -9.5500000000000002E-002     2.4445036615361460E-005
  -9.4400000000000012E-002     2.1808657038491219E-005
  -9.3300000000000008E-002     1.8154989447793923E-005
  -9.2200000000000004E-002     1.7997979739448056E-005
  -9.1100000000000000E-002     2.4878223484847695E-005
  -9.0000000000000011E-002     3.7175730540184304E-005
  -8.8900000000000007E-002     4.8873203922994435E-005
  -8.7800000000000003E-002     5.4740277846576646E-005
  -8.6699999999999999E-002     5.4697200539521873E-005
  -8.5600000000000009E-002     5.2968702220823616E-005
  -8.4500000000000006E-002     5.3249859774950892E-005
  -8.3400000000000002E-002     5.5263964895857498E-005
  -8.2299999999999998E-002     5.6378816225333139E-005
  -8.1200000000000008E-002     5.6122131354641169E-005
  -8.0100000000000005E-002     5.8087065553991124E-005
  -7.9000000000000001E-002     6.6535598307382315E-005
  -7.7899999999999997E-002     8.1172227510251105E-005
  -7.6800000000000007E-002     9.6055337053257972E-005
  -7.5700000000000003E-002     1.0451353591633961E-004
  -7.4600000000000000E-002     1.0537797788856551E-004
  -7.3500000000000010E-002     1.0402892803540453E-004
  -7.2399999999999992E-002     1.0694646334741265E-004
  -7.1300000000000002E-002     1.1538655235199258E-004
  -7.0200000000000012E-002     1.2482004240155220E-004
  -6.9099999999999995E-002     1.3069252599962056E-004
  -6.8000000000000005E-002     1.3413422857411206E-004
  -6.6900000000000015E-002     1.4114615623839200E-004
  -6.5799999999999997E-002     1.5587924281135201E-004
  -6.4700000000000008E-002     1.7528090393170714E-004
  -6.3599999999999990E-002     1.9134361355099827E-004
  -6.2500000000000000E-002     1.9906194938812405E-004
  -6.1400000000000010E-002     2.0176116959191859E-004
  -6.0299999999999992E-002     2.0782365754712373E-004
  -5.9200000000000003E-002     2.2189780429471284E-004
  -5.8100000000000013E-002     2.3999484255909920E-004
  -5.6999999999999995E-002     2.5391243980266154E-004
  -5.5900000000000005E-002     2.6058300863951445E-004
  -5.4800000000000015E-002     2.6624774909578264E-004
  -5.3699999999999998E-002     2.8033601120114326E-004
  -5.2600000000000008E-002     3.0524560133926570E-004
  -5.1499999999999990E-002     3.3292954321950674E-004
  -5.0400000000000000E-002     3.5251642111688852E-004
  -4.9300000000000010E-002     3.6149218794889748E-004
  -4.8199999999999993E-002     3.6845810245722532E-004
  -4.7100000000000003E-002     3.8419637712650001E-004
  -4.6000000000000013E-002     4.0992992580868304E-004
  -4.4899999999999995E-002     4.3567951070144773E-004
  -4.3800000000000006E-002     4.5095276436768472E-004
  -4.2699999999999988E-002     4.5681823394261301E-004
  -4.1599999999999998E-002     4.6627325355075300E-004
  -4.0500000000000008E-002     4.9136031884700060E-004
  -3.9399999999999991E-002     5.3014815784990788E-004
  -3.8300000000000001E-002     5.6718016276136041E-004
  -3.7200000000000011E-002     5.8828521287068725E-004
  -3.6099999999999993E-002     5.9490097919479012E-004
  -3.5000000000000003E-002     6.0288124950602651E-004
  -3.3900000000000013E-002     6.2649144092574716E-004
  -3.2799999999999996E-002     6.6357728792354465E-004
  -3.1700000000000006E-002     6.9772487040609121E-004
  -3.0599999999999988E-002     7.1530434070155025E-004
  -2.9499999999999998E-002     7.2033592732623219E-004
  -2.8400000000000009E-002     7.3133036494255066E-004
  -2.7299999999999991E-002     7.6250394340604544E-004
  -2.6200000000000001E-002     8.0861127935349941E-004
  -2.5100000000000011E-002     8.4915896877646446E-004
  -2.3999999999999994E-002     8.6830317741259933E-004
  -2.2900000000000004E-002     8.7100412929430604E-004
  -2.1800000000000014E-002     8.7780389003455639E-004
  -2.0699999999999996E-002     9.0441247448325157E-004
  -1.9600000000000006E-002     9.4571296358481050E-004
  -1.8499999999999989E-002     9.8130595870316029E-004
  -1.7399999999999999E-002     9.9625997245311737E-004
  -1.6300000000000009E-002     9.9680433049798012E-004
  -1.5199999999999991E-002     1.0038880864158273E-003
  -1.4100000000000001E-002     1.0316224070265889E-003
  -1.3000000000000012E-002     1.0727365734055638E-003
  -1.1899999999999994E-002     1.1060609249398112E-003
  -1.0800000000000004E-002     1.1176177067682147E-003
  -9.6999999999999864E-003     1.1150786885991693E-003
  -8.5999999999999965E-003     1.1188420467078686E-003
  -7.5000000000000067E-003     1.1406248668208718E-003
  -6.3999999999999890E-003     1.1712852865457535E-003
  -5.2999999999999992E-003     1.1905073188245296E-003
  -4.2000000000000093E-003     1.1886337306350470E-003
  -3.0999999999999917E-003     1.1769548291340470E-003
  -2.0000000000000018E-003     1.1767757823690772E-003
  -9.0000000000001190E-004     1.1968874605372548E-003
   2.0000000000000573E-004     1.2241679942235351E-003
   1.2999999999999956E-003     1.2366046430543065E-003
   2.4000000000000132E-003     1.2256797635927796E-003
   3.5000000000000031E-003     1.2047995114699006E-003
   4.5999999999999930E-003     1.1948746396228671E-003
   5.7000000000000106E-003     1.2024394236505032E-003
   6.8000000000000005E-003     1.2131020193919539E-003
   7.8999999999999904E-003     1.2065138434991241E-003
   9.0000000000000080E-003     1.1783381924033165E-003
   1.0099999999999998E-002     1.1457771761342883E-003
   1.1199999999999988E-002     1.1293853167444468E-003
   1.2300000000000005E-002     1.1324561201035976E-003
   1.3399999999999995E-002     1.1362466029822826E-003
   1.4500000000000013E-002     1.1180336587131023E-003
   1.5600000000000003E-002     1.0751046938821673E-003
   1.6699999999999993E-002     1.0264104930683970E-003
   1.7800000000000010E-002     9.9430326372385025E-004
   1.8900000000000000E-002     9.8114134743809700E-004
   1.9999999999999990E-002     9.6767203649505973E-004
   2.1100000000000008E-002     9.3351403484120965E-004
   2.2199999999999998E-002     8.7702536256983876E-004
   2.3300000000000015E-002     8.1812776625156403E-004
   2.4400000000000005E-002     7.7726767631247640E-004
   2.5499999999999995E-002     7.5499486410990357E-004
   2.6600000000000013E-002     7.3078332934528589E-004
   2.7700000000000002E-002     6.8504043156281114E-004
   2.8799999999999992E-002     6.1630125856027007E-004
   2.9900000000000010E-002     5.4502667626366019E-004
   3.1000000000000000E-002     4.9078406300395727E-004
   3.2099999999999990E-002     4.5245219371281564E-004
   3.3200000000000007E-002     4.1263015009462833E-004
   3.4299999999999997E-002     3.5434024175629020E-004
   3.5400000000000015E-002     2.7966574998572469E-004
   3.6500000000000005E-002     2.0680697343777865E-004
   3.7599999999999995E-002     1.5100547170732170E-004
   3.8700000000000012E-002     1.0808013757923618E-004
   3.9800000000000002E-002     5.8734800404636189E-005
   4.0899999999999992E-002    -1.0127313544217031E-005
   4.2000000000000010E-002    -9.2462374595925212E-005
   4.3099999999999999E-002    -1.6921294445637614E-004
   4.4200000000000017E-002    -2.2856623400002718E-004
   4.5300000000000007E-002    -2.7667457470670342E-004
   4.6399999999999997E-002    -3.3149227965623140E-004
   4.7500000000000014E-002    -4.0370365604758263E-004
   4.8600000000000004E-002    -4.8464257270097733E-004
   4.9699999999999994E-002    -5.5537465959787369E-004
   5.0800000000000012E-002    -6.0724094510078430E-004
   5.1900000000000002E-002    -6.4996734727174044E-004
   5.2999999999999992E-002    -7.0264021633192897E-004
   5.4099999999999981E-002    -7.7415356645360589E-004
   5.5200000000000027E-002    -8.5362762911245227E-004
   5.6300000000000017E-002    -9.2109362594783306E-004
   5.7400000000000007E-002    -9.6881133504211903E-004
   5.8499999999999996E-002    -1.0065970709547400E-003
   5.9599999999999986E-002    -1.0530344443395734E-003
   6.0700000000000032E-002    -1.1155561078339815E-003
   6.1800000000000022E-002    -1.1825700057670474E-003
   6.2900000000000011E-002    -1.2348776217550039E-003
   6.4000000000000001E-002    -1.2654439778998494E-003
   6.5099999999999991E-002    -1.2872249353677034E-003
   6.6199999999999981E-002    -1.3198638334870338E-003
   6.7300000000000026E-002    -1.3714336091652513E-003
   6.8400000000000016E-002    -1.4290724648162723E-003
   6.9500000000000006E-002    -1.4737519668415189E-003
   7.0599999999999996E-002    -1.4960682019591331E-003
   7.1699999999999986E-002    -1.5070672379806638E-003
   7.2800000000000031E-002    -1.5240991488099098E-003
   7.3900000000000021E-002    -1.5550996176898479E-003
   7.5000000000000011E-002    -1.5901509905233979E-003
   7.6100000000000001E-002    -1.6113749006763101E-003
   7.7199999999999991E-002    -1.6132158925756812E-003
   7.8299999999999981E-002    -1.6075591556727886E-003
   7.9400000000000026E-002    -1.6108758281916380E-003
   8.0500000000000016E-002    -1.6285877209156752E-003
   8.1600000000000006E-002    -1.6493161674588919E-003
   8.2699999999999996E-002    -1.6564161051064730E-003
   8.3799999999999986E-002    -1.6441512852907181E-003
   8.4900000000000031E-002    -1.6233649803325534E-003
   8.6000000000000021E-002    -1.6111000441014767E-003
   8.7100000000000011E-002    -1.6119101783260703E-003
   8.8200000000000001E-002    -1.6138814389705658E-003
   8.9299999999999990E-002    -1.6013958957046270E-003
   9.0399999999999980E-002    -1.5705184778198600E-003
   9.1500000000000026E-002    -1.5337310032919049E-003
   9.2600000000000016E-002    -1.5069008804857731E-003
   9.3700000000000006E-002    -1.4934641076251864E-003
   9.4799999999999995E-002    -1.4806024264544249E-003
   9.5899999999999985E-002    -1.4553094515576959E-003
   9.7000000000000031E-002    -1.4165688771754503E-003
   9.8100000000000021E-002    -1.3764393515884876E-003
   9.9200000000000010E-002    -1.3466072268784046E-003
  0.10030000000000000         -1.3265768066048622E-003
  0.10139999999999999         -1.3016599696129560E-003
  0.10249999999999998         -1.2588937534019351E-003
  0.10360000000000003         -1.2008281191810966E-003
  0.10470000000000002         -1.1450772872194648E-003
  0.10580000000000001         -1.1059966636821628E-003
  0.10690000000000000         -1.0805156780406833E-003
  0.10799999999999998         -1.0523870587348938E-003
  0.10910000000000003         -1.0096750920638442E-003
  0.11020000000000002         -9.5475249690935016E-004
  0.11130000000000001         -9.0512866154313087E-004
  0.11240000000000000         -8.7268144125118852E-004
  0.11349999999999999         -8.4974669152870774E-004
  0.11460000000000004         -8.1614212831482291E-004
  0.11570000000000003         -7.6072040246799588E-004
  0.11680000000000001         -6.9151102798059583E-004
  0.11790000000000000         -6.3036737265065312E-004
  0.11899999999999999         -5.9383671032264829E-004
  0.12009999999999998         -5.7452975306659937E-004
  0.12120000000000003         -5.5129115935415030E-004
  0.12230000000000002         -5.0895538879558444E-004
  0.12340000000000001         -4.5259686885401607E-004
  0.12450000000000000         -4.0343598811887205E-004
  0.12559999999999999         -3.7753902142867446E-004
  0.12670000000000003         -3.6429756437428296E-004
  0.12780000000000002         -3.4044773201458156E-004
  0.12890000000000001         -2.9148577596060932E-004
  0.13000000000000000         -2.2805987100582570E-004
  0.13109999999999999         -1.7625503824092448E-004
  0.13219999999999998         -1.5223160153254867E-004
  0.13330000000000003         -1.4640117296949029E-004
  0.13440000000000002         -1.3441115152090788E-004
  0.13550000000000001         -1.0160950478166342E-004
  0.13660000000000000         -5.6734657846391201E-005
  0.13769999999999999         -2.1799041860504076E-005
  0.13880000000000003         -1.0167099389946088E-005
  0.13990000000000002         -1.1136427929159254E-005
  0.14100000000000001         -1.9892937075383088E-007
  0.14210000000000000          3.5615590604720637E-005
  0.14319999999999999          8.4389459516387433E-005
  0.14429999999999998          1.1891635949723423E-004
  0.14540000000000003          1.2464552128221840E-004
  0.14650000000000002          1.1464842100394890E-004
  0.14760000000000001          1.1581667786231264E-004
  0.14870000000000000          1.4074795763008296E-004
  0.14979999999999999          1.7552443023305386E-004
  0.15090000000000003          1.9385124323889613E-004
  0.15200000000000002          1.8600981275085360E-004
  0.15310000000000001          1.6837382281664759E-004
  0.15420000000000000          1.6792170936241746E-004
  0.15529999999999999          1.9542821974027902E-004
  0.15639999999999998          2.3158996191341430E-004
  0.15750000000000003          2.4807578301988542E-004
  0.15860000000000002          2.3580364359077066E-004
  0.15970000000000001          2.1409864712040871E-004
  0.16080000000000000          2.1148362429812551E-004
  0.16189999999999999          2.3506217985413969E-004
  0.16300000000000003          2.6229379000142217E-004
  0.16410000000000002          2.6483647525310516E-004
  0.16520000000000001          2.3705509374849498E-004
  0.16630000000000000          2.0647421479225159E-004
  0.16739999999999999          2.0274157577659935E-004
  0.16850000000000004          2.2978513152338564E-004
  0.16960000000000003          2.6092660846188664E-004
  0.17070000000000002          2.6509689632803202E-004
  0.17180000000000001          2.3812569270376116E-004
  0.17290000000000000          2.0864074758719653E-004
  0.17399999999999999          2.0743631466757506E-004
  0.17510000000000003          2.3441837402060628E-004
  0.17620000000000002          2.5944368098862469E-004
  0.17730000000000001          2.5163119425997138E-004
  0.17840000000000000          2.1388161985669285E-004
  0.17949999999999999          1.7760775517672300E-004
  0.18060000000000004          1.7481912800576538E-004
  0.18170000000000003          2.0294412388466299E-004
  0.18280000000000002          2.2890260152053088E-004
  0.18390000000000001          2.2438148153014481E-004
  0.18500000000000000          1.9387295469641685E-004
  0.18609999999999999          1.6993269673548639E-004
  0.18720000000000003          1.7610313079785556E-004
  0.18830000000000002          2.0380495698191226E-004
  0.18940000000000001          2.1977355936542153E-004
  0.19050000000000000          2.0217733981553465E-004
  0.19159999999999999          1.6157404752448201E-004
  0.19270000000000004          1.3394457346294075E-004
  0.19380000000000003          1.4166664914228022E-004
  0.19490000000000002          1.7104309517890215E-004
  0.19600000000000001          1.8781826656777412E-004
  0.19710000000000000          1.7451893654651940E-004
  0.19819999999999999          1.4610457583330572E-004
  0.19930000000000003          1.3525388203561306E-004
  0.20040000000000002          1.5325880667660385E-004
  0.20150000000000001          1.7889538139570504E-004
  0.20260000000000000          1.8045064643956721E-004
  0.20369999999999999          1.5013018855825067E-004
  0.20480000000000004          1.1389610881451517E-004
  0.20590000000000003          1.0601850226521492E-004
  0.20700000000000002          1.3372393732424825E-004
  0.20810000000000001          1.6677877283655107E-004
  0.20920000000000000          1.7086586740333587E-004
  0.21029999999999999          1.4174259558785707E-004
  0.21140000000000003          1.0808736988110468E-004
  0.21250000000000002          1.0538192873355001E-004
  0.21360000000000001          1.3574940385296941E-004
  0.21470000000000000          1.6603368567302823E-004
  0.21579999999999999          1.6459416656289250E-004
  0.21690000000000004          1.3163338007871062E-004
  0.21800000000000003          1.0070890130009502E-004
  0.21910000000000002          1.0320093861082569E-004
  0.22020000000000001          1.3515984755940735E-004
  0.22130000000000000          1.6306059842463583E-004
  0.22239999999999999          1.5813800564501435E-004
  0.22350000000000003          1.2569442333187908E-004
  0.22460000000000002          9.9193421192467213E-005
  0.22570000000000001          1.0520831710891798E-004
  0.22680000000000000          1.3680553820449859E-004
  0.22789999999999999          1.6076386964414269E-004
  0.22900000000000004          1.5408346371259540E-004
  0.23010000000000003          1.2710140435956419E-004
  0.23120000000000002          1.1019963858416304E-004
  0.23230000000000001          1.2035950203426182E-004
  0.23340000000000000          1.4515333168674260E-004
  0.23450000000000004          1.5625721425749362E-004
  0.23560000000000003          1.4066838775761425E-004
  0.23670000000000002          1.1536818783497438E-004
  0.23780000000000001          1.0868415847653523E-004
  0.23890000000000000          1.2828051694668829E-004
  0.23999999999999999          1.5357347729150206E-004
  0.24110000000000004          1.5779801469761878E-004
  0.24220000000000003          1.3636788935400546E-004
  0.24330000000000002          1.1347654799465090E-004
  0.24440000000000001          1.1404440010664985E-004
  0.24550000000000000          1.3862122432328761E-004
  0.24660000000000004          1.6114725440274924E-004
  0.24770000000000003          1.5692994929850101E-004
  0.24880000000000002          1.2769456952810287E-004
  0.24990000000000001          1.0342519090045244E-004
  0.25100000000000000          1.0908563126577064E-004
  0.25209999999999999          1.3872972340323031E-004
  0.25320000000000004          1.6111470176838338E-004
  0.25430000000000003          1.5375793736893684E-004
  0.25540000000000002          1.2235602480359375E-004
  0.25650000000000001          9.9858931207563728E-005
  0.25760000000000000          1.0853586718440056E-004
  0.25870000000000004          1.3888525427319109E-004
  0.25980000000000003          1.5916519623715430E-004
  0.26090000000000002          1.4940318942535669E-004
  0.26200000000000001          1.1912613990716636E-004
  0.26310000000000000          9.7703254141379148E-005
  0.26419999999999999          1.0304541501682252E-004
  0.26530000000000004          1.2453339877538383E-004
  0.26640000000000003          1.3633533671963960E-004
  0.26750000000000002          1.2583548959810287E-004
  0.26860000000000001          1.0549043508945033E-004
  0.26970000000000000          9.6104588010348380E-005
  0.27080000000000004          1.0528789425734431E-004
  0.27190000000000003          1.1968675971729681E-004
  0.27300000000000002          1.2165796943008900E-004
  0.27410000000000001          1.0835140710696578E-004
  0.27520000000000000          9.4444432761520147E-005
  0.27629999999999999          9.4035720394458622E-005
  0.27740000000000004          1.0329859651392326E-004
  0.27850000000000003          1.0589191515464336E-004
  0.27960000000000002          9.1033696662634611E-005
  0.28070000000000001          6.9961650297045708E-005
  0.28179999999999999          6.3646548369433731E-005
  0.28290000000000004          7.7951379353180528E-005
  0.28400000000000003          9.7417520009912550E-005
  0.28510000000000002          9.9887860415037721E-005
  0.28620000000000001          7.8551784099545330E-005
  0.28730000000000000          5.2021838200744241E-005
  0.28840000000000005          4.4618049287237227E-005
  0.28950000000000004          5.9617323131533340E-005
  0.29060000000000002          7.7940530900377780E-005
  0.29170000000000001          7.4526178650557995E-005
  0.29280000000000000          4.9074067646870390E-005
  0.29389999999999999          2.3301863620872609E-005
  0.29500000000000004          1.9513163351803087E-005
  0.29610000000000003          3.6192486732034013E-005
  0.29720000000000002          5.2139388571958989E-005
  0.29830000000000001          4.7726774937473238E-005
  0.29940000000000000          2.6452180463820696E-005
  0.30050000000000004          8.0457884905626997E-006
  0.30160000000000003          6.7256210058985744E-006
  0.30270000000000002          1.6324867829098366E-005
  0.30380000000000001          1.8032043954008259E-005
  0.30490000000000000          3.7706158764194697E-006
  0.30599999999999999         -1.4252384971769061E-005
  0.30709999999999998         -1.8811484551406465E-005
  0.30819999999999997         -9.0928806457668543E-006
  0.30930000000000007         -2.6837381028599339E-006
  0.31040000000000006         -1.5865522072999738E-005
  0.31150000000000005         -4.3601699871942401E-005
  0.31260000000000004         -6.0205071349628270E-005
  0.31370000000000003         -4.9849892093334347E-005
  0.31480000000000002         -2.4348955776076764E-005
  0.31590000000000001         -1.4843748431303538E-005
  0.31700000000000000         -3.8290287193376571E-005
  0.31809999999999999         -7.8629549534525722E-005
  0.31919999999999998         -1.0052081779576838E-004
  0.32029999999999997         -8.5736748587805778E-005
  0.32140000000000007         -5.5662247177679092E-005
  0.32250000000000006         -4.9274804041488096E-005
  0.32360000000000005         -8.2327824202366173E-005
  0.32470000000000004         -1.2807977327611297E-004
  0.32580000000000003         -1.4424911933019757E-004
  0.32690000000000002         -1.1674260895233601E-004
  0.32800000000000001         -7.7652985055465251E-005
  0.32910000000000000         -7.1158843638841063E-005
  0.33019999999999999         -1.0929360723821446E-004
  0.33129999999999998         -1.5730068844277412E-004
  0.33239999999999997         -1.7150424537248909E-004
  0.33350000000000007         -1.4393262972589582E-004
  0.33460000000000006         -1.1377855844330043E-004
  0.33570000000000005         -1.2221316865179688E-004
  0.33680000000000004         -1.6769926878623664E-004
  0.33790000000000003         -2.0828266860917211E-004
  0.33900000000000002         -2.0331847190391272E-004
  0.34010000000000001         -1.6002421034500003E-004
  0.34120000000000000         -1.2843422882724553E-004
  0.34229999999999999         -1.4671041572000831E-004
  0.34339999999999998         -2.0190788200125098E-004
  0.34449999999999997         -2.3913480981718749E-004
  0.34560000000000007         -2.2386606724467129E-004
  0.34670000000000006         -1.7744861543178558E-004
  0.34780000000000005         -1.5773833729326725E-004
  0.34890000000000004         -1.9550778961274773E-004
