 -0.20000000000000001          0.0000000000000000
 -0.19890000000000002          0.0000000000000000
 -0.19780000000000000          0.0000000000000000
 -0.19670000000000001          0.0000000000000000
 -0.19560000000000002          0.0000000000000000
 -0.19450000000000001          0.0000000000000000
 -0.19340000000000002          0.0000000000000000
 -0.19230000000000000          0.0000000000000000
 -0.19120000000000001          0.0000000000000000
 -0.19010000000000002          3.0990633882742937E-033
 -0.18900000000000000          6.8435794104519789E-032
 -0.18790000000000001          6.3893558155046932E-031
 -0.18680000000000002          3.3603768609781551E-030
 -0.18570000000000000          1.1212464714301446E-029
 -0.18460000000000001          2.4761315669223812E-029
 -0.18350000000000000          3.4542323924562830E-029
 -0.18240000000000001          1.7014599505666423E-029
 -0.18130000000000002         -6.4339559707737617E-029
 -0.18020000000000000         -2.4708658036205280E-028
 -0.17910000000000001         -4.2967757059821724E-028
 -0.17800000000000002          7.2526892531384348E-029
 -0.17690000000000000          2.6335578208559162E-027
 -0.17580000000000001          6.6629256651867040E-027
 -0.17470000000000002          3.2119145831554031E-027
 -0.17360000000000000         -2.4864977391995934E-026
 -0.17250000000000001         -7.3085750360406632E-026
 -0.17140000000000000         -5.8029230648615654E-026
 -0.17030000000000001          1.7215281952354195E-025
 -0.16920000000000002          6.0017558258010708E-025
 -0.16810000000000000          6.3596092634268072E-025
 -0.16700000000000001         -8.0691393773318808E-025
 -0.16589999999999999         -3.8370166819818331E-024
 -0.16480000000000000         -5.1578412054732029E-024
 -0.16370000000000001          1.7802920217871431E-024
 -0.16260000000000002          1.9319047374403345E-023
 -0.16150000000000000          3.2762627172284386E-023
 -0.16040000000000001          8.4485007131080155E-024
 -0.15930000000000000         -7.4966695067939380E-023
 -0.15820000000000001         -1.6663968443825761E-022
 -0.15710000000000002         -1.1932323936324956E-022
 -0.15600000000000000          2.0306289442347527E-022
 -0.15490000000000001          6.8036105204756074E-022
 -0.15379999999999999          7.7064773512836702E-022
 -0.15270000000000000         -2.0212459170836919E-022
 -0.15160000000000001         -2.1785703785434142E-021
 -0.15050000000000002         -3.5263590008123541E-021
 -0.14940000000000001         -1.5254777614997706E-021
 -0.14830000000000002          5.0098262461727312E-021
 -0.14720000000000000          1.2335599879954818E-020
 -0.14610000000000001          1.1507741528599123E-020
 -0.14500000000000002         -5.1568095363367985E-021
 -0.14390000000000000         -3.2751321318764954E-020
 -0.14280000000000001         -4.7638833972963384E-020
 -0.14169999999999999         -1.9193425566650224E-020
 -0.14060000000000000          5.9077814497556902E-020
 -0.13950000000000001          1.4021386051960933E-019
 -0.13840000000000002          1.3303478583265574E-019
 -0.13730000000000001         -2.9396192743718912E-020
 -0.13619999999999999         -2.9436840269772797E-019
 -0.13510000000000000         -4.5482205448740862E-019
 -0.13400000000000001         -2.5892404949195458E-019
 -0.13290000000000002          3.5276942189550310E-019
 -0.13180000000000000          1.0492494489069231E-018
 -0.13070000000000001          1.1853427867532820E-018
 -0.12959999999999999          2.5012949106868493E-019
 -0.12850000000000000         -1.5382591883038781E-018
 -0.12740000000000001         -3.0001445838555820E-018
 -0.12630000000000002         -2.5633959087645742E-018
 -0.12520000000000001          4.7049764408317134E-019
 -0.12410000000000000          4.7973820278309310E-018
 -0.12300000000000001          7.2502876998640408E-018
 -0.12190000000000001          4.7101856107392661E-018
 -0.12080000000000000         -3.1063063912367095E-018
 -0.11970000000000000         -1.2080702358276664E-017
 -0.11860000000000001         -1.5267954162715975E-017
 -0.11750000000000001         -7.5604531326112119E-018
 -0.11640000000000000          9.3244315053121819E-018
 -0.11530000000000000          2.5630422890527077E-017
 -0.11420000000000001          2.8502863815899120E-017
 -0.11310000000000001          1.1125587510644348E-017
 -0.11200000000000000         -2.0020447580245491E-017
 -0.11090000000000001         -4.6184600489216284E-017
 -0.10980000000000001         -4.7201728240191089E-017
 -0.10870000000000000         -1.6227910498473565E-017
 -0.10760000000000000          3.2202568071885445E-017
 -0.10650000000000001          6.8546207431003259E-017
 -0.10540000000000001          6.7058016864791756E-017
 -0.10430000000000000          2.4790872619093932E-017
 -0.10320000000000000         -3.3907254965459226E-017
 -0.10210000000000001         -7.3022849349136141E-017
 -0.10100000000000001         -7.0820815149181176E-017
  -9.9900000000000003E-002    -3.6159998645686142E-017
  -9.8799999999999999E-002    -1.6612798154482372E-019
  -9.7700000000000009E-002     1.2750762495017082E-017
  -9.6600000000000005E-002     1.0913786260438920E-017
  -9.5500000000000002E-002     3.1862083988146367E-017
  -9.4400000000000012E-002     1.0358416204554082E-016
  -9.3300000000000008E-002     1.9747118650844899E-016
  -9.2200000000000004E-002     2.1856292893490171E-016
  -9.1100000000000000E-002     6.1792310816732290E-017
  -9.0000000000000011E-002    -2.8662366737312005E-016
  -8.8900000000000007E-002    -6.7401587986576882E-016
  -8.7800000000000003E-002    -8.1234933034440089E-016
  -8.6699999999999999E-002    -4.4033931558322902E-016
  -8.5600000000000009E-002     4.5526607428687913E-016
  -8.4500000000000006E-002     1.5068684367918481E-015
  -8.3400000000000002E-002     2.0589878052182506E-015
  -8.2299999999999998E-002     1.5081038343454185E-015
  -8.1200000000000008E-002    -2.5960027233105367E-016
  -8.0100000000000005E-002    -2.6005097326833176E-015
  -7.9000000000000001E-002    -4.2545541674670999E-015
  -7.7899999999999997E-002    -3.9354137522818345E-015
  -7.6800000000000007E-002    -1.1300838296559017E-015
  -7.5700000000000003E-002     3.3340108306106246E-015
  -7.4600000000000000E-002     7.3723265922478846E-015
  -7.3500000000000010E-002     8.5066985261992613E-015
  -7.2399999999999992E-002     5.2014091005223723E-015
  -7.1300000000000002E-002    -1.9928118739063506E-015
  -7.0200000000000012E-002    -1.0198886548663799E-014
  -6.9099999999999995E-002    -1.5232632253540761E-014
  -6.8000000000000005E-002    -1.3595234557269367E-014
  -6.6900000000000015E-002    -4.5367067714281381E-015
  -6.5799999999999997E-002     8.9457004561681146E-015
  -6.4700000000000008E-002     2.0947500868227428E-014
  -6.3599999999999990E-002     2.5231886689063877E-014
  -6.2500000000000000E-002     1.8439853051617494E-014
  -6.1400000000000010E-002     2.2695119150276761E-015
  -6.0299999999999992E-002    -1.6758695939225049E-014
  -5.9200000000000003E-002    -3.0190876654147963E-014
  -5.8100000000000013E-002    -3.1918786597097057E-014
  -5.6999999999999995E-002    -2.1552719461567782E-014
  -5.5900000000000005E-002    -4.7632855437198217E-015
  -5.4800000000000015E-002     1.0007747634885236E-014
  -5.3699999999999998E-002     1.6863101220303614E-014
  -5.2600000000000008E-002     1.6575055808128528E-014
  -5.1499999999999990E-002     1.6467841765796867E-014
  -5.0400000000000000E-002     2.5244849681288657E-014
  -4.9300000000000010E-002     4.5250546473925291E-014
  -4.8199999999999993E-002     6.7058012788445698E-014
  -4.7100000000000003E-002     7.0949559974938653E-014
  -4.6000000000000013E-002     3.6392147162531835E-014
  -4.4899999999999995E-002    -4.4404248751269207E-014
  -4.3800000000000006E-002    -1.5634351181303269E-013
  -4.2699999999999988E-002    -2.6172561839142572E-013
  -4.1599999999999998E-002    -3.1293048122389699E-013
  -4.0500000000000008E-002    -2.7234028292071055E-013
  -3.9399999999999991E-002    -1.2934399102985938E-013
  -3.8300000000000001E-002     9.5036466489419741E-014
  -3.7200000000000011E-002     3.5861840840673009E-013
  -3.6099999999999993E-002     6.1711985348267273E-013
  -3.5000000000000003E-002     8.3927255336430084E-013
  -3.3900000000000013E-002     1.0069666454837201E-012
  -3.2799999999999996E-002     1.0984303744354662E-012
  -3.1700000000000006E-002     1.0640166048583866E-012
  -3.0599999999999988E-002     8.1108600738510894E-013
  -2.9499999999999998E-002     2.1175212462382770E-013
  -2.8400000000000009E-002    -8.6441319597022059E-013
  -2.7299999999999991E-002    -2.5047711300907327E-012
  -2.6200000000000001E-002    -4.7153249187192880E-012
  -2.5100000000000011E-002    -7.4069700026213603E-012
  -2.3999999999999994E-002    -1.0411072177973768E-011
  -2.2900000000000004E-002    -1.3515071874137252E-011
  -2.1800000000000014E-002    -1.6501966459969708E-011
  -2.0699999999999996E-002    -1.9181874838514190E-011
  -1.9600000000000006E-002    -2.1415360804133421E-011
  -1.8499999999999989E-002    -2.3137335797285274E-011
  -1.7399999999999999E-002    -2.4388593575230821E-011
  -1.6300000000000009E-002    -2.5348926083190726E-011
  -1.5199999999999991E-002    -2.6350121737350740E-011
  -1.4100000000000001E-002    -2.7842268421340854E-011
  -1.3000000000000012E-002    -3.0301289255518782E-011
  -1.1899999999999994E-002    -3.4095826856317402E-011
  -1.0800000000000004E-002    -3.9361791603909069E-011
  -9.6999999999999864E-003    -4.5943332471765075E-011
  -8.5999999999999965E-003    -5.3438808933492510E-011
  -7.5000000000000067E-003    -6.1345456492389872E-011
  -6.3999999999999890E-003    -6.9248523582032817E-011
  -5.2999999999999992E-003    -7.6976085228164237E-011
  -4.2000000000000093E-003    -8.4654852572363382E-011
  -3.0999999999999917E-003    -9.2649492244856191E-011
  -2.0000000000000018E-003    -1.0142450768135802E-010
  -9.0000000000001190E-004    -1.1140238037610217E-010
   2.0000000000000573E-004    -1.2288652040393089E-010
   1.2999999999999956E-003    -1.3607508175805805E-010
   2.4000000000000132E-003    -1.5113688078827181E-010
   3.5000000000000031E-003    -1.6828495541520994E-010
   4.5999999999999930E-003    -1.8778778532180240E-010
   5.7000000000000106E-003    -2.0990013893662507E-010
   6.8000000000000005E-003    -2.3475105193071499E-010
   7.8999999999999904E-003    -2.6226221194747268E-010
   9.0000000000000080E-003    -2.9216401520315571E-010
   1.0099999999999998E-002    -3.2412947326143637E-010
   1.1199999999999988E-002    -3.5798219943927734E-010
   1.2300000000000005E-002    -3.9388950434648962E-010
   1.3399999999999995E-002    -4.3244929859298509E-010
   1.4500000000000013E-002    -4.7462372920747953E-010
   1.5600000000000003E-002    -5.2153970031554309E-010
   1.6699999999999993E-002    -5.7423465982253674E-010
   1.7800000000000010E-002    -6.3344740564019730E-010
   1.8900000000000000E-002    -6.9952815762164278E-010
   1.9999999999999990E-002    -7.7249173724425191E-010
   2.1100000000000008E-002    -8.5218149203925009E-010
   2.2199999999999998E-002    -9.3847973836602705E-010
   2.3300000000000015E-002    -1.0314993303950359E-009
   2.4400000000000005E-002    -1.1317099479768444E-009
   2.5499999999999995E-002    -1.2399812288066414E-009
   2.6600000000000013E-002    -1.3575406354604524E-009
   2.7700000000000002E-002    -1.4858556607322271E-009
   2.8799999999999992E-002    -1.6264577462621332E-009
   2.9900000000000010E-002    -1.7807381125223287E-009
   3.1000000000000000E-002    -1.9497723435790704E-009
   3.2099999999999990E-002    -2.1342383416111943E-009
   3.3200000000000007E-002    -2.3344877142505993E-009
   3.4299999999999997E-002    -2.5507773671051837E-009
   3.5400000000000015E-002    -2.7836057903130040E-009
   3.6500000000000005E-002    -3.0340283618812691E-009
   3.7599999999999995E-002    -3.3038203284263545E-009
   3.8700000000000012E-002    -3.5953937604915609E-009
   3.9800000000000002E-002    -3.9114880223678483E-009
   4.0899999999999992E-002    -4.2547503298351330E-009
   4.2000000000000010E-002    -4.6273838094634812E-009
   4.3099999999999999E-002    -5.0310218213667213E-009
   4.4200000000000017E-002    -5.4668736204632751E-009
   4.5300000000000007E-002    -5.9360778514871981E-009
   4.6399999999999997E-002    -6.4400986765633661E-009
   4.7500000000000014E-002    -6.9809940050902242E-009
   4.8600000000000004E-002    -7.5614696726233888E-009
   4.9699999999999994E-002    -8.1847248978306197E-009
   5.0800000000000012E-002    -8.8542009279990452E-009
   5.1900000000000002E-002    -9.5733598826086563E-009
   5.2999999999999992E-002    -1.0345583945081671E-008
   5.4099999999999981E-002    -1.1174194014529348E-008
   5.5200000000000027E-002    -1.2062544740842895E-008
   5.6300000000000017E-002    -1.3014110678000179E-008
   5.7400000000000007E-002    -1.4032521811202514E-008
   5.8499999999999996E-002    -1.5121548457841527E-008
   5.9599999999999986E-002    -1.6285087056644443E-008
   6.0700000000000032E-002    -1.7527183260312995E-008
   6.1800000000000022E-002    -1.8852094996191227E-008
   6.2900000000000011E-002    -2.0264382172285877E-008
   6.4000000000000001E-002    -2.1768975955183123E-008
   6.5099999999999991E-002    -2.3371168111907537E-008
   6.6199999999999981E-002    -2.5076555942860068E-008
   6.7300000000000026E-002    -2.6890946358548717E-008
   6.8400000000000016E-002    -2.8820261732676045E-008
   6.9500000000000006E-002    -3.0870488387790829E-008
   7.0599999999999996E-002    -3.3047665937147030E-008
   7.1699999999999986E-002    -3.5357921035483741E-008
   7.2800000000000031E-002    -3.7807513564303008E-008
   7.3900000000000021E-002    -4.0402881040790817E-008
   7.5000000000000011E-002    -4.3150695461235955E-008
   7.6100000000000001E-002    -4.6057898828166799E-008
   7.7199999999999991E-002    -4.9131710255778671E-008
   7.8299999999999981E-002    -5.2379618864506483E-008
   7.9400000000000026E-002    -5.5809355359315305E-008
   8.0500000000000016E-002    -5.9428831633567825E-008
   8.1600000000000006E-002    -6.3246140769024350E-008
   8.2699999999999996E-002    -6.7269546377701772E-008
   8.3799999999999986E-002    -7.1507514576296671E-008
   8.4900000000000031E-002    -7.5968749513322109E-008
   8.6000000000000021E-002    -8.0662175605539232E-008
   8.7100000000000011E-002    -8.5596909116247843E-008
   8.8200000000000001E-002    -9.0782123152166605E-008
   8.9299999999999990E-002    -9.6226983714586822E-008
   9.0399999999999980E-002    -1.0194055732881679E-007
   9.1500000000000026E-002    -1.0793180393875446E-007
   9.2600000000000016E-002    -1.1420966217201567E-007
   9.3700000000000006E-002    -1.2078317013219930E-007
   9.4799999999999995E-002    -1.2766156487487024E-007
   9.5899999999999985E-002    -1.3485437477811502E-007
   9.7000000000000031E-002    -1.4237139112083241E-007
   9.8100000000000021E-002    -1.5022253307961364E-007
   9.9200000000000010E-002    -1.5841774825275934E-007
  0.10030000000000000         -1.6696685634087771E-007
  0.10139999999999999         -1.7587939282748266E-007
  0.10249999999999998         -1.8516456634642964E-007
  0.10360000000000003         -1.9483135815789865E-007
  0.10470000000000002         -2.0488857899181312E-007
  0.10580000000000001         -2.1534499694553233E-007
  0.10690000000000000         -2.2620949380325328E-007
  0.10799999999999998         -2.3749102240344655E-007
  0.10910000000000003         -2.4919853558458271E-007
  0.11020000000000002         -2.6134085828743991E-007
  0.11130000000000001         -2.7392630386202654E-007
  0.11240000000000000         -2.8696265985672653E-007
  0.11349999999999999         -3.0045706012060691E-007
  0.11460000000000004         -3.1441609849025554E-007
  0.11570000000000003         -3.2884580036807165E-007
  0.11680000000000001         -3.4375196378277906E-007
  0.11790000000000000         -3.5914010254600726E-007
  0.11899999999999999         -3.7501561678254802E-007
  0.12009999999999998         -3.9138367924351769E-007
  0.12120000000000003         -4.0824932057148544E-007
  0.12230000000000002         -4.2561711666166957E-007
  0.12340000000000001         -4.4349121708364692E-007
  0.12450000000000000         -4.6187520297280571E-007
  0.12559999999999999         -4.8077191650008899E-007
  0.12670000000000003         -5.0018337560686632E-007
  0.12780000000000002         -5.2011085927006206E-007
  0.12890000000000001         -5.4055465170677053E-007
  0.13000000000000000         -5.6151429816964082E-007
  0.13109999999999999         -5.8298877547713346E-007
  0.13219999999999998         -6.0497643517010147E-007
  0.13330000000000003         -6.2747528772888472E-007
  0.13440000000000002         -6.5048300257330993E-007
  0.13550000000000001         -6.7399679437585291E-007
  0.13660000000000000         -6.9801353674847633E-007
  0.13769999999999999         -7.2252936433869763E-007
  0.13880000000000003         -7.4753950229933253E-007
  0.13990000000000002         -7.7303820944507606E-007
  0.14100000000000001         -7.9901860772224609E-007
  0.14210000000000000         -8.2547302326929639E-007
  0.14319999999999999         -8.5239298641681671E-007
  0.14429999999999998         -8.7976962959146476E-007
  0.14540000000000003         -9.0759374415938510E-007
  0.14650000000000002         -9.3585595095646568E-007
  0.14760000000000001         -9.6454652975808131E-007
  0.14870000000000000         -9.9365502137516160E-007
  0.14979999999999999         -1.0231705118712853E-006
  0.15090000000000003         -1.0530812915021670E-006
  0.15200000000000002         -1.0833747410288197E-006
  0.15310000000000001         -1.1140374454043922E-006
  0.15420000000000000         -1.1450551937741693E-006
  0.15529999999999999         -1.1764133205360849E-006
  0.15639999999999998         -1.2080964779670467E-006
  0.15750000000000003         -1.2400893183439621E-006
  0.15860000000000002         -1.2723767213174142E-006
  0.15970000000000001         -1.3049428844169597E-006
  0.16080000000000000         -1.3377722325458308E-006
  0.16189999999999999         -1.3708489632335841E-006
  0.16300000000000003         -1.4041568192624254E-006
  0.16410000000000002         -1.4376793160408852E-006
  0.16520000000000001         -1.4713996279169805E-006
  0.16630000000000000         -1.5053007018650533E-006
  0.16739999999999999         -1.5393652574857697E-006
  0.16850000000000004         -1.5735757870061207E-006
  0.16960000000000003         -1.6079147826530971E-006
  0.17070000000000002         -1.6423646229668520E-006
  0.17180000000000001         -1.6769079138612142E-006
  0.17290000000000000         -1.7115274886236875E-006
  0.17399999999999999         -1.7462060668549384E-006
  0.17510000000000003         -1.7809267092161463E-006
  0.17620000000000002         -1.8156728174290038E-006
  0.17730000000000001         -1.8504276795283658E-006
  0.17840000000000000         -1.8851751519832760E-006
  0.17949999999999999         -1.9198989775759401E-006
  0.18060000000000004         -1.9545836948964279E-006
  0.18170000000000003         -1.9892133877874585E-006
  0.18280000000000002         -2.0237732769601280E-006
  0.18390000000000001         -2.0582481283781817E-006
  0.18500000000000000         -2.0926240722474176E-006
  0.18609999999999999         -2.1268872387736337E-006
  0.18720000000000003         -2.1610244402836543E-006
  0.18830000000000002         -2.1950233985990053E-006
  0.18940000000000001         -2.2288713807938620E-006
  0.19050000000000000         -2.2625567908107769E-006
  0.19159999999999999         -2.2960680325923022E-006
  0.19270000000000004         -2.3293939648283413E-006
  0.19380000000000003         -2.3625239009561483E-006
  0.19490000000000002         -2.3954478365340037E-006
  0.19600000000000001         -2.4281562218675390E-006
  0.19710000000000000         -2.4606399620097363E-006
  0.19819999999999999         -2.4928906441346044E-006
  0.19930000000000003         -2.5249009922845289E-006
  0.20040000000000002         -2.5566639578755712E-006
  0.20150000000000001         -2.5881727196974680E-006
  0.20260000000000000         -2.6194213660346577E-006
  0.20369999999999999         -2.6504037577979034E-006
  0.20480000000000004         -2.6811151201400207E-006
  0.20590000000000003         -2.7115511329611763E-006
  0.20700000000000002         -2.7417079309088876E-006
  0.20810000000000001         -2.7715816486306721E-006
  0.20920000000000000         -2.8011688755213981E-006
  0.21029999999999999         -2.8304664283496095E-006
  0.21140000000000003         -2.8594720333785517E-006
  0.21250000000000002         -2.8881831894977950E-006
  0.21360000000000001         -2.9165983050916111E-006
  0.21470000000000000         -2.9447155611705966E-006
  0.21579999999999999         -2.9725338208663743E-006
  0.21690000000000004         -3.0000519473105669E-006
  0.21800000000000003         -3.0272690310084727E-006
  0.21910000000000002         -3.0541850719600916E-006
  0.22020000000000001         -3.0807996154180728E-006
  0.22130000000000000         -3.1071128887560917E-006
  0.22239999999999999         -3.1331242098531220E-006
  0.22350000000000003         -3.1588335787091637E-006
  0.22460000000000002         -3.1842409953242168E-006
  0.22570000000000001         -3.2093473691929830E-006
  0.22680000000000000         -3.2341536098101642E-006
  0.22789999999999999         -3.2586601719231112E-006
  0.22900000000000004         -3.2828672829054995E-006
  0.23010000000000003         -3.3067751701310044E-006
  0.23120000000000002         -3.3303842883469770E-006
  0.23230000000000001         -3.3536944101797417E-006
  0.23340000000000000         -3.3767057630029740E-006
  0.23450000000000004         -3.3994185741903493E-006
  0.23560000000000003         -3.4218321616208414E-006
  0.23670000000000002         -3.4439460705470992E-006
  0.23780000000000001         -3.4657596188480966E-006
  0.23890000000000000         -3.4872721244028071E-006
  0.23999999999999999         -3.5084826777165290E-006
  0.24110000000000004         -3.5293903692945605E-006
  0.24220000000000003         -3.5499938348948490E-006
  0.24330000000000002         -3.5702910281543154E-006
  0.24440000000000001         -3.5902803574572317E-006
  0.24550000000000000         -3.6099606859352207E-006
  0.24660000000000004         -3.6293301945988787E-006
  0.24770000000000003         -3.6483868370851269E-006
  0.24880000000000002         -3.6671276575361844E-006
  0.24990000000000001         -3.6855497000942705E-006
  0.25100000000000000         -3.7036497815279290E-006
  0.25209999999999999         -3.7214247186057037E-006
  0.25320000000000004         -3.7388715554698138E-006
  0.25430000000000003         -3.7559861993941013E-006
  0.25540000000000002         -3.7727643302787328E-006
  0.25650000000000001         -3.7892018553975504E-006
  0.25760000000000000         -3.8052944546507206E-006
  0.25870000000000004         -3.8210378079384100E-006
  0.25980000000000003         -3.8364282772818115E-006
  0.26090000000000002         -3.8514608604600653E-006
  0.26200000000000001         -3.8661305552523118E-006
  0.26310000000000000         -3.8804332689323928E-006
  0.26419999999999999         -3.8943639992794488E-006
  0.26530000000000004         -3.9079177440726198E-006
  0.26640000000000003         -3.9210895010910463E-006
  0.26750000000000002         -3.9338747228612192E-006
  0.26860000000000001         -3.9462688619096298E-006
  0.26970000000000000         -3.9582664612680674E-006
  0.27080000000000004         -3.9698634282103740E-006
  0.27190000000000003         -3.9810547605156898E-006
  0.27300000000000002         -3.9918359107105061E-006
  0.27410000000000001         -4.0022018765739631E-006
  0.27520000000000000         -4.0121490201272536E-006
  0.27629999999999999         -4.0216727938968688E-006
  0.27740000000000004         -4.0307691051566508E-006
  0.27850000000000003         -4.0394343159277923E-006
  0.27960000000000002         -4.0476647882314865E-006
  0.28070000000000001         -4.0554568840889260E-006
  0.28179999999999999         -4.0628069655213039E-006
  0.28290000000000004         -4.0697127587918658E-006
  0.28400000000000003         -4.0761719901638571E-006
  0.28510000000000002         -4.0821828406478744E-006
  0.28620000000000001         -4.0877430365071632E-006
  0.28730000000000000         -4.0928516682470217E-006
  0.28840000000000005         -4.0975073716253974E-006
  0.28950000000000004         -4.1017101466422901E-006
  0.29060000000000002         -4.1054595385503490E-006
  0.29170000000000001         -4.1087560020969249E-006
  0.29280000000000000         -4.1116004467767198E-006
  0.29389999999999999         -4.1139933273370843E-006
  0.29500000000000004         -4.1159350985253695E-006
  0.29610000000000003         -4.1174275793309789E-006
  0.29720000000000002         -4.1184725887433160E-006
  0.29830000000000001         -4.1190728552464861E-006
  0.29940000000000000         -4.1192320168192964E-006
  0.30050000000000004         -4.1189537114405539E-006
  0.30160000000000003         -4.1182415770890657E-006
  0.30270000000000002         -4.1170997064909898E-006
  0.30380000000000001         -4.1155331018671859E-006
  0.30490000000000000         -4.1135472201858647E-006
  0.30599999999999999         -4.1111475184152368E-006
  0.30709999999999998         -4.1083408177655656E-006
  0.30819999999999997         -4.1051330299524125E-006
  0.30930000000000007         -4.1015318856807426E-006
  0.31040000000000006         -4.0975437514134683E-006
  0.31150000000000005         -4.0931759031082038E-006
  0.31260000000000004         -4.0884360714699142E-006
  0.31370000000000003         -4.0833324419509154E-006
  0.31480000000000002         -4.0778732000035234E-006
  0.31590000000000001         -4.0720683500694577E-006
  0.31700000000000000         -4.0659269870957360E-006
  0.31809999999999999         -4.0594591155240778E-006
  0.31919999999999998         -4.0526747397962026E-006
  0.32029999999999997         -4.0455834096064791E-006
  0.32140000000000007         -4.0381955841439776E-006
  0.32250000000000006         -4.0305221773451194E-006
  0.32360000000000005         -4.0225731936516240E-006
  0.32470000000000004         -4.0143595469999127E-006
  0.32580000000000003         -4.0058921513264067E-006
  0.32690000000000002         -3.9971814658201765E-006
  0.32800000000000001         -3.9882388591649942E-006
  0.32910000000000000         -3.9790752452972811E-006
  0.33019999999999999         -3.9697029023955110E-006
  0.33129999999999998         -3.9601341086381581E-006
  0.33239999999999997         -3.9503802327089943E-006
  0.33350000000000007         -3.9404526432917919E-006
  0.33460000000000006         -3.9303636185650248E-006
  0.33570000000000005         -3.9201254367071670E-006
  0.33680000000000004         -3.9097494664019905E-006
  0.33790000000000003         -3.8992470763332676E-006
  0.33900000000000002         -3.8886305446794722E-006
  0.34010000000000001         -3.8779098758823238E-006
  0.34120000000000000         -3.8670955291308928E-006
  0.34229999999999999         -3.8561993278563023E-006
  0.34339999999999998         -3.8452321859949734E-006
  0.34449999999999997         -3.8342059269780293E-006
  0.34560000000000007         -3.8231314647418913E-006
  0.34670000000000006         -3.8120201679703314E-006
  0.34780000000000005         -3.8008824958524201E-006
  0.34890000000000004         -3.7897289075772278E-006
