 -0.20000000000000001          0.0000000000000000
 -0.19890000000000002          0.0000000000000000
 -0.19780000000000000          0.0000000000000000
 -0.19670000000000001          0.0000000000000000
 -0.19560000000000002          0.0000000000000000
 -0.19450000000000001          0.0000000000000000
 -0.19340000000000002          0.0000000000000000
 -0.19230000000000000          0.0000000000000000
 -0.19120000000000001          0.0000000000000000
 -0.19010000000000002          0.0000000000000000
 -0.18900000000000000          1.3692459479789912E-037
 -0.18790000000000001         -4.8014326627549251E-035
 -0.18680000000000002          1.5417729952031130E-034
 -0.18570000000000000         -2.0046226790190646E-033
 -0.18460000000000001         -2.3184765850159445E-032
 -0.18350000000000000         -2.0499532676698245E-032
 -0.18240000000000001          2.6497107333495485E-031
 -0.18130000000000002          2.4182408493449496E-031
 -0.18020000000000000         -4.1240697738712253E-030
 -0.17910000000000001         -1.0475324055883845E-029
 -0.17800000000000002          2.7401207404221393E-029
 -0.17690000000000000          1.6048161540115278E-028
 -0.17580000000000001          8.3128685485405365E-029
 -0.17470000000000002         -1.1278052198372242E-027
 -0.17360000000000000         -2.9542835122737059E-027
 -0.17250000000000001          1.5842165276969835E-027
 -0.17140000000000000          2.2108661952042742E-026
 -0.17030000000000001          3.6445808311006199E-026
 -0.16920000000000002         -4.8415992931293565E-026
 -0.16810000000000000         -2.9267567887650020E-025
 -0.16700000000000001         -3.5838434101495014E-025
 -0.16589999999999999          6.6307511103506500E-025
 -0.16480000000000000          2.9783477003207773E-024
 -0.16370000000000001          3.1372380916981304E-024
 -0.16260000000000002         -6.1178249736983775E-024
 -0.16150000000000000         -2.4802883376806868E-023
 -0.16040000000000001         -2.5652549680602316E-023
 -0.15930000000000000          4.1724210117896295E-023
 -0.15820000000000001          1.7421965323902182E-022
 -0.15710000000000002          1.9451483551982383E-022
 -0.15600000000000000         -2.1114066600987014E-022
 -0.15490000000000001         -1.0446477284526041E-021
 -0.15379999999999999         -1.3295581351017037E-021
 -0.15270000000000000          7.0428047589711431E-022
 -0.15160000000000001          5.3482885195489698E-021
 -0.15050000000000002          8.0046372889920191E-021
 -0.14940000000000001         -3.6157680666697712E-022
 -0.14830000000000002         -2.3129488578888513E-020
 -0.14720000000000000         -4.1888629783664192E-020
 -0.14610000000000001         -1.5210253649174759E-020
 -0.14500000000000002          8.2082288944024803E-020
 -0.14390000000000000          1.8895931674932661E-019
 -0.14280000000000001          1.3629876298160756E-019
 -0.14169999999999999         -2.2079634822845331E-019
 -0.14060000000000000         -7.2778059308921486E-019
 -0.13950000000000001         -7.7700362980040788E-019
 -0.13840000000000002          3.1789926128181223E-019
 -0.13730000000000001          2.3495870912124801E-018
 -0.13619999999999999          3.4293708784560326E-018
 -0.13510000000000000          8.0568446317945901E-019
 -0.13400000000000001         -6.0866848739698775E-018
 -0.13290000000000002         -1.2333258797262580E-017
 -0.13180000000000000         -8.4939330713222040E-018
 -0.13070000000000001          1.1057680945437420E-017
 -0.12959999999999999          3.6453535266579159E-017
 -0.12850000000000000          4.0000201183075824E-017
 -0.12740000000000001         -4.5640840078664751E-018
 -0.12630000000000002         -8.6407108116276959E-017
 -0.12520000000000001         -1.3712044635860472E-016
 -0.12410000000000000         -6.5401921869121790E-017
 -0.12300000000000001          1.4914523048029218E-016
 -0.12190000000000001          3.7048887593680115E-016
 -0.12080000000000000          3.4131031143956462E-016
 -0.11970000000000000         -1.0731395251476692E-016
 -0.11860000000000001         -7.8756625803848334E-016
 -0.11750000000000001         -1.1015458073552467E-015
 -0.11640000000000000         -4.2386770113268509E-016
 -0.11530000000000000          1.2094179942869236E-015
 -0.11420000000000001          2.6785197730595442E-015
 -0.11310000000000001          2.2813995989259166E-015
 -0.11200000000000000         -7.9102665232581317E-016
 -0.11090000000000001         -5.0081110997612574E-015
 -0.10980000000000001         -6.6762200931177237E-015
 -0.10870000000000000         -2.5317660209918163E-015
 -0.10760000000000000          6.5946686079890269E-015
 -0.10650000000000001          1.4301719327585762E-014
 -0.10540000000000001          1.2089212518150063E-014
 -0.10430000000000000         -3.1458945539043380E-015
 -0.10320000000000000         -2.3174175997771850E-014
 -0.10210000000000001         -3.0895357344511154E-014
 -0.10100000000000001         -1.2873809819829302E-014
  -9.9900000000000003E-002     2.5747302849336330E-014
  -9.8799999999999999E-002     5.7649353769461537E-014
  -9.7700000000000009E-002     4.9749538256343984E-014
  -9.6600000000000005E-002    -7.5943949140954391E-015
  -9.5500000000000002E-002    -8.1469106092378618E-014
  -9.4400000000000012E-002    -1.1005419801391261E-013
  -9.3300000000000008E-002    -4.9264174825040113E-014
  -9.2200000000000004E-002     7.9049627629314279E-014
  -9.1100000000000000E-002     1.8247201167588545E-013
  -9.0000000000000011E-002     1.5772870206112732E-013
  -8.8900000000000007E-002    -1.7754234090923762E-014
  -8.7800000000000003E-002    -2.3662910281392613E-013
  -8.6699999999999999E-002    -3.1538647019511978E-013
  -8.5600000000000009E-002    -1.3654145359937725E-013
  -8.4500000000000006E-002     2.2234720575137201E-013
  -8.3400000000000002E-002     4.9577193479005688E-013
  -8.2299999999999998E-002     4.1087386314433982E-013
  -8.1200000000000008E-002    -6.8270550616835596E-014
  -8.0100000000000005E-002    -6.3480649773253739E-013
  -7.9000000000000001E-002    -8.0978089901997952E-013
  -7.7899999999999997E-002    -3.1864859058663986E-013
  -7.6800000000000007E-002     6.0338339142804176E-013
  -7.5700000000000003E-002     1.2706478664387122E-012
  -7.4600000000000000E-002     1.0225078162645618E-012
  -7.3500000000000010E-002    -1.8884052036937521E-013
  -7.2399999999999992E-002    -1.5851950828371653E-012
  -7.1300000000000002E-002    -2.0126678101917150E-012
  -7.0200000000000012E-002    -8.3958973670986148E-013
  -6.9099999999999995E-002     1.3609752430934763E-012
  -6.8000000000000005E-002     2.9902653703867133E-012
  -6.6900000000000015E-002     2.5282126652620418E-012
  -6.5799999999999997E-002    -1.5472538072817954E-013
  -6.4700000000000008E-002    -3.3494546112372570E-012
  -6.3599999999999990E-002    -4.5128267442406944E-012
  -6.2500000000000000E-002    -2.2136218639362548E-012
  -6.1400000000000010E-002     2.4109754991064047E-012
  -6.0299999999999992E-002     6.0314938807315421E-012
  -5.9200000000000003E-002     5.4294741445859440E-012
  -5.8100000000000013E-002     2.1489471172583124E-013
  -5.6999999999999995E-002    -6.2380235525683059E-012
  -5.5900000000000005E-002    -8.8096847525309663E-012
  -5.4800000000000015E-002    -4.5483005382818131E-012
  -5.3699999999999998E-002     4.4023465428644215E-012
  -5.2600000000000008E-002     1.1524198262335972E-011
  -5.1499999999999990E-002     1.0459163049536535E-011
  -5.0400000000000000E-002     3.5933484920230852E-013
  -4.9300000000000010E-002    -1.2249832224975332E-011
  -4.8199999999999993E-002    -1.7370167804120484E-011
  -4.7100000000000003E-002    -9.1282476369358712E-012
  -4.6000000000000013E-002     8.4971023273094914E-012
  -4.4899999999999995E-002     2.2949087075119223E-011
  -4.3800000000000006E-002     2.1711649839106784E-011
  -4.2699999999999988E-002     2.6003765113413735E-012
  -4.1599999999999998E-002    -2.2429490556530318E-011
  -4.0500000000000008E-002    -3.4327853060123203E-011
  -3.9399999999999991E-002    -2.1110726014517134E-011
  -3.8300000000000001E-002     1.1135241166637666E-011
  -3.7200000000000011E-002     3.9962297360141008E-011
  -3.6099999999999993E-002     4.1851255100366913E-011
  -3.5000000000000003E-002     1.1003189678837622E-011
  -3.3900000000000013E-002    -3.3050156361680294E-011
  -3.2799999999999996E-002    -5.7089229177353928E-011
  -3.1700000000000006E-002    -3.8844205629828821E-011
  -3.0599999999999988E-002     1.3255853012483776E-011
  -2.9499999999999998E-002     6.2066678185868085E-011
  -2.8400000000000009E-002     6.7346149490443707E-011
  -2.7299999999999991E-002     1.7981812219791671E-011
  -2.6200000000000001E-002    -5.4311451169741787E-011
  -2.5100000000000011E-002    -9.3924326649563739E-011
  -2.3999999999999994E-002    -6.2754974827772259E-011
  -2.2900000000000004E-002     2.5934048311637703E-011
  -2.1800000000000014E-002     1.0984808201941476E-010
  -2.0699999999999996E-002     1.2003818772310382E-010
  -1.9600000000000006E-002     3.5426044042718985E-011
  -1.8499999999999989E-002    -9.2540843044108811E-011
  -1.7399999999999999E-002    -1.6952796111358026E-010
  -1.6300000000000009E-002    -1.2677467409183407E-010
  -1.5199999999999991E-002     2.0514520637782141E-011
  -1.4100000000000001E-002     1.7288472042853442E-010
  -1.3000000000000012E-002     2.1306079123206700E-010
  -1.1899999999999994E-002     9.5748166339948426E-011
  -1.0800000000000004E-002    -1.0722425725084861E-010
  -9.6999999999999864E-003    -2.4830434930400713E-010
  -8.5999999999999965E-003    -2.1091159374542201E-010
  -7.5000000000000067E-003    -5.3843886814453068E-012
  -6.3999999999999890E-003     2.2345778005750105E-010
  -5.2999999999999992E-003     2.9472982387979130E-010
  -4.2000000000000093E-003     1.3142059662740735E-010
  -3.0999999999999917E-003    -1.6417144033109565E-010
  -2.0000000000000018E-003    -3.6817426884994120E-010
  -9.0000000000001190E-004    -2.9781635491055169E-010
   2.0000000000000573E-004     3.6318070079088827E-011
   1.2999999999999956E-003     4.1067149680884540E-010
   2.4000000000000132E-003     5.3483895090522537E-010
   3.5000000000000031E-003     2.6991650581287274E-010
   4.5999999999999930E-003    -2.4311624935435816E-010
   5.7000000000000106E-003    -6.5652777658797845E-010
   6.8000000000000005E-003    -6.5757449485559505E-010
   7.8999999999999904E-003    -2.1025642338301509E-010
   9.0000000000000080E-003     3.9070888191439224E-010
   1.0099999999999998E-002     7.1576566895714677E-010
   1.1199999999999988E-002     5.1997833816486150E-010
   1.2300000000000005E-002    -5.0415154689842367E-011
   1.3399999999999995E-002    -5.3792958976117689E-010
   1.4500000000000013E-002    -5.0823800723520662E-010
   1.5600000000000003E-002     9.5638483244009365E-011
   1.6699999999999993E-002     8.5508472524864487E-010
   1.7800000000000010E-002     1.1396548149633645E-009
   1.8900000000000000E-002     5.6897653255560954E-010
   1.9999999999999990E-002    -6.6144845156657084E-010
   2.1100000000000008E-002    -1.8534243029222353E-009
   2.2199999999999998E-002    -2.2599653259902652E-009
   2.3300000000000015E-002    -1.6088091969734819E-009
   2.4400000000000005E-002    -3.0544308748936544E-010
   2.5499999999999995E-002     8.5945300876133501E-010
   2.6600000000000013E-002     1.3052582348294095E-009
   2.7700000000000002E-002     1.1178699077518672E-009
   2.8799999999999992E-002     9.9998698210868042E-010
   2.9900000000000010E-002     1.7144564656845773E-009
   3.1000000000000000E-002     3.4184024499950283E-009
   3.2099999999999990E-002     5.4081197298216921E-009
   3.3200000000000007E-002     6.5213652256090882E-009
   3.4299999999999997E-002     5.9534133178829052E-009
   3.5400000000000015E-002     3.8990837225583164E-009
   3.6500000000000005E-002     1.5149547172299549E-009
   3.7599999999999995E-002     1.7602430624208409E-010
   3.8700000000000012E-002     5.3903276286959567E-010
   3.9800000000000002E-002     2.1077015688319989E-009
   4.0899999999999992E-002     3.6536040859402874E-009
   4.2000000000000010E-002     4.2058432292435555E-009
   4.3099999999999999E-002     3.8597760543268578E-009
   4.4200000000000017E-002     3.7455913926009998E-009
   4.5300000000000007E-002     5.1149044999476700E-009
   4.6399999999999997E-002     8.2061308859238125E-009
   4.7500000000000014E-002     1.1792224086093483E-008
   4.8600000000000004E-002     1.3866021220110269E-008
   4.9699999999999994E-002     1.3067935178412426E-008
   5.0800000000000012E-002     9.8356478517303003E-009
   5.1900000000000002E-002     6.3618181833646759E-009
   5.2999999999999992E-002     5.2656203841650040E-009
   5.4099999999999981E-002     7.8470723252621610E-009
   5.5200000000000027E-002     1.3174078716815529E-008
   5.6300000000000017E-002     1.8716574956556542E-008
   5.7400000000000007E-002     2.2133017196779292E-008
   5.8499999999999996E-002     2.2935790155997893E-008
   5.9599999999999986E-002     2.2795163090449932E-008
   6.0700000000000032E-002     2.4214662275312548E-008
   6.1800000000000022E-002     2.8536559781855431E-008
   6.2900000000000011E-002     3.4792844161302128E-008
   6.4000000000000001E-002     4.0340975004937718E-008
   6.5099999999999991E-002     4.2892349227940940E-008
   6.6199999999999981E-002     4.2434624702991641E-008
   6.7300000000000026E-002     4.1532800310051243E-008
   6.8400000000000016E-002     4.3648114456118492E-008
   6.9500000000000006E-002     5.0622471547967507E-008
   7.0599999999999996E-002     6.1201355094908649E-008
   7.1699999999999986E-002     7.1802027434841875E-008
   7.2800000000000031E-002     7.9098001037891663E-008
   7.3900000000000021E-002     8.2575439819265739E-008
   7.5000000000000011E-002     8.5117491721575789E-008
   7.6100000000000001E-002     9.1045556871449662E-008
   7.7199999999999991E-002     1.0293725694054956E-007
   7.8299999999999981E-002     1.1954743683872948E-007
   7.9400000000000026E-002     1.3646892682572798E-007
   8.0500000000000016E-002     1.4921113233867800E-007
   8.1600000000000006E-002     1.5655123775104585E-007
   8.2699999999999996E-002     1.6169879302196932E-007
   8.3799999999999986E-002     1.7031446475357370E-007
   8.4900000000000031E-002     1.8669446433250414E-007
   8.6000000000000021E-002     2.1082010448481014E-007
   8.7100000000000011E-002     2.3841398899548949E-007
   8.8200000000000001E-002     2.6399732178106206E-007
   8.9299999999999990E-002     2.8476006264099851E-007
   9.0399999999999980E-002     3.0245277571339102E-007
   9.1500000000000026E-002     3.2195794119616039E-007
   9.2600000000000016E-002     3.4765082546073245E-007
   9.3700000000000006E-002     3.8029594406907563E-007
   9.4799999999999995E-002     4.1680021922729793E-007
   9.5899999999999985E-002     4.5296465600586089E-007
   9.7000000000000031E-002     4.8707732958064298E-007
   9.8100000000000021E-002     5.2151921181575744E-007
   9.9200000000000010E-002     5.6106182455550879E-007
  0.10030000000000000          6.0910332422281499E-007
  0.10139999999999999          6.6476422944106162E-007
  0.10249999999999998          7.2322455935136531E-007
  0.10360000000000003          7.7926154062879505E-007
  0.10470000000000002          8.3144482232455630E-007
  0.10580000000000001          8.8379704266117187E-007
  0.10690000000000000          9.4347927870330750E-007
  0.10799999999999998          1.0160001693293452E-006
  0.10910000000000003          1.1013751191057963E-006
  0.11020000000000002          1.1940820741074276E-006
  0.11130000000000001          1.2869559213868342E-006
  0.11240000000000000          1.3762819435214624E-006
  0.11349999999999999          1.4644373322880710E-006
  0.11460000000000004          1.5581874777126359E-006
  0.11570000000000003          1.6639195337120327E-006
  0.11680000000000001          1.7833341416917392E-006
  0.11790000000000000          1.9127276118524605E-006
  0.11899999999999999          2.0463137389015174E-006
  0.12009999999999998          2.1810176349390531E-006
  0.12120000000000003          2.3190759748104028E-006
  0.12230000000000002          2.4664736884005833E-006
  0.12340000000000001          2.6284114937880076E-006
  0.12450000000000000          2.8052986635884736E-006
  0.12559999999999999          2.9923944566689897E-006
  0.12670000000000003          3.1834556466492359E-006
  0.12780000000000002          3.3756973607523832E-006
  0.12890000000000001          3.5723146538657602E-006
  0.13000000000000000          3.7805866668350063E-006
  0.13109999999999999          4.0068916860036552E-006
  0.13219999999999998          4.2522960939095356E-006
  0.13330000000000003          4.5120018512534443E-006
  0.13440000000000002          4.7790636017452925E-006
  0.13550000000000001          5.0496546464273706E-006
  0.13660000000000000          5.3260073400451802E-006
  0.13769999999999999          5.6148628573282622E-006
  0.13880000000000003          5.9226663324807305E-006
  0.13990000000000002          6.2511262512998655E-006
  0.14100000000000001          6.5963527049461845E-006
  0.14210000000000000          6.9521424848062452E-006
  0.14319999999999999          7.3148926276189741E-006
  0.14429999999999998          7.6864143920829520E-006
  0.14540000000000003          8.0725758380140178E-006
  0.14650000000000002          8.4788953245151788E-006
  0.14760000000000001          8.9064769781543873E-006
  0.14870000000000000          9.3512853709398769E-006
  0.14979999999999999          9.8072205219068564E-006
  0.15090000000000003          1.0270676284562796E-005
  0.15200000000000002          1.0743219718278851E-005
  0.15310000000000001          1.1230411473661661E-005
  0.15420000000000000          1.1737803106370848E-005
  0.15529999999999999          1.2267190868442412E-005
  0.15639999999999998          1.2815737136406824E-005
  0.15750000000000003          1.3378477888181806E-005
  0.15860000000000002          1.3952115295978729E-005
  0.15970000000000001          1.4537172319251113E-005
  0.16080000000000000          1.5137036825763062E-005
  0.16189999999999999          1.5754765627207235E-005
  0.16300000000000003          1.6390311429859139E-005
  0.16410000000000002          1.7040400052792393E-005
  0.16520000000000001          1.7701049728202634E-005
  0.16630000000000000          1.8370656107435934E-005
  0.16739999999999999          1.9051149138249457E-005
  0.16850000000000004          1.9746328689507209E-005
  0.16960000000000003          2.0458657672861591E-005
  0.17070000000000002          2.1187002857914194E-005
  0.17180000000000001          2.1927120542386547E-005
  0.17290000000000000          2.2674350475426763E-005
  0.17399999999999999          2.3426531697623432E-005
  0.17510000000000003          2.4185117581509985E-005
  0.17620000000000002          2.4953455067588948E-005
  0.17730000000000001          2.5733777874847874E-005
  0.17840000000000000          2.6525334760663100E-005
  0.17949999999999999          2.7324764232616872E-005
  0.18060000000000004          2.8128310077590868E-005
  0.18170000000000003          2.8934167858096771E-005
  0.18280000000000002          2.9742841434199363E-005
  0.18390000000000001          3.0555540433852002E-005
  0.18500000000000000          3.1372157536679879E-005
  0.18609999999999999          3.2190455385716632E-005
  0.18720000000000003          3.3007090678438544E-005
  0.18830000000000002          3.3819706004578620E-005
  0.18940000000000001          3.4628330467967317E-005
  0.19050000000000000          3.5434597521089017E-005
  0.19159999999999999          3.6239649489289150E-005
  0.19270000000000004          3.7042453186586499E-005
  0.19380000000000003          3.7839708966203034E-005
  0.19490000000000002          3.8627647882094607E-005
  0.19600000000000001          3.9404174458468333E-005
  0.19710000000000000          4.0169594285544008E-005
  0.19819999999999999          4.0925315261119977E-005
  0.19930000000000003          4.1671795770525932E-005
  0.20040000000000002          4.2407242290209979E-005
  0.20150000000000001          4.3128100514877588E-005
  0.20260000000000000          4.3831063521793112E-005
  0.20369999999999999          4.4514737965073436E-005
  0.20480000000000004          4.5180207962403074E-005
  0.20590000000000003          4.5829725422663614E-005
  0.20700000000000002          4.6464312617899850E-005
  0.20810000000000001          4.7082055971259251E-005
  0.20920000000000000          4.7678731789346784E-005
  0.21029999999999999          4.8250170948449522E-005
  0.21140000000000003          4.8794670874485746E-005
  0.21250000000000002          4.9313974159304053E-005
  0.21360000000000001          4.9811067583505064E-005
  0.21470000000000000          5.0287169869989157E-005
  0.21579999999999999          5.0740520237013698E-005
  0.21690000000000004          5.1167568017262965E-005
  0.21800000000000003          5.1565875764936209E-005
  0.21910000000000002          5.1935985538875684E-005
  0.22020000000000001          5.2280473028076813E-005
  0.22130000000000000          5.2601091738324612E-005
  0.22239999999999999          5.2896724810125306E-005
  0.22350000000000003          5.3163748816587031E-005
  0.22460000000000002          5.3398343879962340E-005
  0.22570000000000001          5.3599553211824968E-005
  0.22680000000000000          5.3770130762131885E-005
  0.22789999999999999          5.3914198360871524E-005
  0.22900000000000004          5.4034673667047173E-005
  0.23010000000000003          5.4131731303641573E-005
  0.23120000000000002          5.4203323088586330E-005
  0.23230000000000001          5.4246953368419781E-005
  0.23340000000000000          5.4261356126517057E-005
  0.23450000000000004          5.4247495427262038E-005
  0.23560000000000003          5.4207579523790628E-005
  0.23670000000000002          5.4143729357747361E-005
  0.23780000000000001          5.4057047236710787E-005
  0.23890000000000000          5.3947507694829255E-005
  0.23999999999999999          5.3814470447832718E-005
  0.24110000000000004          5.3657611715607345E-005
  0.24220000000000003          5.3477742767427117E-005
  0.24330000000000002          5.3277028200682253E-005
  0.24440000000000001          5.3058225603308529E-005
  0.24550000000000000          5.2822873840341344E-005
  0.24660000000000004          5.2570812840713188E-005
  0.24770000000000003          5.2301202231319621E-005
  0.24880000000000002          5.2014129323652014E-005
  0.24990000000000001          5.1711431297007948E-005
  0.25100000000000000          5.1396022172411904E-005
  0.25209999999999999          5.1070295739918947E-005
  0.25320000000000004          5.0734826800180599E-005
  0.25430000000000003          5.0388542149448767E-005
  0.25540000000000002          5.0030681450152770E-005
  0.25650000000000001          4.9663209210848436E-005
  0.25760000000000000          4.9290065362583846E-005
  0.25870000000000004          4.8915280785877258E-005
  0.25980000000000003          4.8540794523432851E-005
  0.26090000000000002          4.8164234613068402E-005
  0.26200000000000001          4.7781599278096110E-005
  0.26310000000000000          4.7392157284775749E-005
  0.26419999999999999          4.7000488848425448E-005
  0.26530000000000004          4.6613047743448988E-005
  0.26640000000000003          4.6232726162998006E-005
  0.26750000000000002          4.5857585064368322E-005
  0.26860000000000001          4.5484273869078606E-005
  0.26970000000000000          4.5112588850315660E-005
  0.27080000000000004          4.4746488129021600E-005
  0.27190000000000003          4.4391093979356810E-005
  0.27300000000000002          4.4047901610611007E-005
  0.27410000000000001          4.3713418563129380E-005
  0.27520000000000000          4.3383774027461186E-005
  0.27629999999999999          4.3059229938080534E-005
  0.27740000000000004          4.2744079109979793E-005
  0.27850000000000003          4.2442923586349934E-005
  0.27960000000000002          4.2157131247222424E-005
  0.28070000000000001          4.1884675738401711E-005
  0.28179999999999999          4.1623239667387679E-005
  0.28290000000000004          4.1372826672159135E-005
  0.28400000000000003          4.1135466744890437E-005
  0.28510000000000002          4.0912676922744140E-005
  0.28620000000000001          4.0703522245166823E-005
  0.28730000000000000          4.0506096411263570E-005
  0.28840000000000005          4.0320926927961409E-005
  0.28950000000000004          4.0151102439267561E-005
  0.29060000000000002          3.9998918509809300E-005
  0.29170000000000001          3.9863258280092850E-005
  0.29280000000000000          3.9739366911817342E-005
  0.29389999999999999          3.9623224438400939E-005
  0.29500000000000004          3.9516089600510895E-005
  0.29610000000000003          3.9423866837751120E-005
  0.29720000000000002          3.9350914448732510E-005
  0.29830000000000001          3.9294940506806597E-005
  0.29940000000000000          3.9249109249794856E-005
  0.30050000000000004          3.9208265661727637E-005
  0.30160000000000003          3.9173515688162297E-005
  0.30270000000000002          3.9151051169028506E-005
  0.30380000000000001          3.9145608752733096E-005
  0.30490000000000000          3.9154623664217070E-005
  0.30599999999999999          3.9169284718809649E-005
  0.30709999999999998          3.9182483305921778E-005
  0.30819999999999997          3.9195390854729339E-005
  0.30930000000000007          3.9215814467752352E-005
  0.31040000000000006          3.9250695408554748E-005
  0.31150000000000005          3.9298836782108992E-005
  0.31260000000000004          3.9351285522570834E-005
  0.31370000000000003          3.9398662920575589E-005
  0.31480000000000002          3.9439481042791158E-005
  0.31590000000000001          3.9479866245528683E-005
  0.31700000000000000          3.9525828469777480E-005
  0.31809999999999999          3.9577771531185135E-005
  0.31919999999999998          3.9629940147278830E-005
  0.32029999999999997          3.9675614971201867E-005
  0.32140000000000007          3.9712685975246131E-005
  0.32250000000000006          3.9743430534144863E-005
  0.32360000000000005          3.9769867726135999E-005
  0.32470000000000004          3.9790276787243783E-005
  0.32580000000000003          3.9800484955776483E-005
  0.32690000000000002          3.9798618672648445E-005
  0.32800000000000001          3.9787333662388846E-005
  0.32910000000000000          3.9770086004864424E-005
  0.33019999999999999          3.9746028051013127E-005
  0.33129999999999998          3.9708604163024575E-005
  0.33239999999999997          3.9650240069022402E-005
  0.33350000000000007          3.9568902138853446E-005
  0.33460000000000006          3.9469654439017177E-005
  0.33570000000000005          3.9359292713925242E-005
  0.33680000000000004          3.9239188481587917E-005
  0.33790000000000003          3.9103753806557506E-005
  0.33900000000000002          3.8944432162679732E-005
  0.34010000000000001          3.8756341382395476E-005
  0.34120000000000000          3.8541827962035313E-005
  0.34229999999999999          3.8305977795971557E-005
  0.34339999999999998          3.8050700823077932E-005
  0.34449999999999997          3.7773785152239725E-005
  0.34560000000000007          3.7470828829100356E-005
  0.34670000000000006          3.7138757761567831E-005
  0.34780000000000005          3.6778863432118669E-005
  0.34890000000000004          3.6394787457538769E-005
