 -0.20000000000000001          6.1200268100947142E-004
 -0.19890000000000002          1.5700874791946262E-004
 -0.19780000000000000         -3.6473202635534108E-004
 -0.19670000000000001         -4.5015907380729914E-004
 -0.19560000000000002         -6.4338702941313386E-005
 -0.19450000000000001          3.4157317713834345E-004
 -0.19340000000000002          3.1916299485601485E-004
 -0.19230000000000000         -1.0027167445514351E-004
 -0.19120000000000001         -4.4295511906966567E-004
 -0.19010000000000002         -3.0209220130927861E-004
 -0.18900000000000000          2.2073570289649069E-004
 -0.18790000000000001          6.1065336922183633E-004
 -0.18680000000000002          4.7384394565597177E-004
 -0.18570000000000000         -4.9489051889395341E-005
 -0.18460000000000001         -4.2795439367182553E-004
 -0.18350000000000000         -2.8902132180519402E-004
 -0.18240000000000001          1.9904195505660027E-004
 -0.18130000000000002          5.1143090240657330E-004
 -0.18020000000000000          3.2131309853866696E-004
 -0.17910000000000001         -1.5806227747816592E-004
 -0.17800000000000002         -4.0094123687595129E-004
 -0.17690000000000000         -1.2483948376029730E-004
 -0.17580000000000001          4.1002349462360144E-004
 -0.17470000000000002          6.7106221104040742E-004
 -0.17360000000000000          4.0856498526409268E-004
 -0.17250000000000001         -8.5985411715228111E-005
 -0.17140000000000000         -2.8682791162282228E-004
 -0.17030000000000001          1.8048320271191187E-005
 -0.16920000000000002          5.1138637354597449E-004
 -0.16810000000000000          6.8530172575265169E-004
 -0.16700000000000001          3.7517311284318566E-004
 -0.16589999999999999         -7.0640271587762982E-005
 -0.16480000000000000         -1.5878045815043151E-004
 -0.16370000000000001          2.3325417714659125E-004
 -0.16260000000000002          7.3316867928951979E-004
 -0.16150000000000000          8.6641969392076135E-004
 -0.16040000000000001          5.4929824545979500E-004
 -0.15930000000000000          1.6721370047889650E-004
 -0.15820000000000001          1.6329930804204196E-004
 -0.15710000000000002          5.7491130428388715E-004
 -0.15600000000000000          1.0033174185082316E-003
 -0.15490000000000001          1.0412361007183790E-003
 -0.15379999999999999          7.0302723906934261E-004
 -0.15270000000000000          4.0592622826807201E-004
 -0.15160000000000001          5.2806345047429204E-004
 -0.15050000000000002          1.0124202817678452E-003
 -0.14940000000000001          1.4318447792902589E-003
 -0.14830000000000002          1.4409575378522277E-003
 -0.14720000000000000          1.1359554482623935E-003
 -0.14610000000000001          9.4608275685459375E-004
 -0.14500000000000002          1.1772856814786792E-003
 -0.14390000000000000          1.6924513038247824E-003
 -0.14280000000000001          2.0618957933038473E-003
 -0.14169999999999999          2.0207245834171772E-003
 -0.14060000000000000          1.7472617328166962E-003
 -0.13950000000000001          1.6723702428862453E-003
 -0.13840000000000002          2.0247972570359707E-003
 -0.13730000000000001          2.5937713216990232E-003
 -0.13619999999999999          2.9564232099801302E-003
 -0.13510000000000000          2.9252455569803715E-003
 -0.13400000000000001          2.7435109950602055E-003
 -0.13290000000000002          2.8249707538634539E-003
 -0.13180000000000000          3.3163046464323997E-003
 -0.13070000000000001          3.9443862624466419E-003
 -0.12959999999999999          4.3053957633674145E-003
 -0.12850000000000000          4.2897127568721771E-003
 -0.12740000000000001          4.1950950399041176E-003
 -0.12630000000000002          4.4130636379122734E-003
 -0.12520000000000001          5.0209341570734978E-003
 -0.12410000000000000          5.7079419493675232E-003
 -0.12300000000000001          6.1067412607371807E-003
 -0.12190000000000001          6.1791515909135342E-003
 -0.12080000000000000          6.2517351470887661E-003
 -0.11970000000000000          6.6677653230726719E-003
 -0.11860000000000001          7.4282395653426647E-003
 -0.11750000000000001          8.1939799711108208E-003
 -0.11640000000000000          8.6444430053234100E-003
 -0.11530000000000000          8.8119488209486008E-003
 -0.11420000000000001          9.0423310175538063E-003
 -0.11310000000000001          9.6331294625997543E-003
 -0.11200000000000000          1.0525374673306942E-002
 -0.11090000000000001          1.1374593712389469E-002
 -0.10980000000000001          1.1917128227651119E-002
 -0.10870000000000000          1.2242880649864674E-002
 -0.10760000000000000          1.2694327160716057E-002
 -0.10650000000000001          1.3502717949450016E-002
 -0.10540000000000001          1.4550519175827503E-002
 -0.10430000000000000          1.5499708242714405E-002
 -0.10320000000000000          1.6149709001183510E-002
 -0.10210000000000001          1.6643689945340157E-002
 -0.10100000000000001          1.7310760915279388E-002
  -9.9900000000000003E-002     1.8319036811590195E-002
  -9.8799999999999999E-002     1.9504858180880547E-002
  -9.7700000000000009E-002     2.0550575107336044E-002
  -9.6600000000000005E-002     2.1320946514606476E-002
  -9.5500000000000002E-002     2.2001385688781738E-002
  -9.4400000000000012E-002     2.2892821580171585E-002
  -9.3300000000000008E-002     2.4099649861454964E-002
  -9.2200000000000004E-002     2.5422103703022003E-002
  -9.1100000000000000E-002     2.6571061462163925E-002
  -9.0000000000000011E-002     2.7472103014588356E-002
  -8.8900000000000007E-002     2.8337033465504646E-002
  -8.7800000000000003E-002     2.9431825503706932E-002
  -8.6699999999999999E-002     3.0799532309174538E-002
  -8.5600000000000009E-002     3.2216429710388184E-002
  -8.4500000000000006E-002     3.3429626375436783E-002
  -8.3400000000000002E-002     3.4423608332872391E-002
  -8.2299999999999998E-002     3.5432171076536179E-002
  -8.1200000000000008E-002     3.6675456911325455E-002
  -8.0100000000000005E-002     3.8152541965246201E-002
  -7.9000000000000001E-002     3.9622217416763306E-002
  -7.7899999999999997E-002     4.0875457227230072E-002
  -7.6800000000000007E-002     4.1940271854400635E-002
  -7.5700000000000003E-002     4.3044902384281158E-002
  -7.4600000000000000E-002     4.4374532997608185E-002
  -7.3500000000000010E-002     4.5878697186708450E-002
  -7.2399999999999992E-002     4.7319438308477402E-002
  -7.1300000000000002E-002     4.8530548810958862E-002
  -7.0200000000000012E-002     4.9580086022615433E-002
  -6.9099999999999995E-002     5.0689809024333954E-002
  -6.8000000000000005E-002     5.1990270614624023E-002
  -6.6900000000000015E-002     5.3407862782478333E-002
  -6.5799999999999997E-002     5.4724529385566711E-002
  -6.4700000000000008E-002     5.5812492966651917E-002
  -6.3599999999999990E-002     5.6766659021377563E-002
  -6.2500000000000000E-002     5.7787954807281494E-002
  -6.1400000000000010E-002     5.8966197073459625E-002
  -6.0299999999999992E-002     6.0189805924892426E-002
  -5.9200000000000003E-002     6.1268046498298645E-002
  -5.8100000000000013E-002     6.2131471931934357E-002
  -5.6999999999999995E-002     6.2868513166904449E-002
  -5.5900000000000005E-002     6.3661105930805206E-002
  -5.4800000000000015E-002     6.4545363187789917E-002
  -5.3699999999999998E-002     6.5428696572780609E-002
  -5.2600000000000008E-002     6.6150918602943420E-002
  -5.1499999999999990E-002     6.6677771508693695E-002
  -5.0400000000000000E-002     6.7095361649990082E-002
  -4.9300000000000010E-002     6.7548140883445740E-002
  -4.8199999999999993E-002     6.8036101758480072E-002
  -4.7100000000000003E-002     6.8481475114822388E-002
  -4.6000000000000013E-002     6.8762026727199554E-002
  -4.4899999999999995E-002     6.8834252655506134E-002
  -4.3800000000000006E-002     6.8792581558227539E-002
  -4.2699999999999988E-002     6.8773135542869568E-002
  -4.1599999999999998E-002     6.8749994039535522E-002
  -4.0500000000000008E-002     6.8637952208518982E-002
  -3.9399999999999991E-002     6.8361103534698486E-002
  -3.8300000000000001E-002     6.7901842296123505E-002
  -3.7200000000000011E-002     6.7337028682231903E-002
  -3.6099999999999993E-002     6.6751845180988312E-002
  -3.5000000000000003E-002     6.6166654229164124E-002
  -3.3900000000000013E-002     6.5453693270683289E-002
  -3.2799999999999996E-002     6.4575918018817902E-002
  -3.1700000000000006E-002     6.3537031412124634E-002
  -3.0599999999999988E-002     6.2403693795204163E-002
  -2.9499999999999998E-002     6.1244435608386993E-002
  -2.8400000000000009E-002     6.0020361095666885E-002
  -2.7299999999999991E-002     5.8677770197391510E-002
  -2.6200000000000001E-002     5.7151842862367630E-002
  -2.5100000000000011E-002     5.5525917559862137E-002
  -2.3999999999999994E-002     5.3853698074817657E-002
  -2.2900000000000004E-002     5.2120365202426910E-002
  -2.1800000000000014E-002     5.0316661596298218E-002
  -2.0699999999999996E-002     4.8362955451011658E-002
  -1.9600000000000006E-002     4.6316660940647125E-002
  -1.8499999999999989E-002     4.4190734624862671E-002
  -1.7399999999999999E-002     4.2027771472930908E-002
  -1.6300000000000009E-002     3.9788883179426193E-002
  -1.5199999999999991E-002     3.7444438785314560E-002
  -1.4100000000000001E-002     3.4999996423721313E-002
  -1.3000000000000012E-002     3.2492589205503464E-002
  -1.1899999999999994E-002     2.9959255829453468E-002
  -1.0800000000000004E-002     2.7388885617256165E-002
  -9.6999999999999864E-003     2.4770367890596390E-002
  -8.5999999999999965E-003     2.2074071690440178E-002
  -7.5000000000000067E-003     1.9337033852934837E-002
  -6.3999999999999890E-003     1.6555553302168846E-002
  -5.2999999999999992E-003     1.3744442723691463E-002
  -4.2000000000000093E-003     1.0948146693408489E-002
  -3.0999999999999917E-003     8.1370361149311066E-003
  -2.0000000000000018E-003     5.2777770906686783E-003
  -9.0000000000001190E-004     2.3296293802559376E-003
   2.0000000000000573E-004    -5.7407398708164692E-004
   1.2999999999999956E-003    -3.3999995794147253E-003
   2.4000000000000132E-003    -6.2629622407257557E-003
   3.5000000000000031E-003    -9.1222207993268967E-003
   4.5999999999999930E-003    -1.1977775953710079E-002
   5.7000000000000106E-003    -1.4844442717730999E-002
   6.8000000000000005E-003    -1.7603700980544090E-002
   7.8999999999999904E-003    -2.0318515598773956E-002
   9.0000000000000080E-003    -2.3014811798930168E-002
   1.0099999999999998E-002    -2.5703700259327888E-002
   1.1199999999999988E-002    -2.8381478041410446E-002
   1.2300000000000005E-002    -3.0951848253607750E-002
   1.3399999999999995E-002    -3.3429626375436783E-002
   1.4500000000000013E-002    -3.5822216421365738E-002
   1.5600000000000003E-002    -3.8248144090175629E-002
   1.6699999999999993E-002    -4.0662959218025208E-002
   1.7800000000000010E-002    -4.2888883501291275E-002
   1.8900000000000000E-002    -4.4977772980928421E-002
   1.9999999999999990E-002    -4.7014810144901276E-002
   2.1100000000000008E-002    -4.9014806747436523E-002
   2.2199999999999998E-002    -5.0974067300558090E-002
   2.3300000000000015E-002    -5.2837029099464417E-002
   2.4400000000000005E-002    -5.4577771574258804E-002
   2.5499999999999995E-002    -5.6170362979173660E-002
   2.6600000000000013E-002    -5.7629622519016266E-002
   2.7700000000000002E-002    -5.9014808386564255E-002
   2.8799999999999992E-002    -6.0474067926406860E-002
   2.9900000000000010E-002    -6.1762955039739609E-002
   3.1000000000000000E-002    -6.2977768480777740E-002
   3.2099999999999990E-002    -6.3925914466381073E-002
   3.3200000000000007E-002    -6.4755544066429138E-002
   3.4299999999999997E-002    -6.5622210502624512E-002
   3.5400000000000015E-002    -6.6407397389411926E-002
   3.6500000000000005E-002    -6.7096285521984100E-002
   3.7599999999999995E-002    -6.7651845514774323E-002
   3.8700000000000012E-002    -6.8051844835281372E-002
   3.9800000000000002E-002    -6.8385176360607147E-002
   4.0899999999999992E-002    -6.8592585623264313E-002
   4.2000000000000010E-002    -6.8740732967853546E-002
   4.3099999999999999E-002    -6.8911105394363403E-002
   4.4200000000000017E-002    -6.8911105394363403E-002
   4.5300000000000007E-002    -6.8829618394374847E-002
   4.6399999999999997E-002    -6.8540729582309723E-002
   4.7500000000000014E-002    -6.8192586302757263E-002
   4.8600000000000004E-002    -6.7888878285884857E-002
   4.9699999999999994E-002    -6.7496284842491150E-002
   5.0800000000000012E-002    -6.7066654562950134E-002
   5.1900000000000002E-002    -6.6474065184593201E-002
   5.2999999999999992E-002    -6.5725915133953094E-002
   5.4099999999999981E-002    -6.4999990165233612E-002
   5.5200000000000027E-002    -6.4340732991695404E-002
   5.6300000000000017E-002    -6.3577771186828613E-002
   5.7400000000000007E-002    -6.2651842832565308E-002
   5.8499999999999996E-002    -6.1688881367444992E-002
   5.9599999999999986E-002    -6.0718510299921036E-002
   6.0700000000000032E-002    -5.9637028723955154E-002
   6.1800000000000022E-002    -5.8681473135948181E-002
   6.2900000000000011E-002    -5.7614807039499283E-002
   6.4000000000000001E-002    -5.6437030434608459E-002
   6.5099999999999991E-002    -5.5259250104427338E-002
   6.6199999999999981E-002    -5.4044436663389206E-002
   6.7300000000000026E-002    -5.2881475538015366E-002
   6.8400000000000016E-002    -5.1718510687351227E-002
   6.9500000000000006E-002    -5.0525918602943420E-002
   7.0599999999999996E-002    -4.9266658723354340E-002
   7.1699999999999986E-002    -4.7881476581096649E-002
   7.2800000000000031E-002    -4.6481475234031677E-002
   7.3900000000000021E-002    -4.5281477272510529E-002
   7.5000000000000011E-002    -4.4155549257993698E-002
   7.6100000000000001E-002    -4.2940735816955566E-002
   7.7199999999999991E-002    -4.1562955826520920E-002
   7.8299999999999981E-002    -4.0103700011968613E-002
   7.9400000000000026E-002    -3.8822218775749207E-002
   8.0500000000000016E-002    -3.7577774375677109E-002
   8.1600000000000006E-002    -3.6540735512971878E-002
   8.2699999999999996E-002    -3.5392586141824722E-002
   8.3799999999999986E-002    -3.4044440835714340E-002
   8.4900000000000031E-002    -3.2629624009132385E-002
   8.6000000000000021E-002    -3.1466662883758545E-002
   8.7100000000000011E-002    -3.0355552211403847E-002
   8.8200000000000001E-002    -2.9348144307732582E-002
   8.9299999999999990E-002    -2.8266662731766701E-002
   9.0399999999999980E-002    -2.7051847428083420E-002
   9.1500000000000026E-002    -2.5807404890656471E-002
   9.2600000000000016E-002    -2.4725923314690590E-002
   9.3700000000000006E-002    -2.3762959986925125E-002
   9.4799999999999995E-002    -2.2948145866394043E-002
   9.5899999999999985E-002    -2.1888885647058487E-002
   9.7000000000000031E-002    -2.0874071866273880E-002
   9.8100000000000021E-002    -1.9874071702361107E-002
   9.9200000000000010E-002    -1.8903700634837151E-002
  0.10030000000000000         -1.8199997022747993E-002
  0.10139999999999999         -1.7422219738364220E-002
  0.10249999999999998         -1.6570368781685829E-002
  0.10360000000000003         -1.5651850029826164E-002
  0.10470000000000002         -1.4748145826160908E-002
  0.10580000000000001         -1.4044442214071751E-002
  0.10690000000000000         -1.3548146001994610E-002
  0.10799999999999998         -1.2918516993522644E-002
  0.10910000000000003         -1.2140738777816296E-002
  0.11020000000000002         -1.1377776041626930E-002
  0.11130000000000001         -1.0725924745202065E-002
  0.11240000000000000         -1.0251850821077824E-002
  0.11349999999999999         -9.7999982535839081E-003
  0.11460000000000004         -9.2814806848764420E-003
  0.11570000000000003         -8.6814807727932930E-003
  0.11680000000000001         -8.0666653811931610E-003
  0.11790000000000000         -7.5925914570689201E-003
  0.11899999999999999         -7.2148139588534832E-003
  0.12009999999999998         -6.9185174070298672E-003
  0.12120000000000003         -6.4592584967613220E-003
  0.12230000000000002         -6.0148141346871853E-003
  0.12340000000000001         -5.5629620328545570E-003
  0.12450000000000000         -5.2444436587393284E-003
  0.12559999999999999         -5.0148139707744122E-003
  0.12670000000000003         -4.7777770087122917E-003
  0.12780000000000002         -4.4296290725469589E-003
  0.12890000000000001         -4.1111106984317303E-003
  0.13000000000000000         -3.7481477484107018E-003
  0.13109999999999999         -3.4666662104427814E-003
  0.13219999999999998         -3.3185181673616171E-003
  0.13330000000000003         -3.2074069604277611E-003
  0.13440000000000002         -2.9925922863185406E-003
  0.13550000000000001         -2.6740736793726683E-003
  0.13660000000000000         -2.3851848673075438E-003
  0.13769999999999999         -2.3037034552544355E-003
  0.13880000000000003         -2.2518516052514315E-003
  0.13990000000000002         -2.1703701931983232E-003
  0.14100000000000001         -1.9037034362554550E-003
  0.14210000000000000         -1.6148146241903305E-003
  0.14319999999999999         -1.5037035336717963E-003
  0.14429999999999998         -1.4740738552063704E-003
  0.14540000000000003         -1.5333330957219005E-003
  0.14650000000000002         -1.3703701552003622E-003
  0.14760000000000001         -1.1629627551883459E-003
  0.14870000000000000         -9.3333318363875151E-004
  0.14979999999999999         -9.4814802287146449E-004
  0.15090000000000003         -9.7777764312922955E-004
  0.15200000000000002         -9.9999981466680765E-004
  0.15310000000000001         -9.0370356338098645E-004
  0.15420000000000000         -6.8888877285644412E-004
  0.15529999999999999         -5.1111105130985379E-004
  0.15639999999999998         -5.4074067156761885E-004
  0.15750000000000003         -5.8518513105809689E-004
  0.15860000000000002         -6.2222214182838798E-004
  0.15970000000000001         -5.9259252157062292E-004
  0.16080000000000000         -4.1481477092020214E-004
  0.16189999999999999         -2.6666664052754641E-004
  0.16300000000000003         -3.1111107091419399E-004
  0.16410000000000002         -3.6296292091719806E-004
  0.16520000000000001         -4.4444439117796719E-004
  0.16630000000000000         -3.2592588104307652E-004
  0.16739999999999999         -1.7777775065042078E-004
  0.16850000000000004         -1.3333332026377320E-004
  0.16960000000000003         -2.3703700571786612E-004
  0.17070000000000002         -2.8148145065642893E-004
  0.17180000000000001         -2.5185183039866388E-004
  0.17290000000000000         -9.6296280389651656E-005
  0.17399999999999999          1.4814812857366633E-005
  0.17510000000000003         -7.4074065196327865E-005
  0.17620000000000002         -2.2962960065342486E-004
  0.17730000000000001         -3.2592588104307652E-004
  0.17840000000000000         -1.5555553545709699E-004
  0.17949999999999999          1.0370369273005053E-004
  0.18060000000000004          1.4074072532821447E-004
  0.18170000000000003         -8.1481470260769129E-005
  0.18280000000000002         -2.5185183039866388E-004
  0.18390000000000001         -2.3703700571786612E-004
  0.18500000000000000         -5.9259251429466531E-005
  0.18609999999999999          1.2592591519933194E-004
  0.18720000000000003          1.7037034558597952E-004
  0.18830000000000002         -5.9259251429466531E-005
  0.18940000000000001         -2.2222219558898360E-004
  0.19050000000000000         -2.1481479052454233E-004
  0.19159999999999999          2.9629625714733265E-005
  0.19270000000000004          1.9259256077930331E-004
  0.19380000000000003          9.6296280389651656E-005
  0.19490000000000002         -1.4814813039265573E-004
  0.19600000000000001         -1.7037034558597952E-004
  0.19710000000000000         -6.6666660131886601E-005
  0.19819999999999999          1.1111109779449180E-004
  0.19930000000000003          1.1111109779449180E-004
  0.20040000000000002         -2.9629625714733265E-005
  0.20150000000000001         -1.2592591519933194E-004
  0.20260000000000000         -1.1851850285893306E-004
  0.20369999999999999          1.4814812857366633E-005
  0.20480000000000004          1.2592591519933194E-004
  0.20590000000000003          1.6296294052153826E-004
  0.20700000000000002         -2.9629625714733265E-005
  0.20810000000000001         -2.0740738546010107E-004
  0.20920000000000000         -1.5555553545709699E-004
  0.21029999999999999          8.1481470260769129E-005
  0.21140000000000003          2.2222219558898360E-004
  0.21250000000000002          1.4814813039265573E-004
  0.21360000000000001         -1.5555553545709699E-004
  0.21470000000000000         -2.3703700571786612E-004
  0.21579999999999999         -1.1111109779449180E-004
  0.21690000000000004          1.4814813039265573E-004
  0.21800000000000003          2.8888884116895497E-004
  0.21910000000000002          1.1851850285893306E-004
  0.22020000000000001         -1.3333332026377320E-004
  0.22130000000000000         -2.8148145065642893E-004
  0.22239999999999999         -1.3333332026377320E-004
  0.22350000000000003          2.4444441078230739E-004
  0.22460000000000002          3.1111107091419399E-004
  0.22570000000000001          9.6296280389651656E-005
  0.22680000000000000         -1.8518515571486205E-004
  0.22789999999999999         -3.3333330065943301E-004
  0.22900000000000004         -1.0370369273005053E-004
  0.23010000000000003          2.8888884116895497E-004
  0.23120000000000002          2.9629626078531146E-004
  0.23230000000000001          6.6666660131886601E-005
  0.23340000000000000         -2.0740738546010107E-004
  0.23450000000000004         -2.2962960065342486E-004
  0.23560000000000003          3.7037032598163933E-005
  0.23670000000000002          2.8888884116895497E-004
  0.23780000000000001          2.5185183039866388E-004
  0.23890000000000000         -7.4074065196327865E-005
  0.23999999999999999         -2.2962960065342486E-004
  0.24110000000000004         -1.6296294052153826E-004
  0.24220000000000003          1.4074072532821447E-004
  0.24330000000000002          2.9629626078531146E-004
  0.24440000000000001          1.9259256077930331E-004
  0.24550000000000000         -8.8888875325210392E-005
  0.24660000000000004         -2.7407403104007244E-004
  0.24770000000000003         -1.1111109779449180E-004
  0.24880000000000002          1.9999998039565980E-004
  0.24990000000000001          3.6296292091719806E-004
  0.25100000000000000          1.4074072532821447E-004
  0.25209999999999999         -1.1111109779449180E-004
  0.25320000000000004         -2.2222219558898360E-004
  0.25430000000000003         -8.8888875325210392E-005
  0.25540000000000002          2.5925922091118991E-004
  0.25650000000000001          3.3333330065943301E-004
  0.25760000000000000          1.7777775065042078E-004
  0.25870000000000004         -1.4814813039265573E-004
  0.25980000000000003         -2.3703700571786612E-004
  0.26090000000000002         -5.9259251429466531E-005
  0.26200000000000001          2.9629626078531146E-004
  0.26310000000000000          3.8518512155860662E-004
  0.26419999999999999          1.4814813039265573E-004
  0.26530000000000004         -1.5555553545709699E-004
  0.26640000000000003         -1.9999998039565980E-004
  0.26750000000000002          6.6666660131886601E-005
  0.26860000000000001          2.9629626078531146E-004
  0.26970000000000000          2.9629626078531146E-004
  0.27080000000000004          6.6666660131886601E-005
  0.27190000000000003         -1.2592591519933194E-004
  0.27300000000000002         -9.6296280389651656E-005
  0.27410000000000001          1.7037034558597952E-004
  0.27520000000000000          3.4074069117195904E-004
  0.27629999999999999          2.2962960065342486E-004
  0.27740000000000004          4.4444437662605196E-005
  0.27850000000000003         -4.4444437662605196E-005
  0.27960000000000002          0.0000000000000000
  0.28070000000000001          1.8518515571486205E-004
  0.28179999999999999          3.0370365129783750E-004
  0.28290000000000004          2.0740738546010107E-004
  0.28400000000000003          3.7037032598163933E-005
  0.28510000000000002         -2.9629625714733265E-005
  0.28620000000000001          6.6666660131886601E-005
  0.28730000000000000          2.5185183039866388E-004
  0.28840000000000005          3.0370365129783750E-004
  0.28950000000000004          2.1481479052454233E-004
  0.29060000000000002          2.9629625714733265E-005
  0.29170000000000001          3.7037032598163933E-005
  0.29280000000000000          1.5555553545709699E-004
  0.29389999999999999          2.2962960065342486E-004
  0.29500000000000004          2.6666664052754641E-004
  0.29610000000000003          1.9999998039565980E-004
  0.29720000000000002          1.1851850285893306E-004
  0.29830000000000001          4.4444437662605196E-005
  0.29940000000000000          1.6296294052153826E-004
  0.30050000000000004          2.7407403104007244E-004
  0.30160000000000003          2.6666664052754641E-004
  0.30270000000000002          2.0740738546010107E-004
  0.30380000000000001          1.4814813039265573E-004
  0.30490000000000000          1.2592591519933194E-004
  0.30599999999999999          2.0740738546010107E-004
  0.30709999999999998          2.8148145065642893E-004
  0.30819999999999997          2.5925922091118991E-004
  0.30930000000000007          1.6296294052153826E-004
  0.31040000000000006          1.1111109779449180E-004
  0.31150000000000005          1.8518515571486205E-004
  0.31260000000000004          2.9629626078531146E-004
  0.31370000000000003          3.1111107091419399E-004
  0.31480000000000002          2.3703700571786612E-004
  0.31590000000000001          1.7037034558597952E-004
  0.31700000000000000          1.6296294052153826E-004
  0.31809999999999999          1.8518515571486205E-004
  0.31919999999999998          2.7407403104007244E-004
  0.32029999999999997          3.0370365129783750E-004
  0.32140000000000007          2.7407403104007244E-004
  0.32250000000000006          2.3703700571786612E-004
  0.32360000000000005          1.7037034558597952E-004
  0.32470000000000004          1.4814813039265573E-004
  0.32580000000000003          2.3703700571786612E-004
  0.32690000000000002          3.3333330065943301E-004
  0.32800000000000001          3.4814811078831553E-004
  0.32910000000000000          2.2962960065342486E-004
  0.33019999999999999          1.1851850285893306E-004
  0.33129999999999998          1.4814813039265573E-004
  0.33239999999999997          2.1481479052454233E-004
  0.33350000000000007          3.3333330065943301E-004
  0.33460000000000006          3.9259254117496312E-004
  0.33570000000000005          2.7407403104007244E-004
  0.33680000000000004          9.6296280389651656E-005
  0.33790000000000003          1.2592591519933194E-004
  0.33900000000000002          2.5925922091118991E-004
  0.34010000000000001          2.8148145065642893E-004
  0.34120000000000000          2.8888884116895497E-004
  0.34229999999999999          2.2962960065342486E-004
  0.34339999999999998          1.7037034558597952E-004
  0.34449999999999997          1.7777775065042078E-004
  0.34560000000000007          2.2222219558898360E-004
  0.34670000000000006          2.6666664052754641E-004
  0.34780000000000005          2.0740738546010107E-004
  0.34890000000000004          1.9999998039565980E-004
