 -0.20000000000000001          0.0000000000000000
 -0.19890000000000002          7.4052319831707791E-010
 -0.19780000000000000          1.6710269834518954E-009
 -0.19670000000000001          2.1602051258895472E-009
 -0.19560000000000002          2.1046908660338204E-009
 -0.19450000000000001          1.9713268795129579E-009
 -0.19340000000000002          2.2512662845031173E-009
 -0.19230000000000000          2.9173927718062487E-009
 -0.19120000000000001          3.4621900901754543E-009
 -0.19010000000000002          3.4710121443737307E-009
 -0.18900000000000000          3.1143028156321861E-009
 -0.18790000000000001          3.0246836146829992E-009
 -0.18680000000000002          3.6739546960262714E-009
 -0.18570000000000000          4.8965773657982936E-009
 -0.18460000000000001          6.0593183803803186E-009
 -0.18350000000000000          6.7042340567979863E-009
 -0.18240000000000001          6.9994334772616185E-009
 -0.18130000000000002          7.5354735784571858E-009
 -0.18020000000000000          8.6903471085975070E-009
 -0.17910000000000001          1.0234008307463682E-008
 -0.17800000000000002          1.1586414494502151E-008
 -0.17690000000000000          1.2453681641488856E-008
 -0.17580000000000001          1.3169890955566643E-008
 -0.17470000000000002          1.4382229629461563E-008
 -0.17360000000000000          1.6406552560965793E-008
 -0.17250000000000001          1.8925240041767211E-008
 -0.17140000000000000          2.1339888078841796E-008
 -0.17030000000000001          2.3407473292991199E-008
 -0.16920000000000002          2.5496897038124189E-008
 -0.16810000000000000          2.8205096924693862E-008
 -0.16700000000000001          3.1742509065679769E-008
 -0.16589999999999999          3.5733886960542804E-008
 -0.16480000000000000          3.9639786564293900E-008
 -0.16370000000000001          4.3353566070436500E-008
 -0.16260000000000002          4.7349580256650370E-008
 -0.16150000000000000          5.2232728364742798E-008
 -0.16040000000000001          5.8164239646885108E-008
 -0.15930000000000000          6.4760406814912130E-008
 -0.15820000000000001          7.1558908132374199E-008
 -0.15710000000000002          7.8554990068369079E-008
 -0.15600000000000000          8.6246707553527813E-008
 -0.15490000000000001          9.5152444146151538E-008
 -0.15379999999999999          1.0531807248526093E-007
 -0.15270000000000000          1.1633438390390438E-007
 -0.15160000000000001          1.2784187219949672E-007
 -0.15050000000000002          1.3998830183936661E-007
 -0.14940000000000001          1.5335976399910578E-007
 -0.14830000000000002          1.6846374251144880E-007
 -0.14720000000000000          1.8531127921050938E-007
 -0.14610000000000001          2.0353336083189788E-007
 -0.14500000000000002          2.2290021206572419E-007
 -0.14390000000000000          2.4369154516534763E-007
 -0.14280000000000001          2.6653071927285055E-007
 -0.14169999999999999          2.9186475103415432E-007
 -0.14060000000000000          3.1964387403604633E-007
 -0.13950000000000001          3.4953723115904722E-007
 -0.13840000000000002          3.8145424241520232E-007
 -0.13730000000000001          4.1582120502425823E-007
 -0.13619999999999999          4.5332654963203822E-007
 -0.13510000000000000          4.9440916427556658E-007
 -0.13400000000000001          5.3903124808130087E-007
 -0.13290000000000002          5.8697310123534407E-007
 -0.13180000000000000          6.3833329022600083E-007
 -0.13070000000000001          6.9370616984087974E-007
 -0.12959999999999999          7.5385162290331209E-007
 -0.12850000000000000          8.1920660477408092E-007
 -0.12740000000000001          8.8975212975128670E-007
 -0.12630000000000002          9.6537382887618151E-007
 -0.12520000000000001          1.0463353419254418E-006
 -0.12410000000000000          1.1333720522088697E-006
 -0.12300000000000001          1.2273154652575613E-006
 -0.12190000000000001          1.3286480680108070E-006
 -0.12080000000000000          1.4374576267073280E-006
 -0.11970000000000000          1.5538315665253322E-006
 -0.11860000000000001          1.6782734064690885E-006
 -0.11750000000000001          1.8117033278031158E-006
 -0.11640000000000000          1.9550479919416830E-006
 -0.11530000000000000          2.1088526409585029E-006
 -0.11420000000000001          2.2733195237378823E-006
 -0.11310000000000001          2.4487276277795900E-006
 -0.11200000000000000          2.6357922706665704E-006
 -0.11090000000000001          2.8355925678624772E-006
 -0.10980000000000001          3.0491557936329627E-006
 -0.10870000000000000          3.2771388305263827E-006
 -0.10760000000000000          3.5199357171222800E-006
 -0.10650000000000001          3.7780928323627450E-006
 -0.10540000000000001          4.0525878830521833E-006
 -0.10430000000000000          4.3446889321785420E-006
 -0.10320000000000000          4.6555451262975112E-006
 -0.10210000000000001          4.9859431783261243E-006
 -0.10100000000000001          5.3364801715360954E-006
  -9.9900000000000003E-002     5.7079619182331953E-006
  -9.8799999999999999E-002     6.1016089603072032E-006
  -9.7700000000000009E-002     6.5188569351448677E-006
  -9.6600000000000005E-002     6.9609723141184077E-006
  -9.5500000000000002E-002     7.4288873292971402E-006
  -9.4400000000000012E-002     7.9234232543967664E-006
  -9.3300000000000008E-002     8.4456587501335889E-006
  -9.2200000000000004E-002     8.9970544649986550E-006
  -9.1100000000000000E-002     9.5792102001723833E-006
  -9.0000000000000011E-002     1.0193516573053785E-005
  -8.8900000000000007E-002     1.0841066796274390E-005
  -8.7800000000000003E-002     1.1522904969751835E-005
  -8.6699999999999999E-002     1.2240356227266602E-005
  -8.5600000000000009E-002     1.2995073120691814E-005
  -8.4500000000000006E-002     1.3788770047540311E-005
  -8.3400000000000002E-002     1.4622917660744861E-005
  -8.2299999999999998E-002     1.5498722859774716E-005
  -8.1200000000000008E-002     1.6417398001067340E-005
  -8.0100000000000005E-002     1.7380449207848869E-005
  -7.9000000000000001E-002     1.8389660908724181E-005
  -7.7899999999999997E-002     1.9446819351287559E-005
  -7.6800000000000007E-002     2.0553441572701558E-005
  -7.5700000000000003E-002     2.1710811779485084E-005
  -7.4600000000000000E-002     2.2920261471881531E-005
  -7.3500000000000010E-002     2.4183400455513038E-005
  -7.2399999999999992E-002     2.5502053176751360E-005
  -7.1300000000000002E-002     2.6877967684413306E-005
  -7.0200000000000012E-002     2.8312608264968731E-005
  -6.9099999999999995E-002     2.9807239116053097E-005
  -6.8000000000000005E-002     3.1363200832856819E-005
  -6.6900000000000015E-002     3.2982068660203367E-005
  -6.5799999999999997E-002     3.4665557905100286E-005
  -6.4700000000000008E-002     3.6415265640243888E-005
  -6.3599999999999990E-002     3.8232512451941147E-005
  -6.2500000000000000E-002     4.0118451579473913E-005
  -6.1400000000000010E-002     4.2074301745742559E-005
  -6.0299999999999992E-002     4.4101496314397082E-005
  -5.9200000000000003E-002     4.6201526856748387E-005
  -5.8100000000000013E-002     4.8375699407188222E-005
  -5.6999999999999995E-002     5.0625054427655414E-005
  -5.5900000000000005E-002     5.2950472309021279E-005
  -5.4800000000000015E-002     5.5352913477690890E-005
  -5.3699999999999998E-002     5.7833454775391147E-005
  -5.2600000000000008E-002     6.0393173043848947E-005
  -5.1499999999999990E-002     6.3032945035956800E-005
  -5.0400000000000000E-002     6.5753389208111912E-005
  -4.9300000000000010E-002     6.8555003963410854E-005
  -4.8199999999999993E-002     7.1438342274632305E-005
  -4.7100000000000003E-002     7.4404015322215855E-005
  -4.6000000000000013E-002     7.7452583354897797E-005
  -4.4899999999999995E-002     8.0584344686940312E-005
  -4.3800000000000006E-002     8.3799379353877157E-005
  -4.2699999999999988E-002     8.7097636424005032E-005
  -4.1599999999999998E-002     9.0479094069451094E-005
  -4.0500000000000008E-002     9.3943774118088186E-005
  -3.9399999999999991E-002     9.7491538326721638E-005
  -3.8300000000000001E-002     1.0112201562151313E-004
  -3.7200000000000011E-002     1.0483460937393829E-004
  -3.6099999999999993E-002     1.0862865747185424E-004
  -3.5000000000000003E-002     1.1250349780311808E-004
  -3.3900000000000013E-002     1.1645841732388362E-004
  -3.2799999999999996E-002     1.2049255747115240E-004
  -3.1700000000000006E-002     1.2460481957532465E-004
  -3.0599999999999988E-002     1.2879393761977553E-004
  -2.9499999999999998E-002     1.3305855100043118E-004
  -2.8400000000000009E-002     1.3739729183726013E-004
  -2.7299999999999991E-002     1.4180867583490908E-004
  -2.6200000000000001E-002     1.4629105862695724E-004
  -2.5100000000000011E-002     1.5084257756825536E-004
  -2.3999999999999994E-002     1.5546126815024763E-004
  -2.2900000000000004E-002     1.6014515131246299E-004
  -2.1800000000000014E-002     1.6489210247527808E-004
  -2.0699999999999996E-002     1.6969993885140866E-004
  -1.9600000000000006E-002     1.7456627392675728E-004
  -1.8499999999999989E-002     1.7948863387573510E-004
  -1.7399999999999999E-002     1.8446448666509241E-004
  -1.6300000000000009E-002     1.8949121295008808E-004
  -1.5199999999999991E-002     1.9456607697065920E-004
  -1.4100000000000001E-002     1.9968622655142099E-004
  -1.3000000000000012E-002     2.0484872220549732E-004
  -1.1899999999999994E-002     2.1005055168643594E-004
  -1.0800000000000004E-002     2.1528864454012364E-004
  -9.6999999999999864E-003     2.2055987210478634E-004
  -8.5999999999999965E-003     2.2586107661481947E-004
  -7.5000000000000067E-003     2.3118896933738142E-004
  -6.3999999999999890E-003     2.3654026153963059E-004
  -5.2999999999999992E-003     2.4191156262531877E-004
  -4.2000000000000093E-003     2.4729955475777388E-004
  -3.0999999999999917E-003     2.5270078913308680E-004
  -2.0000000000000018E-003     2.5811186060309410E-004
  -9.0000000000001190E-004     2.6352924760431051E-004
   2.0000000000000573E-004     2.6894945767708123E-004
   1.2999999999999956E-003     2.7436902746558189E-004
   2.4000000000000132E-003     2.7978452271781862E-004
   3.5000000000000031E-003     2.8519242187030613E-004
   4.5999999999999930E-003     2.9058920335955918E-004
   5.7000000000000106E-003     2.9597146203741431E-004
   6.8000000000000005E-003     3.0133582185953856E-004
   7.8999999999999904E-003     3.0667893588542938E-004
   9.0000000000000080E-003     3.1199748627841473E-004
   1.0099999999999998E-002     3.1728815520182252E-004
   1.1199999999999988E-002     3.2254771213047206E-004
   1.2300000000000005E-002     3.2777292653918266E-004
   1.3399999999999995E-002     3.3296065521426499E-004
   1.4500000000000013E-002     3.3810792956501245E-004
   1.5600000000000003E-002     3.4321186831220984E-004
   1.6699999999999993E-002     3.4826953196898103E-004
   1.7800000000000010E-002     3.5327803925611079E-004
   1.8900000000000000E-002     3.5823468351736665E-004
   1.9999999999999990E-002     3.6313678720034659E-004
   2.1100000000000008E-002     3.6798199289478362E-004
   2.2199999999999998E-002     3.7276794319041073E-004
   2.3300000000000015E-002     3.7749225157313049E-004
   2.4400000000000005E-002     3.8215261884033680E-004
   2.5499999999999995E-002     3.8674697862006724E-004
   2.6600000000000013E-002     3.9127332274802029E-004
   2.7700000000000002E-002     3.9572990499436855E-004
   2.8799999999999992E-002     4.0011506644077599E-004
   2.9900000000000010E-002     4.0442706085741520E-004
   3.1000000000000000E-002     4.0866437484510243E-004
   3.2099999999999990E-002     4.1282546590082347E-004
   3.3200000000000007E-002     4.1690919897519052E-004
   3.4299999999999997E-002     4.2091458453796804E-004
   3.5400000000000015E-002     4.2484057485125959E-004
   3.6500000000000005E-002     4.2868618038482964E-004
   3.7599999999999995E-002     4.3245061533525586E-004
   3.8700000000000012E-002     4.3613321031443775E-004
   3.9800000000000002E-002     4.3973349966108799E-004
   4.0899999999999992E-002     4.4325101771391928E-004
   4.2000000000000010E-002     4.4668556074611843E-004
   4.3099999999999999E-002     4.5003686682321131E-004
   4.4200000000000017E-002     4.5330476132221520E-004
   4.5300000000000007E-002     4.5648924424313009E-004
   4.6399999999999997E-002     4.5959054841659963E-004
   4.7500000000000014E-002     4.6260899398475885E-004
   4.8600000000000004E-002     4.6554484288208187E-004
   4.9699999999999994E-002     4.6839850256219506E-004
   5.0800000000000012E-002     4.7117043868638575E-004
   5.1900000000000002E-002     4.7386126243509352E-004
   5.2999999999999992E-002     4.7647170140407979E-004
   5.4099999999999981E-002     4.7900259960442781E-004
   5.5200000000000027E-002     4.8145488835871220E-004
   5.6300000000000017E-002     4.8382935347035527E-004
   5.7400000000000007E-002     4.8612686805427074E-004
   5.8499999999999996E-002     4.8834842164069414E-004
   5.9599999999999986E-002     4.9049535300582647E-004
   6.0700000000000032E-002     4.9256888451054692E-004
   6.1800000000000022E-002     4.9457035493105650E-004
   6.2900000000000011E-002     4.9650081200525165E-004
   6.4000000000000001E-002     4.9836153630167246E-004
   6.5099999999999991E-002     5.0015386659651995E-004
   6.6199999999999981E-002     5.0187919987365603E-004
   6.7300000000000026E-002     5.0353922415524721E-004
   6.8400000000000016E-002     5.0513533642515540E-004
   6.9500000000000006E-002     5.0666893366724253E-004
   7.0599999999999996E-002     5.0814152928069234E-004
   7.1699999999999986E-002     5.0955434562638402E-004
   7.2800000000000031E-002     5.1090907072648406E-004
   7.3900000000000021E-002     5.1220750901848078E-004
   7.5000000000000011E-002     5.1345134852454066E-004
   7.6100000000000001E-002     5.1464186981320381E-004
   7.7199999999999991E-002     5.1578041166067123E-004
   7.8299999999999981E-002     5.1686866208910942E-004
   7.9400000000000026E-002     5.1790819270536304E-004
   8.0500000000000016E-002     5.1890080794692039E-004
   8.1600000000000006E-002     5.1984796300530434E-004
   8.2699999999999996E-002     5.2075088024139404E-004
   8.3799999999999986E-002     5.2161101484671235E-004
   8.4900000000000031E-002     5.2243005484342575E-004
   8.6000000000000021E-002     5.2320951363071799E-004
   8.7100000000000011E-002     5.2395090460777283E-004
   8.8200000000000001E-002     5.2465550834313035E-004
   8.9299999999999990E-002     5.2532460540533066E-004
   9.0399999999999980E-002     5.2595953457057476E-004
   9.1500000000000026E-002     5.2656186744570732E-004
   9.2600000000000016E-002     5.2713294280692935E-004
   9.3700000000000006E-002     5.2767398301512003E-004
   9.4799999999999995E-002     5.2818626863881946E-004
   9.5899999999999985E-002     5.2867078920826316E-004
   9.7000000000000031E-002     5.2912888349965215E-004
   9.8100000000000021E-002     5.2956159925088286E-004
   9.9200000000000010E-002     5.2997033344581723E-004
  0.10030000000000000          5.3035625023767352E-004
  0.10139999999999999          5.3072016453370452E-004
  0.10249999999999998          5.3106300765648484E-004
  0.10360000000000003          5.3138576913625002E-004
  0.10470000000000002          5.3168949671089649E-004
  0.10580000000000001          5.3197541274130344E-004
  0.10690000000000000          5.3224439034238458E-004
  0.10799999999999998          5.3249706979840994E-004
  0.10910000000000003          5.3273414960131049E-004
  0.11020000000000002          5.3295627003535628E-004
  0.11130000000000001          5.3316459525376558E-004
  0.11240000000000000          5.3336005657911301E-004
  0.11349999999999999          5.3354329429566860E-004
  0.11460000000000004          5.3371465764939785E-004
  0.11570000000000003          5.3387467050924897E-004
  0.11680000000000001          5.3402408957481384E-004
  0.11790000000000000          5.3416372975334525E-004
  0.11899999999999999          5.3429428953677416E-004
  0.12009999999999998          5.3441623458638787E-004
  0.12120000000000003          5.3452979773283005E-004
  0.12230000000000002          5.3463544463738799E-004
  0.12340000000000001          5.3473369916900992E-004
  0.12450000000000000          5.3482520161196589E-004
  0.12559999999999999          5.3491041762754321E-004
  0.12670000000000003          5.3498969646170735E-004
  0.12780000000000002          5.3506321273744106E-004
  0.12890000000000001          5.3513119928538799E-004
  0.13000000000000000          5.3519417997449636E-004
  0.13109999999999999          5.3525273688137531E-004
  0.13219999999999998          5.3530721925199032E-004
  0.13330000000000003          5.3535774350166321E-004
  0.13440000000000002          5.3540430963039398E-004
  0.13550000000000001          5.3544703405350447E-004
  0.13660000000000000          5.3548649884760380E-004
  0.13769999999999999          5.3552316967397928E-004
  0.13880000000000003          5.3555722115561366E-004
  0.13990000000000002          5.3558859508484602E-004
  0.14100000000000001          5.3561723325401545E-004
  0.14210000000000000          5.3564336849376559E-004
  0.14319999999999999          5.3566752467304468E-004
  0.14429999999999998          5.3569005103781819E-004
  0.14540000000000003          5.3571088938042521E-004
  0.14650000000000002          5.3572986507788301E-004
  0.14760000000000001          5.3574715275317430E-004
  0.14870000000000000          5.3576292702928185E-004
  0.14979999999999999          5.3577747894451022E-004
  0.15090000000000003          5.3579098312184215E-004
  0.15200000000000002          5.3580338135361671E-004
  0.15310000000000001          5.3581461543217301E-004
  0.15420000000000000          5.3582474356517196E-004
  0.15529999999999999          5.3583394037559628E-004
  0.15639999999999998          5.3584238048642874E-004
  0.15750000000000003          5.3585018031299114E-004
  0.15860000000000002          5.3585745627060533E-004
  0.15970000000000001          5.3586409194394946E-004
  0.16080000000000000          5.3586997091770172E-004
  0.16189999999999999          5.3587515139952302E-004
  0.16300000000000003          5.3587998263537884E-004
  0.16410000000000002          5.3588458104059100E-004
  0.16520000000000001          5.3588883019983768E-004
  0.16630000000000000          5.3589249728247523E-004
  0.16739999999999999          5.3589564049616456E-004
  0.16850000000000004          5.3589849267154932E-004
  0.16960000000000003          5.3590117022395134E-004
  0.17070000000000002          5.3590373136103153E-004
  0.17180000000000001          5.3590611787512898E-004
  0.17290000000000000          5.3590821335092187E-004
  0.17399999999999999          5.3590995958074927E-004
  0.17510000000000003          5.3591147297993302E-004
  0.17620000000000002          5.3591292817145586E-004
  0.17730000000000001          5.3591438336297870E-004
  0.17840000000000000          5.3591578034684062E-004
  0.17949999999999999          5.3591700270771980E-004
  0.18060000000000004          5.3591793403029442E-004
  0.18170000000000003          5.3591863252222538E-004
  0.18280000000000002          5.3591921459883451E-004
  0.18390000000000001          5.3591991309076548E-004
  0.18500000000000000          5.3592072799801826E-004
  0.18609999999999999          5.3592148469761014E-004
  0.18720000000000003          5.3592200856655836E-004
  0.18830000000000002          5.3592229960486293E-004
  0.18940000000000001          5.3592259064316750E-004
  0.19050000000000000          5.3592299809679389E-004
  0.19159999999999999          5.3592352196574211E-004
  0.19270000000000004          5.3592404583469033E-004
  0.19380000000000003          5.3592427866533399E-004
  0.19490000000000002          5.3592433687299490E-004
  0.19600000000000001          5.3592439508065581E-004
  0.19710000000000000          5.3592451149597764E-004
  0.19819999999999999          5.3592480253428221E-004
  0.19930000000000003          5.3592509357258677E-004
  0.20040000000000002          5.3592520998790860E-004
  0.20150000000000001          5.3592520998790860E-004
  0.20260000000000000          5.3592520998790860E-004
  0.20369999999999999          5.3592532640323043E-004
  0.20480000000000004          5.3592555923387408E-004
  0.20590000000000003          5.3592573385685682E-004
  0.20700000000000002          5.3592579206451774E-004
  0.20810000000000001          5.3592567564919591E-004
  0.20920000000000000          5.3592567564919591E-004
  0.21029999999999999          5.3592573385685682E-004
  0.21140000000000003          5.3592596668750048E-004
  0.21250000000000002          5.3592608310282230E-004
  0.21360000000000001          5.3592602489516139E-004
  0.21470000000000000          5.3592585027217865E-004
  0.21579999999999999          5.3592579206451774E-004
  0.21690000000000004          5.3592596668750048E-004
  0.21800000000000003          5.3592614131048322E-004
  0.21910000000000002          5.3592619951814413E-004
  0.22020000000000001          5.3592608310282230E-004
  0.22130000000000000          5.3592596668750048E-004
  0.22239999999999999          5.3592590847983956E-004
  0.22350000000000003          5.3592608310282230E-004
  0.22460000000000002          5.3592637414112687E-004
  0.22570000000000001          5.3592643234878778E-004
  0.22680000000000000          5.3592625772580504E-004
  0.22789999999999999          5.3592596668750048E-004
  0.22900000000000004          5.3592590847983956E-004
  0.23010000000000003          5.3592608310282230E-004
  0.23120000000000002          5.3592637414112687E-004
  0.23230000000000001          5.3592637414112687E-004
  0.23340000000000000          5.3592614131048322E-004
  0.23450000000000004          5.3592590847983956E-004
  0.23560000000000003          5.3592590847983956E-004
  0.23670000000000002          5.3592614131048322E-004
  0.23780000000000001          5.3592637414112687E-004
  0.23890000000000000          5.3592637414112687E-004
  0.23999999999999999          5.3592619951814413E-004
  0.24110000000000004          5.3592602489516139E-004
  0.24220000000000003          5.3592596668750048E-004
  0.24330000000000002          5.3592608310282230E-004
  0.24440000000000001          5.3592625772580504E-004
  0.24550000000000000          5.3592631593346596E-004
  0.24660000000000004          5.3592614131048322E-004
  0.24770000000000003          5.3592590847983956E-004
  0.24880000000000002          5.3592590847983956E-004
  0.24990000000000001          5.3592614131048322E-004
  0.25100000000000000          5.3592637414112687E-004
  0.25209999999999999          5.3592631593346596E-004
  0.25320000000000004          5.3592602489516139E-004
  0.25430000000000003          5.3592590847983956E-004
  0.25540000000000002          5.3592602489516139E-004
  0.25650000000000001          5.3592619951814413E-004
  0.25760000000000000          5.3592631593346596E-004
  0.25870000000000004          5.3592619951814413E-004
  0.25980000000000003          5.3592596668750048E-004
  0.26090000000000002          5.3592585027217865E-004
  0.26200000000000001          5.3592590847983956E-004
  0.26310000000000000          5.3592608310282230E-004
  0.26419999999999999          5.3592625772580504E-004
  0.26530000000000004          5.3592619951814413E-004
  0.26640000000000003          5.3592608310282230E-004
  0.26750000000000002          5.3592590847983956E-004
  0.26860000000000001          5.3592596668750048E-004
  0.26970000000000000          5.3592614131048322E-004
  0.27080000000000004          5.3592631593346596E-004
  0.27190000000000003          5.3592625772580504E-004
  0.27300000000000002          5.3592602489516139E-004
  0.27410000000000001          5.3592585027217865E-004
  0.27520000000000000          5.3592590847983956E-004
  0.27629999999999999          5.3592608310282230E-004
  0.27740000000000004          5.3592625772580504E-004
  0.27850000000000003          5.3592619951814413E-004
  0.27960000000000002          5.3592608310282230E-004
  0.28070000000000001          5.3592596668750048E-004
  0.28179999999999999          5.3592596668750048E-004
  0.28290000000000004          5.3592614131048322E-004
  0.28400000000000003          5.3592631593346596E-004
  0.28510000000000002          5.3592625772580504E-004
  0.28620000000000001          5.3592608310282230E-004
  0.28730000000000000          5.3592590847983956E-004
  0.28840000000000005          5.3592596668750048E-004
  0.28950000000000004          5.3592614131048322E-004
  0.29060000000000002          5.3592619951814413E-004
  0.29170000000000001          5.3592614131048322E-004
  0.29280000000000000          5.3592602489516139E-004
  0.29389999999999999          5.3592602489516139E-004
  0.29500000000000004          5.3592608310282230E-004
  0.29610000000000003          5.3592619951814413E-004
  0.29720000000000002          5.3592619951814413E-004
  0.29830000000000001          5.3592614131048322E-004
  0.29940000000000000          5.3592596668750048E-004
  0.30050000000000004          5.3592590847983956E-004
  0.30160000000000003          5.3592608310282230E-004
  0.30270000000000002          5.3592619951814413E-004
  0.30380000000000001          5.3592619951814413E-004
  0.30490000000000000          5.3592602489516139E-004
  0.30599999999999999          5.3592585027217865E-004
  0.30709999999999998          5.3592590847983956E-004
  0.30819999999999997          5.3592614131048322E-004
  0.30930000000000007          5.3592625772580504E-004
  0.31040000000000006          5.3592619951814413E-004
  0.31150000000000005          5.3592608310282230E-004
  0.31260000000000004          5.3592590847983956E-004
  0.31370000000000003          5.3592596668750048E-004
  0.31480000000000002          5.3592614131048322E-004
  0.31590000000000001          5.3592625772580504E-004
  0.31700000000000000          5.3592625772580504E-004
  0.31809999999999999          5.3592608310282230E-004
  0.31919999999999998          5.3592585027217865E-004
  0.32029999999999997          5.3592585027217865E-004
  0.32140000000000007          5.3592602489516139E-004
  0.32250000000000006          5.3592619951814413E-004
  0.32360000000000005          5.3592625772580504E-004
  0.32470000000000004          5.3592619951814413E-004
  0.32580000000000003          5.3592596668750048E-004
  0.32690000000000002          5.3592590847983956E-004
  0.32800000000000001          5.3592608310282230E-004
  0.32910000000000000          5.3592625772580504E-004
  0.33019999999999999          5.3592631593346596E-004
  0.33129999999999998          5.3592614131048322E-004
  0.33239999999999997          5.3592596668750048E-004
  0.33350000000000007          5.3592590847983956E-004
  0.33460000000000006          5.3592608310282230E-004
  0.33570000000000005          5.3592619951814413E-004
  0.33680000000000004          5.3592619951814413E-004
  0.33790000000000003          5.3592608310282230E-004
  0.33900000000000002          5.3592596668750048E-004
  0.34010000000000001          5.3592602489516139E-004
  0.34120000000000000          5.3592608310282230E-004
  0.34229999999999999          5.3592619951814413E-004
  0.34339999999999998          5.3592619951814413E-004
  0.34449999999999997          5.3592608310282230E-004
  0.34560000000000007          5.3592596668750048E-004
  0.34670000000000006          5.3592602489516139E-004
  0.34780000000000005          5.3592619951814413E-004
  0.34890000000000004          5.3592619951814413E-004
