 -0.20000000000000001          0.0000000000000000
 -0.19890000000000002          0.0000000000000000
 -0.19780000000000000          0.0000000000000000
 -0.19670000000000001          2.3711445251706209E-008
 -0.19560000000000002          8.0437125404841936E-008
 -0.19450000000000001          1.6211153308631765E-007
 -0.19340000000000002          3.5550374377635308E-007
 -0.19230000000000000          7.0663423912264989E-007
 -0.19120000000000001          6.0542754454218084E-007
 -0.19010000000000002         -1.2359357697278028E-006
 -0.18900000000000000         -4.6615678002126515E-006
 -0.18790000000000001         -5.1914071264036465E-006
 -0.18680000000000002          4.1475568650639616E-006
 -0.18570000000000000          2.2954200176172890E-005
 -0.18460000000000001          3.3486878237454221E-005
 -0.18350000000000000          7.8165221566450782E-006
 -0.18240000000000001         -6.1023994931019843E-005
 -0.18130000000000002         -1.2743807747028768E-004
 -0.18020000000000000         -1.0536010086070746E-004
 -0.17910000000000001          5.7459874369669706E-005
 -0.17800000000000002          2.9208289925009012E-004
 -0.17690000000000000          4.0411311783827841E-004
 -0.17580000000000001          2.0551776106003672E-004
 -0.17470000000000002         -2.9115914367139339E-004
 -0.17360000000000000         -7.9120456939563155E-004
 -0.17250000000000001         -8.7630376219749451E-004
 -0.17140000000000000         -3.3251426066271961E-004
 -0.17030000000000001          6.1083160107955337E-004
 -0.16920000000000002          1.3705744640901685E-003
 -0.16810000000000000          1.4105815207585692E-003
 -0.16700000000000001          6.4994738204404712E-004
 -0.16589999999999999         -4.6777687384746969E-004
 -0.16480000000000000         -1.3141429517418146E-003
 -0.16370000000000001         -1.5324418200179935E-003
 -0.16260000000000002         -1.2162120547145605E-003
 -0.16150000000000000         -6.8432401167228818E-004
 -0.16040000000000001         -1.1899603850906715E-004
 -0.15930000000000000          5.4421683307737112E-004
 -0.15820000000000001          1.3671919004991651E-003
 -0.15710000000000002          2.0992213394492865E-003
 -0.15600000000000000          2.2037425078451633E-003
 -0.15490000000000001          1.2797256931662560E-003
 -0.15379999999999999         -5.0832924898713827E-004
 -0.15270000000000000         -2.4453520309180021E-003
 -0.15160000000000001         -3.7528083194047213E-003
 -0.15050000000000002         -4.0677175857126713E-003
 -0.14940000000000001         -3.3963923342525959E-003
 -0.14830000000000002         -1.5640975907444954E-003
 -0.14720000000000000          2.2146999835968018E-003
 -0.14610000000000001          9.0039642527699471E-003
 -0.14500000000000002          1.9094873219728470E-002
 -0.14390000000000000          3.1059056520462036E-002
 -0.14280000000000001          4.1827045381069183E-002
 -0.14169999999999999          4.7955002635717392E-002
 -0.14060000000000000          4.7281261533498764E-002
 -0.13950000000000001          3.9883673191070557E-002
 -0.13840000000000002          2.7873940765857697E-002
 -0.13730000000000001          1.4476506039500237E-002
 -0.13619999999999999          3.1687957234680653E-003
 -0.13510000000000000         -2.8195208869874477E-003
 -0.13400000000000001         -9.9717266857624054E-004
 -0.13290000000000002          9.5483437180519104E-003
 -0.13180000000000000          2.7290033176541328E-002
 -0.13070000000000001          4.8290990293025970E-002
 -0.12959999999999999          6.7671500146389008E-002
 -0.12850000000000000          8.1869758665561676E-002
 -0.12740000000000001          9.0143203735351562E-002
 -0.12630000000000002          9.4171620905399323E-002
 -0.12520000000000001          9.6185363829135895E-002
 -0.12410000000000000          9.7349554300308228E-002
 -0.12300000000000001          9.7857281565666199E-002
 -0.12190000000000001          9.8450183868408203E-002
 -0.12080000000000000         0.10152748227119446
 -0.11970000000000000         0.11025469005107880
 -0.11860000000000001         0.12609001994132996
 -0.11750000000000001         0.14703387022018433
 -0.11640000000000000         0.16868260502815247
 -0.11530000000000000         0.18774437904357910
 -0.11420000000000001         0.20517975091934204
 -0.11310000000000001         0.22602449357509613
 -0.11200000000000000         0.25563880801200867
 -0.11090000000000001         0.29532730579376221
 -0.10980000000000001         0.34102317690849304
 -0.10870000000000000         0.38617956638336182
 -0.10760000000000000         0.42637154459953308
 -0.10650000000000001         0.46173432469367981
 -0.10540000000000001         0.49553102254867554
 -0.10430000000000000         0.53081476688385010
 -0.10320000000000000         0.56875550746917725
 -0.10210000000000001         0.61018419265747070
 -0.10100000000000001         0.65824359655380249
  -9.9900000000000003E-002    0.71853268146514893
  -9.8799999999999999E-002    0.79552131891250610
  -9.7700000000000009E-002    0.88815212249755859
  -9.6600000000000005E-002    0.98920029401779175
  -9.5500000000000002E-002     1.0900393724441528
  -9.4400000000000012E-002     1.1873776912689209
  -9.3300000000000008E-002     1.2861196994781494
  -9.2200000000000004E-002     1.3955460786819458
  -9.1100000000000000E-002     1.5219784975051880
  -9.0000000000000011E-002     1.6645044088363647
  -8.8900000000000007E-002     1.8175995349884033
  -8.7800000000000003E-002     1.9780204296112061
  -8.6699999999999999E-002     2.1491005420684814
  -8.5600000000000009E-002     2.3379948139190674
  -8.4500000000000006E-002     2.5483648777008057
  -8.3400000000000002E-002     2.7758479118347168
  -8.2299999999999998E-002     3.0114181041717529
  -8.1200000000000008E-002     3.2501921653747559
  -8.0100000000000005E-002     3.4975395202636719
  -7.9000000000000001E-002     3.7663741111755371
  -7.7899999999999997E-002     4.0676541328430176
  -7.6800000000000007E-002     4.4027943611145020
  -7.5700000000000003E-002     4.7651467323303223
  -7.4600000000000000E-002     5.1490588188171387
  -7.3500000000000010E-002     5.5575866699218750
  -7.2399999999999992E-002     6.0009479522705078
  -7.1300000000000002E-002     6.4868793487548828
  -7.0200000000000012E-002     7.0123372077941895
  -6.9099999999999995E-002     7.5652413368225098
  -6.8000000000000005E-002     8.1354970932006836
  -6.6900000000000015E-002     8.7252902984619141
  -6.5799999999999997E-002     9.3488779067993164
  -6.4700000000000008E-002     10.021840095520020
  -6.3599999999999990E-002     10.749954223632812
  -6.2500000000000000E-002     11.528103828430176
  -6.1400000000000010E-002     12.349924087524414
  -6.0299999999999992E-002     13.218144416809082
  -5.9200000000000003E-002     14.144951820373535
  -5.8100000000000013E-002     15.141630172729492
  -5.6999999999999995E-002     16.207815170288086
  -5.5900000000000005E-002     17.331647872924805
  -5.4800000000000015E-002     18.501625061035156
  -5.3699999999999998E-002     19.719257354736328
  -5.2600000000000008E-002     21.000335693359375
  -5.1499999999999990E-002     22.363351821899414
  -5.0400000000000000E-002     23.816129684448242
  -4.9300000000000010E-002     25.353332519531250
  -4.8199999999999993E-002     26.966747283935547
  -4.7100000000000003E-002     28.657646179199219
  -4.6000000000000013E-002     30.438503265380859
  -4.4899999999999995E-002     32.322151184082031
  -4.3800000000000006E-002     34.309612274169922
  -4.2699999999999988E-002     36.389331817626953
  -4.1599999999999998E-002     38.549613952636719
  -4.0500000000000008E-002     40.792469024658203
  -3.9399999999999991E-002     43.135143280029297
  -3.8300000000000001E-002     45.597549438476562
  -3.7200000000000011E-002     48.187442779541016
  -3.6099999999999993E-002     50.897891998291016
  -3.5000000000000003E-002     53.718940734863281
  -3.3900000000000013E-002     56.652023315429688
  -3.2799999999999996E-002     59.712150573730469
  -3.1700000000000006E-002     62.915550231933594
  -3.0599999999999988E-002     66.265037536621094
  -2.9499999999999998E-002     69.747619628906250
  -2.8400000000000009E-002     73.347824096679688
  -2.7299999999999991E-002     77.063606262207031
  -2.6200000000000001E-002     80.909866333007812
  -2.5100000000000011E-002     84.906471252441406
  -2.3999999999999994E-002     89.061744689941406
  -2.2900000000000004E-002     93.367729187011719
  -2.1800000000000014E-002     97.811088562011719
  -2.0699999999999996E-002     102.38896179199219
  -1.9600000000000006E-002     107.11369323730469
  -1.8499999999999989E-002     112.00189208984375
  -1.7399999999999999E-002     117.05944824218750
  -1.6300000000000009E-002     122.27520751953125
  -1.5199999999999991E-002     127.63152313232422
  -1.4100000000000001E-002     133.11978149414062
  -1.3000000000000012E-002     138.74795532226562
  -1.1899999999999994E-002     144.53187561035156
  -1.0800000000000004E-002     150.48098754882812
  -9.6999999999999864E-003     156.58982849121094
  -8.5999999999999965E-003     162.84442138671875
  -7.5000000000000067E-003     169.23480224609375
  -6.3999999999999890E-003     175.76249694824219
  -5.2999999999999992E-003     182.43688964843750
  -4.2000000000000093E-003     189.26325988769531
  -3.0999999999999917E-003     196.23587036132812
  -2.0000000000000018E-003     203.34057617187500
  -9.0000000000001190E-004     210.56436157226562
   2.0000000000000573E-004     217.90182495117188
   1.2999999999999956E-003     225.35577392578125
   2.4000000000000132E-003     232.92993164062500
   3.5000000000000031E-003     240.62251281738281
   4.5999999999999930E-003     248.42543029785156
   5.7000000000000106E-003     256.32882690429688
   6.8000000000000005E-003     264.32403564453125
   7.8999999999999904E-003     272.40692138671875
   9.0000000000000080E-003     280.57485961914062
   1.0099999999999998E-002     288.82431030273438
   1.1199999999999988E-002     297.14886474609375
   1.2300000000000005E-002     305.53799438476562
   1.3399999999999995E-002     313.97921752929688
   1.4500000000000013E-002     322.46011352539062
   1.5600000000000003E-002     330.97201538085938
   1.6699999999999993E-002     339.51052856445312
   1.7800000000000010E-002     348.07324218750000
   1.8900000000000000E-002     356.65637207031250
   1.9999999999999990E-002     365.25146484375000
   2.1100000000000008E-002     373.84414672851562
   2.2199999999999998E-002     382.42153930664062
   2.3300000000000015E-002     390.97463989257812
   2.4400000000000005E-002     399.49871826171875
   2.5499999999999995E-002     407.98785400390625
   2.6600000000000013E-002     416.43179321289062
   2.7700000000000002E-002     424.81533813476562
   2.8799999999999992E-002     433.12374877929688
   2.9900000000000010E-002     441.34896850585938
   3.1000000000000000E-002     449.48724365234375
   3.2099999999999990E-002     457.53823852539062
   3.3200000000000007E-002     465.49508666992188
   3.4299999999999997E-002     473.34759521484375
   3.5400000000000015E-002     481.08309936523438
   3.6500000000000005E-002     488.69088745117188
   3.7599999999999995E-002     496.16278076171875
   3.8700000000000012E-002     503.49255371093750
   3.9800000000000002E-002     510.67245483398438
   4.0899999999999992E-002     517.69183349609375
   4.2000000000000010E-002     524.54339599609375
   4.3099999999999999E-002     531.22161865234375
   4.4200000000000017E-002     537.72418212890625
   4.5300000000000007E-002     544.04504394531250
   4.6399999999999997E-002     550.17822265625000
   4.7500000000000014E-002     556.11596679687500
   4.8600000000000004E-002     561.85778808593750
   4.9699999999999994E-002     567.40423583984375
   5.0800000000000012E-002     572.75189208984375
   5.1900000000000002E-002     577.89569091796875
   5.2999999999999992E-002     582.82141113281250
   5.4099999999999981E-002     587.51904296875000
   5.5200000000000027E-002     591.99163818359375
   5.6300000000000017E-002     596.24603271484375
   5.7400000000000007E-002     600.29156494140625
   5.8499999999999996E-002     604.12426757812500
   5.9599999999999986E-002     607.73565673828125
   6.0700000000000032E-002     611.11547851562500
   6.1800000000000022E-002     614.26629638671875
   6.2900000000000011E-002     617.20019531250000
   6.4000000000000001E-002     619.92950439453125
   6.5099999999999991E-002     622.45623779296875
   6.6199999999999981E-002     624.77252197265625
   6.7300000000000026E-002     626.86370849609375
   6.8400000000000016E-002     628.73260498046875
   6.9500000000000006E-002     630.38989257812500
   7.0599999999999996E-002     631.85223388671875
   7.1699999999999986E-002     633.13134765625000
   7.2800000000000031E-002     634.22546386718750
   7.3900000000000021E-002     635.12780761718750
   7.5000000000000011E-002     635.83563232421875
   7.6100000000000001E-002     636.35833740234375
   7.7199999999999991E-002     636.71264648437500
   7.8299999999999981E-002     636.91217041015625
   7.9400000000000026E-002     636.96264648437500
   8.0500000000000016E-002     636.85974121093750
   8.1600000000000006E-002     636.60314941406250
   8.2699999999999996E-002     636.19610595703125
   8.3799999999999986E-002     635.64801025390625
   8.4900000000000031E-002     634.97564697265625
   8.6000000000000021E-002     634.18792724609375
   8.7100000000000011E-002     633.29345703125000
   8.8200000000000001E-002     632.29339599609375
   8.9299999999999990E-002     631.18548583984375
   9.0399999999999980E-002     629.97808837890625
   9.1500000000000026E-002     628.67999267578125
   9.2600000000000016E-002     627.30572509765625
   9.3700000000000006E-002     625.87103271484375
   9.4799999999999995E-002     624.37982177734375
   9.5899999999999985E-002     622.82971191406250
   9.7000000000000031E-002     621.21563720703125
   9.8100000000000021E-002     619.54455566406250
   9.9200000000000010E-002     617.82391357421875
  0.10030000000000000          616.07244873046875
  0.10139999999999999          614.30572509765625
  0.10249999999999998          612.52209472656250
  0.10360000000000003          610.71655273437500
  0.10470000000000002          608.88946533203125
  0.10580000000000001          607.04699707031250
  0.10690000000000000          605.20672607421875
  0.10799999999999998          603.38647460937500
  0.10910000000000003          601.58404541015625
  0.11020000000000002          599.79229736328125
  0.11130000000000001          598.00286865234375
  0.11240000000000000          596.22143554687500
  0.11349999999999999          594.45733642578125
  0.11460000000000004          592.73052978515625
  0.11570000000000003          591.04272460937500
  0.11680000000000001          589.38964843750000
  0.11790000000000000          587.76336669921875
  0.11899999999999999          586.16699218750000
  0.12009999999999998          584.60827636718750
  0.12120000000000003          583.09533691406250
  0.12230000000000002          581.63409423828125
  0.12340000000000001          580.21771240234375
  0.12450000000000000          578.84277343750000
  0.12559999999999999          577.50939941406250
  0.12670000000000003          576.22302246093750
  0.12780000000000002          574.98571777343750
  0.12890000000000001          573.79815673828125
  0.13000000000000000          572.65887451171875
  0.13109999999999999          571.56604003906250
  0.13219999999999998          570.52447509765625
  0.13330000000000003          569.53900146484375
  0.13440000000000002          568.60559082031250
  0.13550000000000001          567.72009277343750
  0.13660000000000000          566.87536621093750
  0.13769999999999999          566.07360839843750
  0.13880000000000003          565.32037353515625
  0.13990000000000002          564.61901855468750
  0.14100000000000001          563.96643066406250
  0.14210000000000000          563.35339355468750
  0.14319999999999999          562.77276611328125
  0.14429999999999998          562.22540283203125
  0.14540000000000003          561.72113037109375
  0.14650000000000002          561.26708984375000
  0.14760000000000001          560.86322021484375
  0.14870000000000000          560.49871826171875
  0.14979999999999999          560.16143798828125
  0.15090000000000003          559.84759521484375
  0.15200000000000002          559.56640625000000
  0.15310000000000001          559.31939697265625
  0.15420000000000000          559.10748291015625
  0.15529999999999999          558.92010498046875
  0.15639999999999998          558.75274658203125
  0.15750000000000003          558.60235595703125
  0.15860000000000002          558.47967529296875
  0.15970000000000001          558.38769531250000
  0.16080000000000000          558.32672119140625
  0.16189999999999999          558.29058837890625
  0.16300000000000003          558.26898193359375
  0.16410000000000002          558.25622558593750
  0.16520000000000001          558.25976562500000
  0.16630000000000000          558.27685546875000
  0.16739999999999999          558.30743408203125
  0.16850000000000004          558.35028076171875
  0.16960000000000003          558.40417480468750
  0.17070000000000002          558.46813964843750
  0.17180000000000001          558.54498291015625
  0.17290000000000000          558.63439941406250
  0.17399999999999999          558.73443603515625
  0.17510000000000003          558.83917236328125
  0.17620000000000002          558.94995117187500
  0.17730000000000001          559.06890869140625
  0.17840000000000000          559.19281005859375
  0.17949999999999999          559.32025146484375
  0.18060000000000004          559.44696044921875
  0.18170000000000003          559.56903076171875
  0.18280000000000002          559.69116210937500
  0.18390000000000001          559.81921386718750
  0.18500000000000000          559.95611572265625
  0.18609999999999999          560.09661865234375
  0.18720000000000003          560.23681640625000
  0.18830000000000002          560.37518310546875
  0.18940000000000001          560.51232910156250
  0.19050000000000000          560.65417480468750
  0.19159999999999999          560.79656982421875
  0.19270000000000004          560.93988037109375
  0.19380000000000003          561.07690429687500
  0.19490000000000002          561.20751953125000
  0.19600000000000001          561.33410644531250
  0.19710000000000000          561.46020507812500
  0.19819999999999999          561.58361816406250
  0.19930000000000003          561.70281982421875
  0.20040000000000002          561.81713867187500
  0.20150000000000001          561.93231201171875
  0.20260000000000000          562.05432128906250
  0.20369999999999999          562.18182373046875
  0.20480000000000004          562.30554199218750
  0.20590000000000003          562.42120361328125
  0.20700000000000002          562.52459716796875
  0.20810000000000001          562.62353515625000
  0.20920000000000000          562.72473144531250
  0.21029999999999999          562.83093261718750
  0.21140000000000003          562.93334960937500
  0.21250000000000002          563.02618408203125
  0.21360000000000001          563.10693359375000
  0.21470000000000000          563.18170166015625
  0.21579999999999999          563.26556396484375
  0.21690000000000004          563.35961914062500
  0.21800000000000003          563.45727539062500
  0.21910000000000002          563.54602050781250
  0.22020000000000001          563.62030029296875
  0.22130000000000000          563.68798828125000
  0.22239999999999999          563.75671386718750
  0.22350000000000003          563.83471679687500
  0.22460000000000002          563.91534423828125
  0.22570000000000001          563.98962402343750
  0.22680000000000000          564.05676269531250
  0.22789999999999999          564.11584472656250
  0.22900000000000004          564.17810058593750
  0.23010000000000003          564.24713134765625
  0.23120000000000002          564.32006835937500
  0.23230000000000001          564.39245605468750
  0.23340000000000000          564.45965576171875
  0.23450000000000004          564.52001953125000
  0.23560000000000003          564.57519531250000
  0.23670000000000002          564.62835693359375
  0.23780000000000001          564.68212890625000
  0.23890000000000000          564.73907470703125
  0.23999999999999999          564.80084228515625
  0.24110000000000004          564.86901855468750
  0.24220000000000003          564.93554687500000
  0.24330000000000002          564.99804687500000
  0.24440000000000001          565.05633544921875
  0.24550000000000000          565.11505126953125
  0.24660000000000004          565.18206787109375
  0.24770000000000003          565.25653076171875
  0.24880000000000002          565.33337402343750
  0.24990000000000001          565.40246582031250
  0.25100000000000000          565.46276855468750
  0.25209999999999999          565.52270507812500
  0.25320000000000004          565.59564208984375
  0.25430000000000003          565.68560791015625
  0.25540000000000002          565.78002929687500
  0.25650000000000001          565.86486816406250
  0.25760000000000000          565.93707275390625
  0.25870000000000004          566.00494384765625
  0.25980000000000003          566.08489990234375
  0.26090000000000002          566.18536376953125
  0.26200000000000001          566.29864501953125
  0.26310000000000000          566.40881347656250
  0.26419999999999999          566.50787353515625
  0.26530000000000004          566.60009765625000
  0.26640000000000003          566.70190429687500
  0.26750000000000002          566.81878662109375
  0.26860000000000001          566.95098876953125
  0.26970000000000000          567.08288574218750
  0.27080000000000004          567.20971679687500
  0.27190000000000003          567.33740234375000
  0.27300000000000002          567.47674560546875
  0.27410000000000001          567.63415527343750
  0.27520000000000000          567.80792236328125
  0.27629999999999999          567.98309326171875
  0.27740000000000004          568.15362548828125
  0.27850000000000003          568.32220458984375
  0.27960000000000002          568.49658203125000
  0.28070000000000001          568.68103027343750
  0.28179999999999999          568.87084960937500
  0.28290000000000004          569.06555175781250
  0.28400000000000003          569.26605224609375
  0.28510000000000002          569.48083496093750
  0.28620000000000001          569.71087646484375
  0.28730000000000000          569.95263671875000
  0.28840000000000005          570.20019531250000
  0.28950000000000004          570.44842529296875
  0.29060000000000002          570.70410156250000
  0.29170000000000001          570.97393798828125
  0.29280000000000000          571.25915527343750
  0.29389999999999999          571.55383300781250
  0.29500000000000004          571.84741210937500
  0.29610000000000003          572.14001464843750
  0.29720000000000002          572.44055175781250
  0.29830000000000001          572.75811767578125
  0.29940000000000000          573.09722900390625
  0.30050000000000004          573.45068359375000
  0.30160000000000003          573.80285644531250
  0.30270000000000002          574.15191650390625
  0.30380000000000001          574.50872802734375
  0.30490000000000000          574.88244628906250
  0.30599999999999999          575.27600097656250
  0.30709999999999998          575.68115234375000
  0.30819999999999997          576.08544921875000
  0.30930000000000007          576.48614501953125
  0.31040000000000006          576.89141845703125
  0.31150000000000005          577.31292724609375
  0.31260000000000004          577.75225830078125
  0.31370000000000003          578.20373535156250
  0.31480000000000002          578.65802001953125
  0.31590000000000001          579.11022949218750
  0.31700000000000000          579.56536865234375
  0.31809999999999999          580.03143310546875
  0.31919999999999998          580.51190185546875
  0.32029999999999997          581.00152587890625
  0.32140000000000007          581.49072265625000
  0.32250000000000006          581.97802734375000
  0.32360000000000005          582.46582031250000
  0.32470000000000004          582.95806884765625
  0.32580000000000003          583.46136474609375
  0.32690000000000002          583.96905517578125
  0.32800000000000001          584.48089599609375
  0.32910000000000000          584.99243164062500
  0.33019999999999999          585.50665283203125
  0.33129999999999998          586.02160644531250
  0.33239999999999997          586.53619384765625
  0.33350000000000007          587.04791259765625
  0.33460000000000006          587.55364990234375
  0.33570000000000005          588.05816650390625
  0.33680000000000004          588.55627441406250
  0.33790000000000003          589.05383300781250
  0.33900000000000002          589.54626464843750
  0.34010000000000001          590.03851318359375
  0.34120000000000000          590.52697753906250
  0.34229999999999999          591.01611328125000
  0.34339999999999998          591.50585937500000
  0.34449999999999997          591.98803710937500
  0.34560000000000007          592.45904541015625
  0.34670000000000006          592.91333007812500
  0.34780000000000005          593.35766601562500
  0.34890000000000004          593.79541015625000
