 -0.20000000000000001          0.0000000000000000
 -0.19890000000000002          0.0000000000000000
 -0.19780000000000000          0.0000000000000000
 -0.19670000000000001          0.0000000000000000
 -0.19560000000000002          0.0000000000000000
 -0.19450000000000001          0.0000000000000000
 -0.19340000000000002          0.0000000000000000
 -0.19230000000000000          0.0000000000000000
 -0.19120000000000001          0.0000000000000000
 -0.19010000000000002          0.0000000000000000
 -0.18900000000000000          0.0000000000000000
 -0.18790000000000001         -4.2939157301074128E-030
 -0.18680000000000002         -8.3617943913652638E-029
 -0.18570000000000000         -6.8268318368072825E-028
 -0.18460000000000001         -3.0211907037277073E-027
 -0.18350000000000000         -6.6035461635133345E-027
 -0.18240000000000001          4.4062261121287046E-027
 -0.18130000000000002          8.5711339725976663E-026
 -0.18020000000000000          3.0773624150043044E-025
 -0.17910000000000001          5.1771328975179959E-025
 -0.17800000000000002         -1.8799759616892338E-025
 -0.17690000000000000         -3.6227360277139340E-024
 -0.17580000000000001         -1.0329177454452022E-023
 -0.17470000000000002         -1.3345281418203261E-023
 -0.17360000000000000          7.8259892735536741E-024
 -0.17250000000000001          7.6830110743816245E-023
 -0.17140000000000000          1.7395062011590525E-022
 -0.17030000000000001          1.6801057323023793E-022
 -0.16920000000000002         -1.7757741128310247E-022
 -0.16810000000000000         -9.7485022432641180E-022
 -0.16700000000000001         -1.7470260524479516E-021
 -0.16589999999999999         -1.1442309037986121E-021
 -0.16480000000000000          2.3317013816487265E-021
 -0.16370000000000001          8.1337041217380007E-021
 -0.16260000000000002          1.1299909168520907E-020
 -0.16150000000000000          3.4319877095602838E-021
 -0.16040000000000001         -1.9754712848707202E-020
 -0.15930000000000000         -4.6878108921575896E-020
 -0.15820000000000001         -4.7211927997529327E-020
 -0.15710000000000002          1.0324719771870573E-020
 -0.15600000000000000          1.1609788797441744E-019
 -0.15490000000000001          1.8892621660012742E-019
 -0.15379999999999999          1.0792613192891486E-019
 -0.15270000000000000         -1.7235830591857312E-019
 -0.15160000000000001         -4.9409824433265148E-019
 -0.15050000000000002         -5.0891775369321011E-019
 -0.14940000000000001          5.9642339416230201E-020
 -0.14830000000000002          1.0190954068569150E-018
 -0.14720000000000000          1.5565261279636163E-018
 -0.14610000000000001          7.1231386659812178E-019
 -0.14500000000000002         -1.6128509238238833E-018
 -0.14390000000000000         -3.9171319887183387E-018
 -0.14280000000000001         -3.6667580657786444E-018
 -0.14169999999999999          6.1112806758938355E-019
 -0.14060000000000000          7.1095321652901799E-018
 -0.13950000000000001          1.0763505741111511E-017
 -0.13840000000000002          6.6907686714627594E-018
 -0.13730000000000001         -4.9439985506350363E-018
 -0.13619999999999999         -1.7161739507403054E-017
 -0.13510000000000000         -2.0615096142081287E-017
 -0.13400000000000001         -1.1722055869827760E-017
 -0.13290000000000002          3.2750717089176878E-018
 -0.13180000000000000          1.4363185663066699E-017
 -0.13070000000000001          1.9897735336373250E-017
 -0.12959999999999999          3.0747580535461821E-017
 -0.12850000000000000          5.5340166381198216E-017
 -0.12740000000000001          7.4429962980427646E-017
 -0.12630000000000002          3.5865198092817143E-017
 -0.12520000000000001         -1.0430840168522285E-016
 -0.12410000000000000         -3.0925149081452864E-016
 -0.12300000000000001         -4.2389282095352710E-016
 -0.12190000000000001         -2.4601113746979572E-016
 -0.12080000000000000          2.9516178595122300E-016
 -0.11970000000000000          9.7320761035201136E-016
 -0.11860000000000001          1.2905923379958554E-015
 -0.11750000000000001          7.7840676138423055E-016
 -0.11640000000000000         -5.7715575652310825E-016
 -0.11530000000000000         -2.1175480633013870E-015
 -0.11420000000000001         -2.7844272670700648E-015
 -0.11310000000000001         -1.8209188192388256E-015
 -0.11200000000000000          5.6272914430503221E-016
 -0.11090000000000001          3.1265004640275299E-015
 -0.10980000000000001          4.3253203820784077E-015
 -0.10870000000000000          3.3635275994818321E-015
 -0.10760000000000000          7.5791269334629435E-016
 -0.10650000000000001         -2.0930194714565602E-015
 -0.10540000000000001         -3.9974741622612626E-015
 -0.10430000000000000         -4.7336681896861278E-015
 -0.10320000000000000         -4.7327881224539306E-015
 -0.10210000000000001         -3.9819264489979363E-015
 -0.10100000000000001         -1.4160250002317716E-015
  -9.9900000000000003E-002     4.1178993774712482E-015
  -9.8799999999999999E-002     1.1732764960319456E-014
  -9.7700000000000009E-002     1.7229407394607314E-014
  -9.6600000000000005E-002     1.4739852201750732E-014
  -9.5500000000000002E-002     1.2016643605668761E-015
  -9.4400000000000012E-002    -1.9338700698321235E-014
  -9.3300000000000008E-002    -3.5670532689711584E-014
  -9.2200000000000004E-002    -3.5307026806331507E-014
  -9.1100000000000000E-002    -1.3368934458817330E-014
  -9.0000000000000011E-002     2.1817244462863511E-014
  -8.8900000000000007E-002     5.1500087695907290E-014
  -8.7800000000000003E-002     5.7160405694724886E-014
  -8.6699999999999999E-002     3.2457607971768040E-014
  -8.5600000000000009E-002    -1.1798814048447504E-014
  -8.4500000000000006E-002    -5.3404797131870879E-014
  -8.3400000000000002E-002    -7.1461106888708048E-014
  -8.2299999999999998E-002    -5.7497185994553196E-014
  -8.1200000000000008E-002    -1.8259770458899441E-014
  -8.0100000000000005E-002     2.9969553721293993E-014
  -7.9000000000000001E-002     6.9823724439029705E-014
  -7.7899999999999997E-002     8.8069064844639722E-014
  -7.6800000000000007E-002     7.6492923052531164E-014
  -7.5700000000000003E-002     3.2303796952942027E-014
  -7.4600000000000000E-002    -3.8269283981996402E-014
  -7.3500000000000010E-002    -1.1490691753136828E-013
  -7.2399999999999992E-002    -1.6368459051282341E-013
  -7.1300000000000002E-002    -1.4912928476742277E-013
  -7.0200000000000012E-002    -5.5508494935935238E-014
  -6.9099999999999995E-002     9.4790982788778289E-014
  -6.8000000000000005E-002     2.4067808293212756E-013
  -6.6900000000000015E-002     3.0605292605789813E-013
  -6.5799999999999997E-002     2.3899908744781651E-013
  -6.4700000000000008E-002     4.5584589163268074E-014
  -6.3599999999999990E-002    -2.0281202390247388E-013
  -6.2500000000000000E-002    -3.9676779656910854E-013
  -6.1400000000000010E-002    -4.3976375817787738E-013
  -6.0299999999999992E-002    -2.9773861327797579E-013
  -5.9200000000000003E-002    -2.1063200486624682E-014
  -5.8100000000000013E-002     2.7425904971546677E-013
  -5.6999999999999995E-002     4.5876822306334386E-013
  -5.5900000000000005E-002     4.5019001547463855E-013
  -5.4800000000000015E-002     2.5270397211417384E-013
  -5.3699999999999998E-002    -4.4239016340182416E-014
  -5.2600000000000008E-002    -3.0587549637237088E-013
  -5.1499999999999990E-002    -4.1035306663078641E-013
  -5.0400000000000000E-002    -2.9861567862540794E-013
  -4.9300000000000010E-002     1.9020635167946035E-015
  -4.8199999999999993E-002     3.8247489485450370E-013
  -4.7100000000000003E-002     6.8043758561647794E-013
  -4.6000000000000013E-002     7.2307394446968765E-013
  -4.4899999999999995E-002     3.8672342238255109E-013
  -4.3800000000000006E-002    -3.3535476370687156E-013
  -4.2699999999999988E-002    -1.2805704847212995E-012
  -4.1599999999999998E-002    -2.1201211359428429E-012
  -4.0500000000000008E-002    -2.4485869061507959E-012
  -3.9399999999999991E-002    -1.9473331367564350E-012
  -3.8300000000000001E-002    -5.5148247080083479E-013
  -3.7200000000000011E-002     1.4785455845767181E-012
  -3.6099999999999993E-002     3.6463523173102530E-012
  -3.5000000000000003E-002     5.4467350768527822E-012
  -3.3900000000000013E-002     6.6167947856965448E-012
  -3.2799999999999996E-002     7.2676985957143003E-012
  -3.1700000000000006E-002     7.8141590420521823E-012
  -3.0599999999999988E-002     8.7359928319097335E-012
  -2.9499999999999998E-002     1.0306222889000516E-011
  -2.8400000000000009E-002     1.2438732335806613E-011
  -2.7299999999999991E-002     1.4735568668045040E-011
  -2.6200000000000001E-002     1.6698914820367783E-011
  -2.5100000000000011E-002     1.7987300884869661E-011
  -2.3999999999999994E-002     1.8585888036937170E-011
  -2.2900000000000004E-002     1.8821205011176900E-011
  -2.1800000000000014E-002     1.9236461382132752E-011
  -2.0699999999999996E-002     2.0403682216008079E-011
  -1.9600000000000006E-002     2.2757590950606144E-011
  -1.8499999999999989E-002     2.6501145028445805E-011
  -1.7399999999999999E-002     3.1584377474525027E-011
  -1.6300000000000009E-002     3.7728941498782476E-011
  -1.5199999999999991E-002     4.4475752941641744E-011
  -1.4100000000000001E-002     5.1261401373681181E-011
  -1.3000000000000012E-002     5.7549316007099449E-011
  -1.1899999999999994E-002     6.3023281038354639E-011
  -1.0800000000000004E-002     6.7791106062031758E-011
  -9.6999999999999864E-003     7.2485357993645749E-011
  -8.5999999999999965E-003     7.8146669690859483E-011
  -7.5000000000000067E-003     8.5868402666111621E-011
  -6.3999999999999890E-003     9.6333635513090599E-011
  -5.2999999999999992E-003     1.0948695422507981E-010
  -4.2000000000000093E-003     1.2455599052163535E-010
  -3.0999999999999917E-003     1.4045674345819492E-010
  -2.0000000000000018E-003     1.5638253192395979E-010
  -9.0000000000001190E-004     1.7224677240079700E-010
   2.0000000000000573E-004     1.8872622908894243E-010
   1.2999999999999956E-003     2.0689527868711366E-010
   2.4000000000000132E-003     2.2769446050840969E-010
   3.5000000000000031E-003     2.5156624006150707E-010
   4.5999999999999930E-003     2.7846108752171972E-010
   5.7000000000000106E-003     3.0816177387649191E-010
   6.8000000000000005E-003     3.4066940934884826E-010
   7.8999999999999904E-003     3.7637259975298321E-010
   9.0000000000000080E-003     4.1588754662313931E-010
   1.0099999999999998E-002     4.5969045237015393E-010
   1.1199999999999988E-002     5.0781395755095105E-010
   1.2300000000000005E-002     5.5985321933960108E-010
   1.3399999999999995E-002     6.1533550477221866E-010
   1.4500000000000013E-002     6.7426492167399488E-010
   1.5600000000000003E-002     7.3750489049118073E-010
   1.6699999999999993E-002     8.0670853330744308E-010
   1.7800000000000010E-002     8.8375456952505260E-010
   1.8900000000000000E-002     9.6996444209906940E-010
   1.9999999999999990E-002     1.0655678561732884E-009
   2.1100000000000008E-002     1.1697963708812154E-009
   2.2199999999999998E-002     1.2816249173042138E-009
   2.3300000000000015E-002     1.4007601745191778E-009
   2.4400000000000005E-002     1.5282720644549386E-009
   2.5499999999999995E-002     1.6664487567652486E-009
   2.6600000000000013E-002     1.8179332483825306E-009
   2.7700000000000002E-002     1.9846611021279159E-009
   2.8799999999999992E-002     2.1672534877836824E-009
   2.9900000000000010E-002     2.3652280134456305E-009
   3.1000000000000000E-002     2.5778725820657655E-009
   3.2099999999999990E-002     2.8052382639032203E-009
   3.3200000000000007E-002     3.0486757562897537E-009
   3.4299999999999997E-002     3.3106601904364652E-009
   3.5400000000000015E-002     3.5940852516347377E-009
   3.6500000000000005E-002     3.9014778074886181E-009
   3.7599999999999995E-002     4.2345678075150772E-009
   3.8700000000000012E-002     4.5943866489039920E-009
   3.9800000000000002E-002     4.9817567848720046E-009
   4.0899999999999992E-002     5.3978332914539351E-009
   4.2000000000000010E-002     5.8443667683150125E-009
   4.3099999999999999E-002     6.3235647829174013E-009
   4.4200000000000017E-002     6.8377059569968424E-009
   4.5300000000000007E-002     7.3888388740783739E-009
   4.6399999999999997E-002     7.9788460283225504E-009
   4.7500000000000014E-002     8.6098799201295151E-009
   4.8600000000000004E-002     9.2848404520395889E-009
   4.9699999999999994E-002     1.0007479289697585E-008
   5.0800000000000012E-002     1.0781916692792493E-008
   5.1900000000000002E-002     1.1611831496338709E-008
   5.2999999999999992E-002     1.2499892676487434E-008
   5.4099999999999981E-002     1.3447890800932782E-008
   5.5200000000000027E-002     1.4457548047630553E-008
   5.6300000000000017E-002     1.5531472996599405E-008
   5.7400000000000007E-002     1.6673618929985423E-008
   5.8499999999999996E-002     1.7888972081436805E-008
   5.9599999999999986E-002     1.9182730071065635E-008
   6.0700000000000032E-002     2.0559605573566841E-008
   6.1800000000000022E-002     2.2023701973239440E-008
   6.2900000000000011E-002     2.3578882846209126E-008
   6.4000000000000001E-002     2.5229276445770665E-008
   6.5099999999999991E-002     2.6979469325283389E-008
   6.6199999999999981E-002     2.8834335807914613E-008
   6.7300000000000026E-002     3.0798727124192737E-008
   6.8400000000000016E-002     3.2877363054240050E-008
   6.9500000000000006E-002     3.5075057525091324E-008
   7.0599999999999996E-002     3.7397192897969944E-008
   7.1699999999999986E-002     3.9850082345083138E-008
   7.2800000000000031E-002     4.2440994718617731E-008
   7.3900000000000021E-002     4.5177607432833611E-008
   7.5000000000000011E-002     4.8066983282524234E-008
   7.6100000000000001E-002     5.1114579235900237E-008
   7.7199999999999991E-002     5.4323923137644670E-008
   7.8299999999999981E-002     5.7697523203614764E-008
   7.9400000000000026E-002     6.1238921489348286E-008
   8.0500000000000016E-002     6.4954853939980239E-008
   8.1600000000000006E-002     6.8856145674089930E-008
   8.2699999999999996E-002     7.2956197527673794E-008
   8.3799999999999986E-002     7.7267635845146287E-008
   8.4900000000000031E-002     8.1798930295917671E-008
   8.6000000000000021E-002     8.6553185951743217E-008
   8.7100000000000011E-002     9.1529940959844680E-008
   8.8200000000000001E-002     9.6729124265948485E-008
   8.9299999999999990E-002     1.0215482859621261E-007
   9.0399999999999980E-002     1.0781683101868111E-007
   9.1500000000000026E-002     1.1372928554465034E-007
   9.2600000000000016E-002     1.1990753989721270E-007
   9.3700000000000006E-002     1.2636478174954391E-007
   9.4799999999999995E-002     1.3311004920524283E-007
   9.5899999999999985E-002     1.4014791815952776E-007
   9.7000000000000031E-002     1.4747963916761364E-007
   9.8100000000000021E-002     1.5510552486830420E-007
   9.9200000000000010E-002     1.6302766425724258E-007
  0.10030000000000000          1.7125184115229786E-007
  0.10139999999999999          1.7978807420604426E-007
  0.10249999999999998          1.8864930950712733E-007
  0.10360000000000003          1.9784877736128692E-007
  0.10470000000000002          2.0739740591579903E-007
  0.10580000000000001          2.1730276955622685E-007
  0.10690000000000000          2.2756954365377169E-007
  0.10799999999999998          2.3820062722279545E-007
  0.10910000000000003          2.4919793872868468E-007
  0.11020000000000002          2.6056289925691090E-007
  0.11130000000000001          2.7229728516431351E-007
  0.11240000000000000          2.8440473442969960E-007
  0.11349999999999999          2.9689266511923051E-007
  0.11460000000000004          3.0977253118180670E-007
  0.11570000000000003          3.2305729291692842E-007
  0.11680000000000001          3.3675698318802461E-007
  0.11790000000000000          3.5087552419099666E-007
  0.11899999999999999          3.6541044323712413E-007
  0.12009999999999998          3.8035608440623037E-007
  0.12120000000000003          3.9570809917677252E-007
  0.12230000000000002          4.1146611806652800E-007
  0.12340000000000001          4.2763392116285104E-007
  0.12450000000000000          4.4421761913326918E-007
  0.12559999999999999          4.6122409003146458E-007
  0.12670000000000003          4.7865984242889681E-007
  0.12780000000000002          4.9652999223326333E-007
  0.12890000000000001          5.1483607421687339E-007
  0.13000000000000000          5.3357496199168963E-007
  0.13109999999999999          5.5273852694881498E-007
  0.13219999999999998          5.7231710570704308E-007
  0.13330000000000003          5.9230262650089571E-007
  0.13440000000000002          6.1269184925549780E-007
  0.13550000000000001          6.3348636558657745E-007
  0.13660000000000000          6.5468998400319833E-007
  0.13769999999999999          6.7630503508553375E-007
  0.13880000000000003          6.9833095039939508E-007
  0.13990000000000002          7.2076431933965068E-007
  0.14100000000000001          7.4359928703415790E-007
  0.14210000000000000          7.6682704275299329E-007
  0.14319999999999999          7.9043559253477724E-007
  0.14429999999999998          8.1441089605505113E-007
  0.14540000000000003          8.3874033407482784E-007
  0.14650000000000002          8.6341657379307435E-007
  0.14760000000000001          8.8843830781115685E-007
  0.14870000000000000          9.1380741196189774E-007
  0.14979999999999999          9.3952291990717640E-007
  0.15090000000000003          9.6557721462886548E-007
  0.15200000000000002          9.9195597158541204E-007
  0.15310000000000001          1.0186430472458596E-006
  0.15420000000000000          1.0456236623213044E-006
  0.15529999999999999          1.0728861070674611E-006
  0.15639999999999998          1.1004185580532067E-006
  0.15750000000000003          1.1282088507869048E-006
  0.15860000000000002          1.1562442523427308E-006
  0.15970000000000001          1.1845149856526405E-006
  0.16080000000000000          1.2130147979405592E-006
  0.16189999999999999          1.2417381185514387E-006
  0.16300000000000003          1.2706760799119365E-006
  0.16410000000000002          1.2998127658647718E-006
  0.16520000000000001          1.3291281675265054E-006
  0.16630000000000000          1.3586029581347248E-006
  0.16739999999999999          1.3882219036531751E-006
  0.16850000000000004          1.4179724985297071E-006
  0.16960000000000003          1.4478424645858468E-006
  0.17070000000000002          1.4778177046537166E-006
  0.17180000000000001          1.5078838941917638E-006
  0.17290000000000000          1.5380294371425407E-006
  0.17399999999999999          1.5682452385590295E-006
  0.17510000000000003          1.5985214076863485E-006
  0.17620000000000002          1.6288422557408921E-006
  0.17730000000000001          1.6591865232840064E-006
  0.17840000000000000          1.6895310182007961E-006
  0.17949999999999999          1.7198567547893617E-006
  0.18060000000000004          1.7501504316896899E-006
  0.18170000000000003          1.7804020444600610E-006
  0.18280000000000002          1.8105999970430275E-006
  0.18390000000000001          1.8407291690891725E-006
  0.18500000000000000          1.8707736444412149E-006
  0.18609999999999999          1.9007192122444394E-006
  0.18720000000000003          1.9305543901282363E-006
  0.18830000000000002          1.9602657630457543E-006
  0.18940000000000001          1.9898352547897957E-006
  0.19050000000000000          2.0192412648611935E-006
  0.19159999999999999          2.0484612832660787E-006
  0.19270000000000004          2.0774766653630650E-006
  0.19380000000000003          2.1062753603473539E-006
  0.19490000000000002          2.1348475911509013E-006
  0.19600000000000001          2.1631822164636105E-006
  0.19710000000000000          2.1912646843702532E-006
  0.19819999999999999          2.2190788513398729E-006
  0.19930000000000003          2.2466092559625395E-006
  0.20040000000000002          2.2738413463230245E-006
  0.20150000000000001          2.3007605705060996E-006
  0.20260000000000000          2.3273487386177294E-006
  0.20369999999999999          2.3535849322797731E-006
  0.20480000000000004          2.3794498247298179E-006
  0.20590000000000003          2.4049268176895566E-006
  0.20700000000000002          2.4300036329805152E-006
  0.20810000000000001          2.4546702661609743E-006
  0.20920000000000000          2.4789158032945124E-006
  0.21029999999999999          2.5027266019606031E-006
  0.21140000000000003          2.5260885649913689E-006
  0.21250000000000002          2.5489875952189323E-006
  0.21360000000000001          2.5714086859807139E-006
  0.21470000000000000          2.5933352389984066E-006
  0.21579999999999999          2.6147479275095975E-006
  0.21690000000000004          2.6356256057624705E-006
  0.21800000000000003          2.6559512207313674E-006
  0.21910000000000002          2.6757136311061913E-006
  0.22020000000000001          2.6949066977977054E-006
  0.22130000000000000          2.7135249638376990E-006
  0.22239999999999999          2.7315597890265053E-006
  0.22350000000000003          2.7489970761962468E-006
  0.22460000000000002          2.7658209091896424E-006
  0.22570000000000001          2.7820176455861656E-006
  0.22680000000000000          2.7975743250863161E-006
  0.22789999999999999          2.8124779873905936E-006
  0.22900000000000004          2.8267140805837698E-006
  0.23010000000000003          2.8402680527506163E-006
  0.23120000000000002          2.8531285352073610E-006
  0.23230000000000001          2.8652896162384422E-006
  0.23340000000000000          2.8767494768544566E-006
  0.23450000000000004          2.8875076623080531E-006
  0.23560000000000003          2.8975618988624774E-006
  0.23670000000000002          2.9069042284390889E-006
  0.23780000000000001          2.9155244192224927E-006
  0.23890000000000000          2.9234095109131886E-006
  0.23999999999999999          2.9305488169484306E-006
  0.24110000000000004          2.9369343792495783E-006
  0.24220000000000003          2.9425623324641492E-006
  0.24330000000000002          2.9474326765921433E-006
  0.24440000000000001          2.9515488222386921E-006
  0.24550000000000000          2.9549144073826028E-006
  0.24660000000000004          2.9575321605079807E-006
  0.24770000000000003          2.9594036732305540E-006
  0.24880000000000002          2.9605298550450243E-006
  0.24990000000000001          2.9609111606987426E-006
  0.25100000000000000          2.9605484996864107E-006
  0.25209999999999999          2.9594423267553793E-006
  0.25320000000000004          2.9575940061477013E-006
  0.25430000000000003          2.9550076305895345E-006
  0.25540000000000002          2.9516902486648178E-006
  0.25650000000000001          2.9476532290573232E-006
  0.25760000000000000          2.9429086225718493E-006
  0.25870000000000004          2.9374680252658436E-006
  0.25980000000000003          2.9313421237020520E-006
  0.26090000000000002          2.9245429686852731E-006
  0.26200000000000001          2.9170848847570596E-006
  0.26310000000000000          2.9089812869642628E-006
  0.26419999999999999          2.9002446808590321E-006
  0.26530000000000004          2.8908837066410342E-006
  0.26640000000000003          2.8809079140046379E-006
  0.26750000000000002          2.8703314001177205E-006
  0.26860000000000001          2.8591750833584229E-006
  0.26970000000000000          2.8474628379626665E-006
  0.27080000000000004          2.8352189929137239E-006
  0.27190000000000003          2.8224631023476832E-006
  0.27300000000000002          2.8092133561585797E-006
  0.27410000000000001          2.7954883989877999E-006
  0.27520000000000000          2.7813100587081863E-006
  0.27629999999999999          2.7667017548083095E-006
  0.27740000000000004          2.7516841782926349E-006
  0.27850000000000003          2.7362737000657944E-006
  0.27960000000000002          2.7204871457797708E-006
  0.28070000000000001          2.7043463433074066E-006
  0.28179999999999999          2.6878792596107814E-006
  0.28290000000000004          2.6711177270044573E-006
  0.28400000000000003          2.6540901671978645E-006
  0.28510000000000002          2.6368188628111966E-006
  0.28620000000000001          2.6193245048489189E-006
  0.28730000000000000          2.6016296033049002E-006
  0.28840000000000005          2.5837589419097640E-006
  0.28950000000000004          2.5657398055045633E-006
  0.29060000000000002          2.5475942493358161E-006
  0.29170000000000001          2.5293416001659352E-006
  0.29280000000000000          2.5110009573836578E-006
  0.29389999999999999          2.4925966499722563E-006
  0.29500000000000004          2.4741573270148365E-006
  0.29610000000000003          2.4557102733524516E-006
  0.29720000000000002          2.4372777716052951E-006
  0.29830000000000001          2.4188768747990252E-006
  0.29940000000000000          2.4005269096960546E-006
  0.30050000000000004          2.3822528874006821E-006
  0.30160000000000003          2.3640827748749871E-006
  0.30270000000000002          2.3460386273654876E-006
  0.30380000000000001          2.3281322683033068E-006
  0.30490000000000000          2.3103682451619534E-006
  0.30599999999999999          2.2927554255147697E-006
  0.30709999999999998          2.2753135908715194E-006
  0.30819999999999997          2.2580725271836855E-006
  0.30930000000000007          2.2410602014133474E-006
  0.31040000000000006          2.2242945760808652E-006
  0.31150000000000005          2.2077829271438532E-006
  0.31260000000000004          2.1915304841968464E-006
  0.31370000000000003          2.1755477064289153E-006
  0.31480000000000002          2.1598496005026391E-006
  0.31590000000000001          2.1444498088385444E-006
  0.31700000000000000          2.1293542431521928E-006
  0.31809999999999999          2.1145633581909351E-006
  0.31919999999999998          2.1000798824388767E-006
  0.32029999999999997          2.0859142750850879E-006
  0.32140000000000007          2.0720831344078761E-006
  0.32250000000000006          2.0585996480804170E-006
  0.32360000000000005          2.0454701825656230E-006
  0.32470000000000004          2.0326961021055467E-006
  0.32580000000000003          2.0202774067001883E-006
  0.32690000000000002          2.0082147784705739E-006
  0.32800000000000001          1.9965084447903791E-006
  0.32910000000000000          1.9851549950544722E-006
  0.33019999999999999          1.9741482901736163E-006
  0.33129999999999998          1.9634837826743023E-006
  0.33239999999999997          1.9531630641722586E-006
  0.33350000000000007          1.9431950022408273E-006
  0.33460000000000006          1.9335871002112981E-006
  0.33570000000000005          1.9243400402046973E-006
  0.33680000000000004          1.9154435904056299E-006
  0.33790000000000003          1.9068851315751090E-006
  0.33900000000000002          1.8986560235134675E-006
  0.34010000000000001          1.8907543335444643E-006
  0.34120000000000000          1.8831788111128844E-006
  0.34229999999999999          1.8759225213216268E-006
  0.34339999999999998          1.8689726175580290E-006
  0.34449999999999997          1.8623177311383188E-006
  0.34560000000000007          1.8559533145889873E-006
  0.34670000000000006          1.8498808458389249E-006
  0.34780000000000005          1.8440995290802675E-006
  0.34890000000000004          1.8386010651738616E-006
