 -0.20000000000000001          0.0000000000000000
 -0.19890000000000002          0.0000000000000000
 -0.19780000000000000          0.0000000000000000
 -0.19670000000000001          0.0000000000000000
 -0.19560000000000002          0.0000000000000000
 -0.19450000000000001          1.1405329258233277E-021
 -0.19340000000000002          1.3951924529374072E-020
 -0.19230000000000000          7.1938269361905853E-020
 -0.19120000000000001          2.0280223599918981E-019
 -0.19010000000000002          2.9987434949942820E-019
 -0.18900000000000000          2.9119898263254861E-020
 -0.18790000000000001         -8.3173010592206933E-019
 -0.18680000000000002         -1.5736955023480732E-018
 -0.18570000000000000         -4.3903738044836547E-019
 -0.18460000000000001          3.1477233245072396E-018
 -0.18350000000000000          5.2268827395995960E-018
 -0.18240000000000001         -1.1017218578593776E-018
 -0.18130000000000002         -1.4473185795285226E-017
 -0.18020000000000000         -1.4184473291724617E-017
 -0.17910000000000001          2.5283301509552875E-017
 -0.17800000000000002          8.3559012770693578E-017
 -0.17690000000000000          5.7351992053657837E-017
 -0.17580000000000001         -1.6260864712333188E-016
 -0.17470000000000002         -4.7416973208722697E-016
 -0.17360000000000000         -4.1189774915944253E-016
 -0.17250000000000001          5.5542385571187829E-016
 -0.17140000000000000          2.1646761294536691E-015
 -0.17030000000000001          2.6486728730971444E-015
 -0.16920000000000002         -4.3434899270112820E-016
 -0.16810000000000000         -7.2102366733954072E-015
 -0.16700000000000001         -1.2370297860597561E-014
 -0.16589999999999999         -6.4793882709006639E-015
 -0.16480000000000000          1.5288790537943721E-014
 -0.16370000000000001          4.1498410746155026E-014
 -0.16260000000000002          4.2945647851701935E-014
 -0.16150000000000000         -6.9538033778447986E-015
 -0.16040000000000001         -9.6343065632536334E-014
 -0.15930000000000000         -1.5549477124735672E-013
 -0.15820000000000001         -9.1179349498166778E-014
 -0.15710000000000002          1.2428111925005814E-013
 -0.15600000000000000          3.7286078630009711E-013
 -0.15490000000000001          4.1730540464163246E-013
 -0.15379999999999999          7.5356530097967639E-014
 -0.15270000000000000         -5.5589311365872307E-013
 -0.15160000000000001         -1.0352602022173363E-012
 -0.15050000000000002         -8.2781427112460504E-013
 -0.14940000000000001          2.2340824665494780E-013
 -0.14830000000000002          1.5709263317259525E-012
 -0.14720000000000000          2.1670261071693453E-012
 -0.14610000000000001          1.2186126673724429E-012
 -0.14500000000000002         -1.0176061382427548E-012
 -0.14390000000000000         -3.1287813052199853E-012
 -0.14280000000000001         -3.4363764004480268E-012
 -0.14169999999999999         -1.3425099790534412E-012
 -0.14060000000000000          1.9736660222813285E-012
 -0.13950000000000001          4.2636892280678573E-012
 -0.13840000000000002          3.9234444686175873E-012
 -0.13730000000000001          1.3097375831452873E-012
 -0.13619999999999999         -1.5779570575538693E-012
 -0.13510000000000000         -2.8852289481184901E-012
 -0.13400000000000001         -2.5322727855575655E-012
 -0.13290000000000002         -2.0213678821046077E-012
 -0.13180000000000000         -2.4591348922464729E-012
 -0.13070000000000001         -2.8131308046908110E-012
 -0.12959999999999999         -6.0346503185162992E-013
 -0.12850000000000000          5.0292396115703131E-012
 -0.12740000000000001          1.0792827569161556E-011
 -0.12630000000000002          1.0623585344760045E-011
 -0.12520000000000001          1.1700846454937297E-012
 -0.12410000000000000         -1.2967031962074493E-011
 -0.12300000000000001         -2.0093935196308088E-011
 -0.12190000000000001         -1.0141284513542903E-011
 -0.12080000000000000          1.4354060474952579E-011
 -0.11970000000000000          3.4978273749652899E-011
 -0.11860000000000001          2.8134050644723629E-011
 -0.11750000000000001         -1.4821706362244669E-011
 -0.11640000000000000         -7.2635994441405671E-011
 -0.11530000000000000         -9.9494988636816828E-011
 -0.11420000000000001         -5.3551260648099230E-011
 -0.11310000000000001          6.6488106686968251E-011
 -0.11200000000000000          2.0298615566183287E-010
 -0.11090000000000001          2.5959820404430900E-010
 -0.10980000000000001          1.5788774454517096E-010
 -0.10870000000000000         -9.8948592375247557E-011
 -0.10760000000000000         -3.9831143938684477E-010
 -0.10650000000000001         -5.5722082503706361E-010
 -0.10540000000000001         -4.2225706264886753E-010
 -0.10430000000000000          1.8635789092447119E-011
 -0.10320000000000000          5.8406501857177773E-010
 -0.10210000000000001          9.5918784026594039E-010
 -0.10100000000000001          8.6011991973222734E-010
  -9.9900000000000003E-002     2.2333603022506310E-010
  -9.8799999999999999E-002    -6.9708927519229746E-010
  -9.7700000000000009E-002    -1.4103088696870714E-009
  -9.6600000000000005E-002    -1.4371491774411993E-009
  -9.5500000000000002E-002    -6.0452148842315978E-010
  -9.4400000000000012E-002     7.8979822681901624E-010
  -9.3300000000000008E-002     2.0667816347241796E-009
  -9.2200000000000004E-002     2.4947799381891400E-009
  -9.1100000000000000E-002     1.6909562639000342E-009
  -9.0000000000000011E-002    -1.3532912290781240E-010
  -8.8900000000000007E-002    -2.2548898304108889E-009
  -8.7800000000000003E-002    -3.7870284685936895E-009
  -8.6699999999999999E-002    -4.1656971205839000E-009
  -8.5600000000000009E-002    -3.4375364776906281E-009
  -8.4500000000000006E-002    -2.2159478696437418E-009
  -8.3400000000000002E-002    -1.3146175259493020E-009
  -8.2299999999999998E-002    -1.2743830435368864E-009
  -8.1200000000000008E-002    -2.0630785968478449E-009
  -8.0100000000000005E-002    -3.1262106237051057E-009
  -7.9000000000000001E-002    -3.7549630071964657E-009
  -7.7899999999999997E-002    -3.5436233947194751E-009
  -7.6800000000000007E-002    -2.6513351514267924E-009
  -7.5700000000000003E-002    -1.7029978538474211E-009
  -7.4600000000000000E-002    -1.3918394214940122E-009
  -7.3500000000000010E-002    -2.0401960121319007E-009
  -7.2399999999999992E-002    -3.4077327626391707E-009
  -7.1300000000000002E-002    -4.8780601780151756E-009
  -7.0200000000000012E-002    -5.9012084108189811E-009
  -6.9099999999999995E-002    -6.3874208144909517E-009
  -6.8000000000000005E-002    -6.7667911274327253E-009
  -6.6900000000000015E-002    -7.6501178725152386E-009
  -6.5799999999999997E-002    -9.3100505083043572E-009
  -6.4700000000000008E-002    -1.1354748252756508E-008
  -6.3599999999999990E-002    -1.2870585486268737E-008
  -6.2500000000000000E-002    -1.3009062271862604E-008
  -6.1400000000000010E-002    -1.1673031430348146E-008
  -6.0299999999999992E-002    -9.8341752519104375E-009
  -5.9200000000000003E-002    -9.1907903509991229E-009
  -5.8100000000000013E-002    -1.1268377342332769E-008
  -5.6999999999999995E-002    -1.6444316131014602E-008
  -5.5900000000000005E-002    -2.3498566648072483E-008
  -5.4800000000000015E-002    -3.0050141930360041E-008
  -5.3699999999999998E-002    -3.3744292693427269E-008
  -5.2600000000000008E-002    -3.3585347836151414E-008
  -5.1499999999999990E-002    -3.0654462079837685E-008
  -5.0400000000000000E-002    -2.7735278962381926E-008
  -4.9300000000000010E-002    -2.7963064752611899E-008
  -4.8199999999999993E-002    -3.3183347625254100E-008
  -4.7100000000000003E-002    -4.2914134468219345E-008
  -4.6000000000000013E-002    -5.4508731750502193E-008
  -4.4899999999999995E-002    -6.4468991922694840E-008
  -4.3800000000000006E-002    -7.0227329729277699E-008
  -4.2699999999999988E-002    -7.1461101924796822E-008
  -4.1599999999999998E-002    -7.0262458962133678E-008
  -4.0500000000000008E-002    -7.0102963434237608E-008
  -3.9399999999999991E-002    -7.4155451557089691E-008
  -3.8300000000000001E-002    -8.3835217878913681E-008
  -3.7200000000000011E-002    -9.8265026338140160E-008
  -3.6099999999999993E-002    -1.1486547890626753E-007
  -3.5000000000000003E-002    -1.3070132354187081E-007
  -3.3900000000000013E-002    -1.4386425561951910E-007
  -3.2799999999999996E-002    -1.5420864940551837E-007
  -3.1700000000000006E-002    -1.6314466222411284E-007
  -3.0599999999999988E-002    -1.7271720764711063E-007
  -2.9499999999999998E-002    -1.8456495354257640E-007
  -2.8400000000000009E-002    -1.9935347950195137E-007
  -2.7299999999999991E-002    -2.1691323581762845E-007
  -2.6200000000000001E-002    -2.3682989080953121E-007
  -2.5100000000000011E-002    -2.5895889166349662E-007
  -2.3999999999999994E-002    -2.8346158842396108E-007
  -2.2900000000000004E-002    -3.1038638326208456E-007
  -2.1800000000000014E-002    -3.3921355679922272E-007
  -2.0699999999999996E-002    -3.6884000564896269E-007
  -1.9600000000000006E-002    -3.9814136698623770E-007
  -1.8499999999999989E-002    -4.2678053091549373E-007
  -1.7399999999999999E-002    -4.5569782969323569E-007
  -1.6300000000000009E-002    -4.8690532139517018E-007
  -1.5199999999999991E-002    -5.2266204875195399E-007
  -1.4100000000000001E-002    -5.6449317753504147E-007
  -1.3000000000000012E-002    -6.1258725736479391E-007
  -1.1899999999999994E-002    -6.6583498892214266E-007
  -1.0800000000000004E-002    -7.2240834469994297E-007
  -9.6999999999999864E-003    -7.8055091989881475E-007
  -8.5999999999999965E-003    -8.3923765714644105E-007
  -7.5000000000000067E-003    -8.9850266249413835E-007
  -6.3999999999999890E-003    -9.5939174116210779E-007
  -5.2999999999999992E-003    -1.0236044545308687E-006
  -4.2000000000000093E-003    -1.0929715017482522E-006
  -3.0999999999999917E-003    -1.1689585335261654E-006
  -2.0000000000000018E-003    -1.2523535133368568E-006
  -9.0000000000001190E-004    -1.3432036212179810E-006
   2.0000000000000573E-004    -1.4409590676223161E-006
   1.2999999999999956E-003    -1.5447112673427910E-006
   2.4000000000000132E-003    -1.6534405631318805E-006
   3.5000000000000031E-003    -1.7662800928519573E-006
   4.5999999999999930E-003    -1.8828128531822586E-006
   5.7000000000000106E-003    -2.0033469354530098E-006
   6.8000000000000005E-003    -2.1290181848598877E-006
   7.8999999999999904E-003    -2.2615922716795467E-006
   9.0000000000000080E-003    -2.4029750420595519E-006
   1.0099999999999998E-002    -2.5546121378283715E-006
   1.1199999999999988E-002    -2.7170551675226307E-006
   1.2300000000000005E-002    -2.8898696200485574E-006
   1.3399999999999995E-002    -3.0719074857188389E-006
   1.4500000000000013E-002    -3.2618177101539914E-006
   1.5600000000000003E-002    -3.4586125821078895E-006
   1.6699999999999993E-002    -3.6620924674934940E-006
   1.7800000000000010E-002    -3.8729763218725566E-006
   1.8900000000000000E-002    -4.0926547626440879E-006
   1.9999999999999990E-002    -4.3226709749433212E-006
   2.1100000000000008E-002    -4.5642455006600358E-006
   2.2199999999999998E-002    -4.8180900193983689E-006
   2.3300000000000015E-002    -5.0845364967244677E-006
   2.4400000000000005E-002    -5.3637527344108094E-006
   2.5499999999999995E-002    -5.6557528296252713E-006
   2.6600000000000013E-002    -5.9601757129712496E-006
   2.7700000000000002E-002    -6.2761459957982879E-006
   2.8799999999999992E-002    -6.6025831984006800E-006
   2.9900000000000010E-002    -6.9389288910315372E-006
   3.1000000000000000E-002    -7.2857542363635730E-006
   3.2099999999999990E-002    -7.6446367529570125E-006
   3.3200000000000007E-002    -8.0172640082309954E-006
   3.4299999999999997E-002    -8.4045123003306799E-006
   3.5400000000000015E-002    -8.8063188741216436E-006
   3.6500000000000005E-002    -9.2223926912993193E-006
   3.7599999999999995E-002    -9.6530247901682742E-006
   3.8700000000000012E-002    -1.0098964594362769E-005
   3.9800000000000002E-002    -1.0560268492554314E-005
   4.0899999999999992E-002    -1.1035377610824071E-005
   4.2000000000000010E-002    -1.1521607120812405E-005
   4.3099999999999999E-002    -1.2017026165267453E-005
   4.4200000000000017E-002    -1.2522295946837403E-005
   4.5300000000000007E-002    -1.3040601515967865E-005
   4.6399999999999997E-002    -1.3575438060797751E-005
   4.7500000000000014E-002    -1.4128052498563193E-005
   4.8600000000000004E-002    -1.4696808648295701E-005
   4.9699999999999994E-002    -1.5278888895409182E-005
   5.0800000000000012E-002    -1.5872719814069569E-005
   5.1900000000000002E-002    -1.6478817997267470E-005
   5.2999999999999992E-002    -1.7098156604333781E-005
   5.4099999999999981E-002    -1.7729978935676627E-005
   5.5200000000000027E-002    -1.8371611076872796E-005
   5.6300000000000017E-002    -1.9020722902496345E-005
   5.7400000000000007E-002    -1.9677871023304760E-005
   5.8499999999999996E-002    -2.0346491510281339E-005
   5.9599999999999986E-002    -2.1029794879723340E-005
   6.0700000000000032E-002    -2.1727450075559318E-005
   6.1800000000000022E-002    -2.2435224309447221E-005
   6.2900000000000011E-002    -2.3148317268351093E-005
   6.4000000000000001E-002    -2.3865533876232803E-005
   6.5099999999999991E-002    -2.4589940949226730E-005
   6.6199999999999981E-002    -2.5325189199065790E-005
   6.7300000000000026E-002    -2.6070896637975238E-005
   6.8400000000000016E-002    -2.6821859137271531E-005
   6.9500000000000006E-002    -2.7572117687668651E-005
   7.0599999999999996E-002    -2.8320120691205375E-005
   7.1699999999999986E-002    -2.9069948141113855E-005
   7.2800000000000031E-002    -2.9827062462572940E-005
   7.3900000000000021E-002    -3.0592462280765176E-005
   7.5000000000000011E-002    -3.1361003493657336E-005
   7.6100000000000001E-002    -3.2125783036462963E-005
   7.7199999999999991E-002    -3.2884272513911128E-005
   7.8299999999999981E-002    -3.3640004403423518E-005
   7.9400000000000026E-002    -3.4397868148516864E-005
   8.0500000000000016E-002    -3.5157772799720988E-005
   8.1600000000000006E-002    -3.5913002648157999E-005
   8.2699999999999996E-002    -3.6655459553003311E-005
   8.3799999999999986E-002    -3.7382957088993862E-005
   8.4900000000000031E-002    -3.8101148675195873E-005
   8.6000000000000021E-002    -3.8817830500192940E-005
   8.7100000000000011E-002    -3.9534887037007138E-005
   8.8200000000000001E-002    -4.0245606214739382E-005
   8.9299999999999990E-002    -4.0940256440080702E-005
   9.0399999999999980E-002    -4.1614548536017537E-005
   9.1500000000000026E-002    -4.2272673454135656E-005
   9.2600000000000016E-002    -4.2921954445773736E-005
   9.3700000000000006E-002    -4.3564235966186970E-005
   9.4799999999999995E-002    -4.4192893255967647E-005
   9.5899999999999985E-002    -4.4798445742344484E-005
   9.7000000000000031E-002    -4.5377291826298460E-005
   9.8100000000000021E-002    -4.5934924855828285E-005
   9.9200000000000010E-002    -4.6480170567519963E-005
  0.10030000000000000         -4.7015946620376781E-005
  0.10139999999999999         -4.7535624617012218E-005
  0.10249999999999998         -4.8028414312284440E-005
  0.10360000000000003         -4.8489146138308570E-005
  0.10470000000000002         -4.8922582209343091E-005
  0.10580000000000001         -4.9338053941028193E-005
  0.10690000000000000         -4.9739646783564240E-005
  0.10799999999999998         -5.0121343520004302E-005
  0.10910000000000003         -5.0472455768613145E-005
  0.11020000000000002         -5.0787610234692693E-005
  0.11130000000000001         -5.1071448979200795E-005
  0.11240000000000000         -5.1333790906937793E-005
  0.11349999999999999         -5.1579812861746177E-005
  0.11460000000000004         -5.1804730901494622E-005
  0.11570000000000003         -5.1998427807120606E-005
  0.11680000000000001         -5.2155563025735319E-005
  0.11790000000000000         -5.2280425734352320E-005
  0.11899999999999999         -5.2381863497430459E-005
  0.12009999999999998         -5.2464089094428346E-005
  0.12120000000000003         -5.2521983889164403E-005
  0.12230000000000002         -5.2545801736414433E-005
  0.12340000000000001         -5.2530886023305357E-005
  0.12450000000000000         -5.2482228056760505E-005
  0.12559999999999999         -5.2409661293495446E-005
  0.12670000000000003         -5.2318708185339347E-005
  0.12780000000000002         -5.2205934480298311E-005
  0.12890000000000001         -5.2062689064769074E-005
  0.13000000000000000         -5.1883456762880087E-005
  0.13109999999999999         -5.1671104301931337E-005
  0.13219999999999998         -5.1433351472951472E-005
  0.13330000000000003         -5.1175233238609508E-005
  0.13440000000000002         -5.0894843298010528E-005
  0.13550000000000001         -5.0585615099407732E-005
  0.13660000000000000         -5.0243241275893524E-005
  0.13769999999999999         -4.9870519433170557E-005
  0.13880000000000003         -4.9474489060230553E-005
  0.13990000000000002         -4.9059908633353189E-005
  0.14100000000000001         -4.8625548515701666E-005
  0.14210000000000000         -4.8165686166612431E-005
  0.14319999999999999         -4.7676592657808214E-005
  0.14429999999999998         -4.7160025133052841E-005
  0.14540000000000003         -4.6621662477264181E-005
  0.14650000000000002         -4.6066616050666198E-005
  0.14760000000000001         -4.5494685764424503E-005
  0.14870000000000000         -4.4901658839080483E-005
  0.14979999999999999         -4.4283638999331743E-005
  0.15090000000000003         -4.3640564399538562E-005
  0.15200000000000002         -4.2976829718099907E-005
  0.15310000000000001         -4.2297207983210683E-005
  0.15420000000000000         -4.1603798308642581E-005
  0.15529999999999999         -4.0895738493418321E-005
  0.15639999999999998         -4.0170867578126490E-005
  0.15750000000000003         -3.9427784940926358E-005
  0.15860000000000002         -3.8667127228109166E-005
  0.15970000000000001         -3.7891830288572237E-005
  0.16080000000000000         -3.7104415241628885E-005
  0.16189999999999999         -3.6305940739111975E-005
  0.16300000000000003         -3.5495962947607040E-005
  0.16410000000000002         -3.4671826142584905E-005
  0.16520000000000001         -3.3831525797722861E-005
  0.16630000000000000         -3.2977626688079908E-005
  0.16739999999999999         -3.2116186048369855E-005
  0.16850000000000004         -3.1251805921783671E-005
  0.16960000000000003         -3.0384158890228719E-005
  0.17070000000000002         -2.9508924853871576E-005
  0.17180000000000001         -2.8622060199268162E-005
  0.17290000000000000         -2.7723242965294048E-005
  0.17399999999999999         -2.6817535399459302E-005
  0.17510000000000003         -2.5911762350006029E-005
  0.17620000000000002         -2.5008535885717720E-005
  0.17730000000000001         -2.4103723262669519E-005
  0.17840000000000000         -2.3190528736449778E-005
  0.17949999999999999         -2.2266987798502669E-005
  0.18060000000000004         -2.1339630620786920E-005
  0.18170000000000003         -2.0418949134182185E-005
  0.18280000000000002         -1.9509659978211857E-005
  0.18390000000000001         -1.8606371668283828E-005
  0.18500000000000000         -1.7698588635539636E-005
  0.18609999999999999         -1.6781161320977844E-005
  0.18720000000000003         -1.5860168787185103E-005
  0.18830000000000002         -1.4948054740671068E-005
  0.18940000000000001         -1.4052850019652396E-005
  0.19050000000000000         -1.3171006685297471E-005
  0.19159999999999999         -1.2291219718463253E-005
  0.19270000000000004         -1.1406116755097173E-005
  0.19380000000000003         -1.0520250725676306E-005
  0.19490000000000002         -9.6463427325943485E-006
  0.19600000000000001         -8.7928901848499663E-006
  0.19710000000000000         -7.9564952102373354E-006
  0.19819999999999999         -7.1256795308727305E-006
  0.19930000000000003         -6.2933736444392707E-006
  0.20040000000000002         -5.4653478400723543E-006
  0.20150000000000001         -4.6542190830223262E-006
  0.20260000000000000         -3.8674534152960405E-006
  0.20369999999999999         -3.1005613436718704E-006
  0.20480000000000004         -2.3419045191985788E-006
  0.20590000000000003         -1.5850016552576562E-006
  0.20700000000000002         -8.3529300809459528E-007
  0.20810000000000001         -1.0512124504202802E-007
  0.20920000000000000          5.9840891708518029E-007
  0.21029999999999999          1.2798006991943112E-006
  0.21140000000000003          1.9493556919769617E-006
  0.21250000000000002          2.6119503218069440E-006
  0.21360000000000001          3.2622640446788864E-006
  0.21470000000000000          3.8907351154193748E-006
  0.21579999999999999          4.4934486140846275E-006
  0.21690000000000004          5.0757657845679205E-006
  0.21800000000000003          5.6460044106643181E-006
  0.21910000000000002          6.2056560636847280E-006
  0.22020000000000001          6.7477358243195340E-006
  0.22130000000000000          7.2643538260308560E-006
  0.22239999999999999          7.7546210377477109E-006
  0.22350000000000003          8.2261913121328689E-006
  0.22460000000000002          8.6874133558012545E-006
  0.22570000000000001          9.1377733042463660E-006
  0.22680000000000000          9.5679470177856274E-006
  0.22789999999999999          9.9693661468336359E-006
  0.22900000000000004          1.0342504538130015E-005
  0.23010000000000003          1.0696473509597126E-005
  0.23120000000000002          1.1040525350836106E-005
  0.23230000000000001          1.1374739187886007E-005
  0.23340000000000000          1.1690632163663395E-005
  0.23450000000000004          1.1980719136772677E-005
  0.23560000000000003          1.2246445294294972E-005
  0.23670000000000002          1.2495253940869588E-005
  0.23780000000000001          1.2732175491692033E-005
  0.23890000000000000          1.2955145393789280E-005
  0.23999999999999999          1.3157358807802666E-005
  0.24110000000000004          1.3335351468413137E-005
  0.24220000000000003          1.3493684491550084E-005
  0.24330000000000002          1.3640467841469217E-005
  0.24440000000000001          1.3778563697997015E-005
  0.24550000000000000          1.3903047147323377E-005
  0.24660000000000004          1.4006793207954615E-005
  0.24770000000000003          1.4088596799410880E-005
  0.24880000000000002          1.4154649761621840E-005
  0.24990000000000001          1.4211630514182616E-005
  0.25100000000000000          1.4259854651754722E-005
  0.25209999999999999          1.4293178537627682E-005
  0.25320000000000004          1.4306717275758274E-005
  0.25430000000000003          1.4303715033747721E-005
  0.25540000000000002          1.4292730156739708E-005
  0.25650000000000001          1.4278497474151663E-005
  0.25760000000000000          1.4256584108807147E-005
  0.25870000000000004          1.4218108844943345E-005
  0.25980000000000003          1.4159862075757701E-005
  0.26090000000000002          1.4089226169744506E-005
  0.26200000000000001          1.4017998182680458E-005
  0.26310000000000000          1.3949790627520997E-005
  0.26419999999999999          1.3874581782147288E-005
  0.26530000000000004          1.3778821084997617E-005
  0.26640000000000003          1.3660556760441978E-005
  0.26750000000000002          1.3533299352275208E-005
  0.26860000000000001          1.3413960914476775E-005
  0.26970000000000000          1.3306068467500154E-005
  0.27080000000000004          1.3196099644119386E-005
  0.27190000000000003          1.3065831808489747E-005
  0.27300000000000002          1.2910640180052724E-005
  0.27410000000000001          1.2745785170409363E-005
  0.27520000000000000          1.2592259736265987E-005
  0.27629999999999999          1.2456396689231042E-005
  0.27740000000000004          1.2323293049121276E-005
  0.27850000000000003          1.2171876733191311E-005
  0.27960000000000002          1.1996038665529341E-005
  0.28070000000000001          1.1810482646978926E-005
  0.28179999999999999          1.1636843737505842E-005
  0.28290000000000004          1.1482837180665229E-005
  0.28400000000000003          1.1335499948472716E-005
  0.28510000000000002          1.1174643077538349E-005
  0.28620000000000001          1.0992581337632146E-005
  0.28730000000000000          1.0802211363625247E-005
  0.28840000000000005          1.0623589332681149E-005
  0.28950000000000004          1.0463743819855154E-005
  0.29060000000000002          1.0310937796020880E-005
  0.29170000000000001          1.0147304237762000E-005
  0.29280000000000000          9.9669741757679731E-006
  0.29389999999999999          9.7816800916916691E-006
  0.29500000000000004          9.6082812888198532E-006
  0.29610000000000003          9.4513534349971451E-006
  0.29720000000000002          9.2995223894831724E-006
  0.29830000000000001          9.1380961748654954E-006
  0.29940000000000000          8.9643763203639537E-006
  0.30050000000000004          8.7899516074685380E-006
  0.30160000000000003          8.6281652329489589E-006
  0.30270000000000002          8.4803541540168226E-006
  0.30380000000000001          8.3351887951721437E-006
  0.30490000000000000          8.1815423982334323E-006
  0.30599999999999999          8.0198678915621713E-006
  0.30709999999999998          7.8617458711960353E-006
  0.30819999999999997          7.7172499004518613E-006
  0.30930000000000007          7.5839466262550559E-006
  0.31040000000000006          7.4497866080491804E-006
  0.31150000000000005          7.3058445195783861E-006
  0.31260000000000004          7.1561757977178786E-006
  0.31370000000000003          7.0135033638507593E-006
  0.31480000000000002          6.8858630584145430E-006
  0.31590000000000001          6.7680043684958946E-006
  0.31700000000000000          6.6468428485677578E-006
  0.31809999999999999          6.5155722950294148E-006
  0.31919999999999998          6.3809598032094073E-006
  0.32029999999999997          6.2564545260102022E-006
  0.32140000000000007          6.1474888752854895E-006
  0.32250000000000006          6.0458623920567334E-006
  0.32360000000000005          5.9385511121945456E-006
  0.32470000000000004          5.8204232118441723E-006
  0.32580000000000003          5.6999465414264705E-006
  0.32690000000000002          5.5899818107718602E-006
  0.32800000000000001          5.4941651796980295E-006
  0.32910000000000000          5.4041761359258089E-006
  0.33019999999999999          5.3094090617378242E-006
  0.33129999999999998          5.2078930821153335E-006
  0.33239999999999997          5.1072061069135088E-006
  0.33350000000000007          5.0160360842710361E-006
  0.33460000000000006          4.9353129725204781E-006
  0.33570000000000005          4.8570914259471465E-006
  0.33680000000000004          4.7730559344927315E-006
  0.33790000000000003          4.6839568312861957E-006
  0.33900000000000002          4.5980773393239360E-006
  0.34010000000000001          4.5217507249617483E-006
  0.34120000000000000          4.4527323552756570E-006
  0.34229999999999999          4.3830295908264816E-006
  0.34339999999999998          4.3086183723062277E-006
  0.34449999999999997          4.2344349822087679E-006
  0.34560000000000007          4.1684165807964746E-006
  0.34670000000000006          4.1123998926195782E-006
  0.34780000000000005          4.0592749428469688E-006
  0.34890000000000004          3.9997612475417554E-006
