 -0.20000000000000001          0.0000000000000000
 -0.19890000000000002          0.0000000000000000
 -0.19780000000000000          0.0000000000000000
 -0.19670000000000001          0.0000000000000000
 -0.19560000000000002          0.0000000000000000
 -0.19450000000000001          2.0736965075319031E-018
 -0.19340000000000002          2.1219738700077949E-017
 -0.19230000000000000          8.4209997295327910E-017
 -0.19120000000000001          1.5372448911649594E-016
 -0.19010000000000002          2.2770285449586149E-017
 -0.18900000000000000         -5.1505108907218614E-016
 -0.18790000000000001         -1.0501308015777922E-015
 -0.18680000000000002         -2.9889619539698960E-016
 -0.18570000000000000          2.3619096570459642E-015
 -0.18460000000000001          4.1594709074895420E-015
 -0.18350000000000000         -3.7917874576136063E-016
 -0.18240000000000001         -1.1127348161269444E-014
 -0.18130000000000002         -1.3184361744445882E-014
 -0.18020000000000000          1.3709251968233374E-014
 -0.17910000000000001          5.8049993577249243E-014
 -0.17800000000000002          4.7905513648853482E-014
 -0.17690000000000000         -9.5553915528765604E-014
 -0.17580000000000001         -3.0437246690065423E-013
 -0.17470000000000002         -2.6210075234310570E-013
 -0.17360000000000000          3.7531821183919845E-013
 -0.17250000000000001          1.3834375268625965E-012
 -0.17140000000000000          1.5424718793899395E-012
 -0.17030000000000001         -6.6245804414971632E-013
 -0.16920000000000002         -4.9429987013238641E-012
 -0.16810000000000000         -7.3767719363515560E-012
 -0.16700000000000001         -2.0052011266702419E-012
 -0.16589999999999999          1.2715788491601820E-011
 -0.16480000000000000          2.6862602420241188E-011
 -0.16370000000000001          2.0791392912888895E-011
 -0.16260000000000002         -1.8159656070548813E-011
 -0.16150000000000000         -7.2566237740989692E-011
 -0.16040000000000001         -8.9959810434248055E-011
 -0.15930000000000000         -1.7589759510050484E-011
 -0.15820000000000001          1.3452550184922529E-010
 -0.15710000000000002          2.5722063368149861E-010
 -0.15600000000000000          1.9474463708313294E-010
 -0.15490000000000001         -1.1393235660461798E-010
 -0.15379999999999999         -5.0779092042319007E-010
 -0.15270000000000000         -6.3993971233244906E-010
 -0.15160000000000001         -2.3164578588641405E-010
 -0.15050000000000002          6.0881272245794094E-010
 -0.14940000000000001          1.3025047707060367E-009
 -0.14830000000000002          1.1475456140885854E-009
 -0.14720000000000000         -6.3707088215902985E-011
 -0.14610000000000001         -1.6606770403271298E-009
 -0.14500000000000002         -2.4052018154918642E-009
 -0.14390000000000000         -1.4333427778012720E-009
 -0.14280000000000001          8.7405471749235630E-010
 -0.14169999999999999          2.9330016193540587E-009
 -0.14060000000000000          3.0964775188380145E-009
 -0.13950000000000001          1.0672610573081442E-009
 -0.13840000000000002         -1.6858942020192558E-009
 -0.13730000000000001         -3.0663873662462038E-009
 -0.13619999999999999         -2.1840738106959634E-009
 -0.13510000000000000         -1.9281684582317382E-010
 -0.13400000000000001          8.3464279931888541E-010
 -0.13290000000000002          9.4426182151163829E-011
 -0.13180000000000000         -8.9027613059400323E-010
 -0.13070000000000001          2.4658400321619922E-010
 -0.12959999999999999          3.7708014488657682E-009
 -0.12850000000000000          6.4703153945799841E-009
 -0.12740000000000001          4.0089438435586544E-009
 -0.12630000000000002         -4.3164485319380219E-009
 -0.12520000000000001         -1.2871462118368981E-008
 -0.12410000000000000         -1.2832272133778133E-008
 -0.12300000000000001         -1.2591307163578591E-010
 -0.12190000000000001          1.8221241404603461E-008
 -0.12080000000000000          2.6315390755371482E-008
 -0.11970000000000000          1.1183193038277750E-008
 -0.11860000000000001         -2.3626729017678372E-008
 -0.11750000000000001         -5.4473975552582488E-008
 -0.11640000000000000         -5.0642604776385269E-008
 -0.11530000000000000          1.8076662389177045E-009
 -0.11420000000000001          8.1725509915031580E-008
 -0.11310000000000001          1.3652714869749616E-007
 -0.11200000000000000          1.1165092672626997E-007
 -0.11090000000000001         -8.7192582043371658E-009
 -0.10980000000000001         -1.7620760672798497E-007
 -0.10870000000000000         -2.9076647933834465E-007
 -0.10760000000000000         -2.5352943566758768E-007
 -0.10650000000000001         -3.5397857089947138E-008
 -0.10540000000000001          2.8078449076929246E-007
 -0.10430000000000000          5.2083754553677863E-007
 -0.10320000000000000          5.0721627076200093E-007
 -0.10210000000000001          1.7482722114436910E-007
 -0.10100000000000001         -3.5494858252604899E-007
  -9.9900000000000003E-002    -8.0284002024200163E-007
  -9.8799999999999999E-002    -8.7066257492551813E-007
  -9.7700000000000009E-002    -4.2610258788045030E-007
  -9.6600000000000005E-002     3.7730177382400143E-007
  -9.5500000000000002E-002     1.1365694945197902E-006
  -9.4400000000000012E-002     1.3985606983624166E-006
  -9.3300000000000008E-002     9.2322767386576743E-007
  -9.2200000000000004E-002    -1.4505290835131746E-007
  -9.1100000000000000E-002    -1.3164511756258435E-006
  -9.0000000000000011E-002    -2.0040724848513491E-006
  -8.8900000000000007E-002    -1.8496729126127320E-006
  -8.7800000000000003E-002    -9.3602437800655025E-007
  -8.6699999999999999E-002     2.4754811533966858E-007
  -8.5600000000000009E-002     1.0763868658614228E-006
  -8.4500000000000006E-002     1.1446772987255827E-006
  -8.3400000000000002E-002     4.9408708946430124E-007
  -8.2299999999999998E-002    -4.2094870877917856E-007
  -8.1200000000000008E-002    -1.0130423788723419E-006
  -8.0100000000000005E-002    -9.1991057615814498E-007
  -7.9000000000000001E-002    -2.2325832560454728E-007
  -7.7899999999999997E-002     6.0751835917471908E-007
  -7.6800000000000007E-002     1.0148096407647245E-006
  -7.5700000000000003E-002     7.0941541707725264E-007
  -7.4600000000000000E-002    -1.4368131928677030E-007
  -7.3500000000000010E-002    -1.0351291166443843E-006
  -7.2399999999999992E-002    -1.4512671668853727E-006
  -7.1300000000000002E-002    -1.2220301641718834E-006
  -7.0200000000000012E-002    -6.3824580820437404E-007
  -6.9099999999999995E-002    -2.4581129309808603E-007
  -6.8000000000000005E-002    -4.4398345266927208E-007
  -6.6900000000000015E-002    -1.1620701343417750E-006
  -6.5799999999999997E-002    -1.8559704813014832E-006
  -6.4700000000000008E-002    -1.8616581201058580E-006
  -6.3599999999999990E-002    -8.9444131390337134E-007
  -6.2500000000000000E-002     6.4264702359650983E-007
  -6.1400000000000010E-002     1.7865271502159885E-006
  -6.0299999999999992E-002     1.5569078186672414E-006
  -5.9200000000000003E-002    -3.8707847238583781E-007
  -5.8100000000000013E-002    -3.3903747862495948E-006
  -5.6999999999999995E-002    -6.0204711189726368E-006
  -5.5900000000000005E-002    -6.8054687289986759E-006
  -5.4800000000000015E-002    -5.1064625949948095E-006
  -5.3699999999999998E-002    -1.6101658957268228E-006
  -5.2600000000000008E-002     1.8990073158420273E-006
  -5.1499999999999990E-002     3.4296870126127033E-006
  -5.0400000000000000E-002     1.8779284118863870E-006
  -4.9300000000000010E-002    -2.2917629394214600E-006
  -4.8199999999999993E-002    -7.1991630647971760E-006
  -4.7100000000000003E-002    -1.0492805813555606E-005
  -4.6000000000000013E-002    -1.0588372788333800E-005
  -4.4899999999999995E-002    -7.5218135862087365E-006
  -4.3800000000000006E-002    -2.9487075607903535E-006
  -4.2699999999999988E-002     7.0500891524716280E-007
  -4.1599999999999998E-002     1.4744862255611224E-006
  -4.0500000000000008E-002    -1.1838911859740620E-006
  -3.9399999999999991E-002    -6.1836731219955254E-006
  -3.8300000000000001E-002    -1.1415702829253860E-005
  -3.7200000000000011E-002    -1.4820439901086502E-005
  -3.6099999999999993E-002    -1.5362285921582952E-005
  -3.5000000000000003E-002    -1.3429929822450504E-005
  -3.3900000000000013E-002    -1.0502178156457376E-005
  -3.2799999999999996E-002    -8.3055983850499615E-006
  -3.1700000000000006E-002    -7.9424389696214348E-006
  -3.0599999999999988E-002    -9.4634788183611818E-006
  -2.9499999999999998E-002    -1.2078883628419135E-005
  -2.8400000000000009E-002    -1.4809267668169923E-005
  -2.7299999999999991E-002    -1.7116635717684403E-005
  -2.6200000000000001E-002    -1.9094386516371742E-005
  -2.5100000000000011E-002    -2.1139185264473781E-005
  -2.3999999999999994E-002    -2.3410681023960933E-005
  -2.2900000000000004E-002    -2.5543400624883361E-005
  -2.1800000000000014E-002    -2.6869805878959596E-005
  -2.0699999999999996E-002    -2.6997315217158757E-005
  -1.9600000000000006E-002    -2.6279658413841389E-005
  -1.8499999999999989E-002    -2.5792549422476441E-005
  -1.7399999999999999E-002    -2.6783649445860647E-005
  -1.6300000000000009E-002    -2.9956912840134464E-005
  -1.5199999999999991E-002    -3.5056018532486632E-005
  -1.4100000000000001E-002    -4.1001632780535147E-005
  -1.3000000000000012E-002    -4.6441815356956795E-005
  -1.1899999999999994E-002    -5.0368435040581971E-005
  -1.0800000000000004E-002    -5.2487430366454646E-005
  -9.6999999999999864E-003    -5.3224091971060261E-005
  -8.5999999999999965E-003    -5.3480354836210608E-005
  -7.5000000000000067E-003    -5.4278330935630947E-005
  -6.3999999999999890E-003    -5.6432079873047769E-005
  -5.2999999999999992E-003    -6.0318634496070445E-005
  -4.2000000000000093E-003    -6.5804422774817795E-005
  -3.0999999999999917E-003    -7.2358721808996052E-005
  -2.0000000000000018E-003    -7.9273129813373089E-005
  -9.0000000000001190E-004    -8.5907420725561678E-005
   2.0000000000000573E-004    -9.1821049863938242E-005
   1.2999999999999956E-003    -9.6808413218241185E-005
   2.4000000000000132E-003    -1.0087923146784306E-004
   3.5000000000000031E-003    -1.0429194662719965E-004
   4.5999999999999930E-003    -1.0759485303424299E-004
   5.7000000000000106E-003    -1.1155461834277958E-004
   6.8000000000000005E-003    -1.1692514817696065E-004
   7.8999999999999904E-003    -1.2411191710270941E-004
   9.0000000000000080E-003    -1.3295558164827526E-004
   1.0099999999999998E-002    -1.4276709407567978E-004
   1.1199999999999988E-002    -1.5259940118994564E-004
   1.2300000000000005E-002    -1.6160785162355751E-004
   1.3399999999999995E-002    -1.6935332678258419E-004
   1.4500000000000013E-002    -1.7592070798855275E-004
   1.5600000000000003E-002    -1.8188451940659434E-004
   1.6699999999999993E-002    -1.8808727327268571E-004
   1.7800000000000010E-002    -1.9533824524842203E-004
   1.8900000000000000E-002    -2.0406581461429596E-004
   1.9999999999999990E-002    -2.1414192451629788E-004
   2.1100000000000008E-002    -2.2508937399834394E-004
   2.2199999999999998E-002    -2.3645807232242078E-004
   2.3300000000000015E-002    -2.4800773826427758E-004
   2.4400000000000005E-002    -2.5967607507482171E-004
   2.5499999999999995E-002    -2.7125308406539261E-004
   2.6600000000000013E-002    -2.8224414563737810E-004
   2.7700000000000002E-002    -2.9221482691355050E-004
   2.8799999999999992E-002    -3.0126134515739977E-004
   2.9900000000000010E-002    -3.1024415511637926E-004
   3.1000000000000000E-002    -3.2033619936555624E-004
   3.2099999999999990E-002    -3.3218221506103873E-004
   3.3200000000000007E-002    -3.4534794394858181E-004
   3.4299999999999997E-002    -3.5877546179108322E-004
   3.5400000000000015E-002    -3.7181345396675169E-004
   3.6500000000000005E-002    -3.8473302265629172E-004
   3.7599999999999995E-002    -3.9828327135182917E-004
   3.8700000000000012E-002    -4.1249860078096390E-004
   3.9800000000000002E-002    -4.2617137660272419E-004
   4.0899999999999992E-002    -4.3759489199146628E-004
   4.2000000000000010E-002    -4.4638395775109529E-004
   4.3099999999999999E-002    -4.5434609637595713E-004
   4.4200000000000017E-002    -4.6436084085144103E-004
   4.5300000000000007E-002    -4.7807293594814837E-004
   4.6399999999999997E-002    -4.9441499868407845E-004
   4.7500000000000014E-002    -5.1041389815509319E-004
   4.8600000000000004E-002    -5.2375660743564367E-004
   4.9699999999999994E-002    -5.3458969341591001E-004
   5.0800000000000012E-002    -5.4505380103364587E-004
   5.1900000000000002E-002    -5.5684038670733571E-004
   5.2999999999999992E-002    -5.6912831496447325E-004
   5.4099999999999981E-002    -5.7956081582233310E-004
   5.5200000000000027E-002    -5.8699719374999404E-004
   5.6300000000000017E-002    -5.9323001187294722E-004
   5.7400000000000007E-002    -6.0166371986269951E-004
   5.8499999999999996E-002    -6.1408139299601316E-004
   5.9599999999999986E-002    -6.2835641438141465E-004
   6.0700000000000032E-002    -6.4014660893008113E-004
   6.1800000000000022E-002    -6.4674019813537598E-004
   6.2900000000000011E-002    -6.4986973302438855E-004
   6.4000000000000001E-002    -6.5417290898039937E-004
   6.5099999999999991E-002    -6.6278746817260981E-004
   6.6199999999999981E-002    -6.7383795976638794E-004
   6.7300000000000026E-002    -6.8196968641132116E-004
   6.8400000000000016E-002    -6.8353128153830767E-004
   6.9500000000000006E-002    -6.8064226070418954E-004
   7.0599999999999996E-002    -6.7935284459963441E-004
   7.1699999999999986E-002    -6.8390741944313049E-004
   7.2800000000000031E-002    -6.9250748492777348E-004
   7.3900000000000021E-002    -6.9901609094813466E-004
   7.5000000000000011E-002    -6.9848622661083937E-004
   7.6100000000000001E-002    -6.9238815922290087E-004
   7.7199999999999991E-002    -6.8699714029207826E-004
   7.8299999999999981E-002    -6.8706949241459370E-004
   7.9400000000000026E-002    -6.9069181336089969E-004
   8.0500000000000016E-002    -6.9076957879588008E-004
   8.1600000000000006E-002    -6.8218848900869489E-004
   8.2699999999999996E-002    -6.6771730780601501E-004
   8.3799999999999986E-002    -6.5510696731507778E-004
   8.4900000000000031E-002    -6.5056595485657454E-004
   8.6000000000000021E-002    -6.5216282382607460E-004
   8.7100000000000011E-002    -6.5139785874634981E-004
   8.8200000000000001E-002    -6.4113491680473089E-004
   8.9299999999999990E-002    -6.2255852390080690E-004
   9.0399999999999980E-002    -6.0387724079191685E-004
   9.1500000000000026E-002    -5.9231038903817534E-004
   9.2600000000000016E-002    -5.8723770780488849E-004
   9.3700000000000006E-002    -5.8018654817715287E-004
   9.4799999999999995E-002    -5.6331371888518333E-004
   9.5899999999999985E-002    -5.3826312068849802E-004
   9.7000000000000031E-002    -5.1418720977380872E-004
   9.8100000000000021E-002    -4.9923674669116735E-004
   9.9200000000000010E-002    -4.9197766929864883E-004
  0.10030000000000000         -4.8294445150531828E-004
  0.10139999999999999         -4.6283268602564931E-004
  0.10249999999999998         -4.3289925088174641E-004
  0.10360000000000003         -4.0328589966520667E-004
  0.10470000000000002         -3.8332061376422644E-004
  0.10580000000000001         -3.7206665729172528E-004
  0.10690000000000000         -3.5952686448581517E-004
  0.10799999999999998         -3.3614723361097276E-004
  0.10910000000000003         -3.0288263224065304E-004
  0.11020000000000002         -2.6905740378424525E-004
  0.11130000000000001         -2.4525460321456194E-004
  0.11240000000000000         -2.3139825498219579E-004
  0.11349999999999999         -2.1722725068684667E-004
  0.11460000000000004         -1.9344616157468408E-004
  0.11570000000000003         -1.5940933371894062E-004
  0.11680000000000001         -1.2501083256211132E-004
  0.11790000000000000         -9.9565957498271018E-005
  0.11899999999999999         -8.3336941315792501E-005
  0.12009999999999998         -6.6943350248038769E-005
  0.12120000000000003         -4.0836584958015010E-005
  0.12230000000000002         -4.4994208110438194E-006
  0.12340000000000001          3.2137944799615070E-005
  0.12450000000000000          5.8852350775850937E-005
  0.12559999999999999          7.5320087489672005E-005
  0.12670000000000003          9.0026391262654215E-005
  0.12780000000000002          1.1259040911681950E-004
  0.12890000000000001          1.4543003635481000E-004
  0.13000000000000000          1.8045787874143571E-004
  0.13109999999999999          2.0815245807170868E-004
  0.13219999999999998          2.2641598479822278E-004
  0.13330000000000003          2.4226703681051731E-004
  0.13440000000000002          2.6443501701578498E-004
  0.13550000000000001          2.9524555429816246E-004
  0.13660000000000000          3.2747030491009355E-004
  0.13769999999999999          3.5298027796670794E-004
  0.13880000000000003          3.6951131187379360E-004
  0.13990000000000002          3.8387218955904245E-004
  0.14100000000000001          4.0347941103391349E-004
  0.14210000000000000          4.3064050259999931E-004
  0.14319999999999999          4.5973481610417366E-004
  0.14429999999999998          4.8297882312908769E-004
  0.14540000000000003          4.9838679842650890E-004
  0.14650000000000002          5.1064806757494807E-004
  0.14760000000000001          5.2660761866718531E-004
  0.14870000000000000          5.4824934341013432E-004
  0.14979999999999999          5.7359295897185802E-004
  0.15090000000000003          5.9635046636685729E-004
  0.15200000000000002          6.1285978881642222E-004
  0.15310000000000001          6.2417890876531601E-004
  0.15420000000000000          6.3572218641638756E-004
  0.15529999999999999          6.5031641861423850E-004
  0.15639999999999998          6.6742976196110249E-004
  0.15750000000000003          6.8483967334032059E-004
  0.15860000000000002          6.9989863550290465E-004
  0.15970000000000001          7.1118335472419858E-004
  0.16080000000000000          7.1996159385889769E-004
  0.16189999999999999          7.2927144356071949E-004
  0.16300000000000003          7.4205902637913823E-004
  0.16410000000000002          7.5732410186901689E-004
  0.16520000000000001          7.7210640301927924E-004
  0.16630000000000000          7.8186840983107686E-004
  0.16739999999999999          7.8487762948498130E-004
  0.16850000000000004          7.8479805961251259E-004
  0.16960000000000003          7.8808399848639965E-004
  0.17070000000000002          7.9933798406273127E-004
  0.17180000000000001          8.1404071534052491E-004
  0.17290000000000000          8.2441215636208653E-004
  0.17399999999999999          8.2596740685403347E-004
  0.17510000000000003          8.2145351916551590E-004
  0.17620000000000002          8.1931415479630232E-004
  0.17730000000000001          8.2527118502184749E-004
  0.17840000000000000          8.3734071813523769E-004
  0.17949999999999999          8.4528344450518489E-004
  0.18060000000000004          8.4118189988657832E-004
  0.18170000000000003          8.2874158397316933E-004
  0.18280000000000002          8.1918027717620134E-004
  0.18390000000000001          8.2119851140305400E-004
  0.18500000000000000          8.3235849160701036E-004
  0.18609999999999999          8.4068818250671029E-004
  0.18720000000000003          8.3543104119598866E-004
  0.18830000000000002          8.1896869232878089E-004
  0.18940000000000001          8.0376327969133854E-004
  0.19050000000000000          7.9999445006251335E-004
  0.19159999999999999          8.0561876529827714E-004
  0.19270000000000004          8.0855202395468950E-004
  0.19380000000000003          8.0011563841253519E-004
  0.19490000000000002          7.8235846012830734E-004
  0.19600000000000001          7.6516193803399801E-004
  0.19710000000000000          7.5871840817853808E-004
  0.19819999999999999          7.6068239286541939E-004
  0.19930000000000003          7.5862981611862779E-004
  0.20040000000000002          7.4393075192347169E-004
  0.20150000000000001          7.2073558112606406E-004
  0.20260000000000000          7.0115277776494622E-004
  0.20369999999999999          6.9322186755016446E-004
  0.20480000000000004          6.9357722532004118E-004
  0.20590000000000003          6.8945391103625298E-004
  0.20700000000000002          6.7300337832421064E-004
  0.20810000000000001          6.4820505212992430E-004
  0.20920000000000000          6.2666548183187842E-004
  0.21029999999999999          6.1464292230084538E-004
  0.21140000000000003          6.0834863688796759E-004
  0.21250000000000002          5.9880001936107874E-004
  0.21360000000000001          5.8047950733453035E-004
  0.21470000000000000          5.5719667579978704E-004
  0.21579999999999999          5.3823326015844941E-004
  0.21690000000000004          5.2664382383227348E-004
  0.21800000000000003          5.1632570102810860E-004
  0.21910000000000002          5.0057412590831518E-004
  0.22020000000000001          4.7797392471693456E-004
  0.22130000000000000          4.5435468200594187E-004
  0.22239999999999999          4.3748185271397233E-004
  0.22350000000000003          4.2684184154495597E-004
  0.22460000000000002          4.1600019903853536E-004
  0.22570000000000001          3.9848175947554410E-004
  0.22680000000000000          3.7434708792716265E-004
  0.22789999999999999          3.5059402580372989E-004
  0.22900000000000004          3.3441383857280016E-004
  0.23010000000000003          3.2298173755407333E-004
  0.23120000000000002          3.1061374465934932E-004
  0.23230000000000001          2.9168289620429277E-004
  0.23340000000000000          2.6901217643171549E-004
  0.23450000000000004          2.4927026242949069E-004
  0.23560000000000003          2.3611288634128869E-004
  0.23670000000000002          2.2652449843008071E-004
  0.23780000000000001          2.1262928203213960E-004
  0.23890000000000000          1.9077326578553766E-004
  0.23999999999999999          1.6644691640976816E-004
  0.24110000000000004          1.4963964349590242E-004
  0.24220000000000003          1.4197408745530993E-004
  0.24330000000000002          1.3625621795654297E-004
  0.24440000000000001          1.2310969759710133E-004
  0.24550000000000000          9.9742734164465219E-005
  0.24660000000000004          7.5511328759603202E-005
  0.24770000000000003          6.1013448430458084E-005
  0.24880000000000002          5.7217061112169176E-005
  0.24990000000000001          5.3584790293825790E-005
  0.25100000000000000          4.1407147364225239E-005
  0.25209999999999999          2.0425977709237486E-005
  0.25320000000000004          6.0176137139933417E-007
  0.25430000000000003         -8.4047660493524745E-006
  0.25540000000000002         -8.6534273577854037E-006
  0.25650000000000001         -1.1719652320607565E-005
  0.25760000000000000         -2.7861415219376795E-005
  0.25870000000000004         -5.1643422921188176E-005
  0.25980000000000003         -6.8233675847295672E-005
  0.26090000000000002         -6.9067376898601651E-005
  0.26200000000000001         -6.0625534388236701E-005
  0.26310000000000000         -5.9184654674027115E-005
  0.26419999999999999         -7.5236443080939353E-005
  0.26530000000000004         -1.0100186773343012E-004
  0.26640000000000003         -1.1770288983825594E-004
  0.26750000000000002         -1.1383416858734563E-004
  0.26860000000000001         -9.9910015705972910E-005
  0.26970000000000000         -9.5740637334529310E-005
  0.27080000000000004         -1.1323195212753490E-004
  0.27190000000000003         -1.4065345749258995E-004
  0.27300000000000002         -1.5618080215062946E-004
  0.27410000000000001         -1.4757033204659820E-004
  0.27520000000000000         -1.2630839773919433E-004
  0.27629999999999999         -1.1669241939671338E-004
  0.27740000000000004         -1.3162975665181875E-004
  0.27850000000000003         -1.5929495566524565E-004
  0.27960000000000002         -1.7504789866507053E-004
  0.28070000000000001         -1.6683076682966202E-004
  0.28179999999999999         -1.4543274301104248E-004
  0.28290000000000004         -1.3454136205837131E-004
  0.28400000000000003         -1.4659737644251436E-004
  0.28510000000000002         -1.7031519382726401E-004
  0.28620000000000001         -1.8372031627222896E-004
  0.28730000000000000         -1.7508858582004905E-004
  0.28840000000000005         -1.5437824185937643E-004
  0.28950000000000004         -1.4258896408136934E-004
  0.29060000000000002         -1.5088701911736280E-004
  0.29170000000000001         -1.7027811554726213E-004
  0.29280000000000000         -1.8123822519555688E-004
  0.29389999999999999         -1.7386698164045811E-004
  0.29500000000000004         -1.5654203889425844E-004
  0.29610000000000003         -1.4787053805775940E-004
  0.29720000000000002         -1.5555010759271681E-004
  0.29830000000000001         -1.7103766731452197E-004
  0.29940000000000000         -1.7690789536572993E-004
  0.30050000000000004         -1.6705003508832306E-004
  0.30160000000000003         -1.4998188999015838E-004
  0.30270000000000002         -1.4245242346078157E-004
  0.30380000000000001         -1.5138434537220746E-004
  0.30490000000000000         -1.6541972581762820E-004
  0.30599999999999999         -1.6975005564745516E-004
  0.30709999999999998         -1.6020143812056631E-004
  0.30819999999999997         -1.4724480570293963E-004
  0.30930000000000007         -1.4514791837427765E-004
  0.31040000000000006         -1.5448583872057498E-004
  0.31150000000000005         -1.6366371710319072E-004
  0.31260000000000004         -1.6116804908961058E-004
  0.31370000000000003         -1.4848721912130713E-004
  0.31480000000000002         -1.3742854935117066E-004
  0.31590000000000001         -1.4009058941155672E-004
  0.31700000000000000         -1.5346948930528015E-004
  0.31809999999999999         -1.6355069237761199E-004
  0.31919999999999998         -1.5852952492423356E-004
  0.32029999999999997         -1.4308899699244648E-004
  0.32140000000000007         -1.3342373131308705E-004
  0.32250000000000006         -1.3871073315385729E-004
  0.32360000000000005         -1.5408346371259540E-004
  0.32470000000000004         -1.6387710638809949E-004
  0.32580000000000003         -1.5812081983312964E-004
  0.32690000000000002         -1.4284123608376831E-004
  0.32800000000000001         -1.3392468099482358E-004
  0.32910000000000000         -1.4109878975432366E-004
  0.33019999999999999         -1.5592265117447823E-004
  0.33129999999999998         -1.6341052833013237E-004
  0.33239999999999997         -1.5647422696929425E-004
  0.33350000000000007         -1.4335573359858245E-004
  0.33460000000000006         -1.3914295413997024E-004
  0.33570000000000005         -1.4893118350300938E-004
  0.33680000000000004         -1.6304613382089883E-004
  0.33790000000000003         -1.6770559886936098E-004
  0.33900000000000002         -1.6019782924558967E-004
  0.34010000000000001         -1.5072697715368122E-004
  0.34120000000000000         -1.5037704724818468E-004
  0.34229999999999999         -1.6044829681050032E-004
  0.34339999999999998         -1.7035768541973084E-004
  0.34449999999999997         -1.6908183170016855E-004
  0.34560000000000007         -1.5851415810175240E-004
  0.34670000000000006         -1.5300019003916532E-004
  0.34780000000000005         -1.6096369654405862E-004
  0.34890000000000004         -1.7752367421053350E-004
