 -0.20000000000000001          0.0000000000000000
 -0.19890000000000002          0.0000000000000000
 -0.19780000000000000          0.0000000000000000
 -0.19670000000000001          0.0000000000000000
 -0.19560000000000002         -1.2966836960266959E-016
 -0.19450000000000001         -6.0923956462008823E-016
 -0.19340000000000002         -1.3067481150361919E-015
 -0.19230000000000000         -1.6712339096571242E-015
 -0.19120000000000001         -1.6606872906726241E-015
 -0.19010000000000002         -1.8765485550826990E-015
 -0.18900000000000000         -6.2210281871532885E-016
 -0.18790000000000001          8.7742974100605761E-015
 -0.18680000000000002          3.1447463583926874E-014
 -0.18570000000000000          5.4347992035561066E-014
 -0.18460000000000001          3.9424575935679065E-014
 -0.18350000000000000         -4.6818699226758645E-014
 -0.18240000000000001         -1.7547829779963192E-013
 -0.18130000000000002         -2.3176290530821375E-013
 -0.18020000000000000         -9.1524295195606620E-014
 -0.17910000000000001          2.2933277455880474E-013
 -0.17800000000000002          4.9997067033333287E-013
 -0.17690000000000000          4.1820147063213742E-013
 -0.17580000000000001         -7.9625508389493532E-014
 -0.17470000000000002         -6.3148244229191408E-013
 -0.17360000000000000         -6.6982042742219638E-013
 -0.17250000000000001          2.1721670347293019E-014
 -0.17140000000000000          9.1443812157837590E-013
 -0.17030000000000001          1.0229130910366369E-012
 -0.16920000000000002         -1.7714878229688896E-013
 -0.16810000000000000         -1.9784575453624109E-012
 -0.16700000000000001         -2.7074601241516838E-012
 -0.16589999999999999         -1.0936962056493083E-012
 -0.16480000000000000          2.3262980083926799E-012
 -0.16370000000000001          5.1703090593602230E-012
 -0.16260000000000002          4.9150050349111574E-012
 -0.16150000000000000          1.0961261195582828E-012
 -0.16040000000000001         -3.9522109543388417E-012
 -0.15930000000000000         -6.7078460841418774E-012
 -0.15820000000000001         -5.2502008816845969E-012
 -0.15710000000000002         -8.7355399606622863E-013
 -0.15600000000000000          2.9356699363103367E-012
 -0.15490000000000001          3.3457787321916621E-012
 -0.15379999999999999          4.5243293161391362E-013
 -0.15270000000000000         -2.8560751853812238E-012
 -0.15160000000000001         -3.1252363977968267E-012
 -0.15050000000000002          1.3430627053209743E-012
 -0.14940000000000001          9.7842784221868762E-012
 -0.14830000000000002          1.9870990269899025E-011
 -0.14720000000000000          2.8940233889884759E-011
 -0.14610000000000001          3.4653040853482864E-011
 -0.14500000000000002          3.5460356873073806E-011
 -0.14390000000000000          3.1626680441210198E-011
 -0.14280000000000001          2.6405093389580969E-011
 -0.14169999999999999          2.5677798429213361E-011
 -0.14060000000000000          3.4938382048599337E-011
 -0.13950000000000001          5.4995129977752910E-011
 -0.13840000000000002          7.9873552216724875E-011
 -0.13730000000000001          9.9521009488956480E-011
 -0.13619999999999999          1.0617287604652859E-010
 -0.13510000000000000          9.9815940235448153E-011
 -0.13400000000000001          8.8459475855451331E-011
 -0.13290000000000002          8.3005526063661961E-011
 -0.13180000000000000          9.0819282649867716E-011
 -0.13070000000000001          1.1271904243326247E-010
 -0.12959999999999999          1.4463559516730840E-010
 -0.12850000000000000          1.8117250755178560E-010
 -0.12740000000000001          2.1760666879533375E-010
 -0.12630000000000002          2.4975618795330945E-010
 -0.12520000000000001          2.7407776048704591E-010
 -0.12410000000000000          2.8988958455933300E-010
 -0.12300000000000001          3.0223407110341327E-010
 -0.12190000000000001          3.2160665797142940E-010
 -0.12080000000000000          3.5875397097484552E-010
 -0.11970000000000000          4.1756814672666565E-010
 -0.11860000000000001          4.9186849038207470E-010
 -0.11750000000000001          5.6924270852576342E-010
 -0.11640000000000000          6.3914651349250562E-010
 -0.11530000000000000          6.9881872510890730E-010
 -0.11420000000000001          7.5287998058115591E-010
 -0.11310000000000001          8.0845180550070950E-010
 -0.11200000000000000          8.7126439396456590E-010
 -0.11090000000000001          9.4598495703479557E-010
 -0.10980000000000001          1.0385516890920599E-009
 -0.10870000000000000          1.1557266255124432E-009
 -0.10760000000000000          1.3003838006397928E-009
 -0.10650000000000001          1.4667725922734576E-009
 -0.10540000000000001          1.6416872306024288E-009
 -0.10430000000000000          1.8126368184212538E-009
 -0.10320000000000000          1.9771675408009060E-009
 -0.10210000000000001          2.1455321963514962E-009
 -0.10100000000000001          2.3343342814285961E-009
  -9.9900000000000003E-002     2.5565884964606767E-009
  -9.8799999999999999E-002     2.8163011922544001E-009
  -9.7700000000000009E-002     3.1107918463391115E-009
  -9.6600000000000005E-002     3.4366491874493477E-009
  -9.5500000000000002E-002     3.7927838647533463E-009
  -9.4400000000000012E-002     4.1784971038794083E-009
  -9.3300000000000008E-002     4.5905990120331808E-009
  -9.2200000000000004E-002     5.0246682370413964E-009
  -9.1100000000000000E-002     5.4805151528114493E-009
  -9.0000000000000011E-002     5.9664650997603985E-009
  -8.8900000000000007E-002     6.4973972868642704E-009
  -8.7800000000000003E-002     7.0874661695086161E-009
  -8.6699999999999999E-002     7.7437700696236789E-009
  -8.5600000000000009E-002     8.4662579169503260E-009
  -8.4500000000000006E-002     9.2528384953993736E-009
  -8.3400000000000002E-002     1.0103851089127147E-008
  -8.2299999999999998E-002     1.1021732859717304E-008
  -8.1200000000000008E-002     1.2007833838367787E-008
  -8.0100000000000005E-002     1.3061842274453284E-008
  -7.9000000000000001E-002     1.4186135821603330E-008
  -7.7899999999999997E-002     1.5390938301607093E-008
  -7.6800000000000007E-002     1.6693958215796556E-008
  -7.5700000000000003E-002     1.8113205157987977E-008
  -7.4600000000000000E-002     1.9658914496289981E-008
  -7.3500000000000010E-002     2.1332130728524135E-008
  -7.2399999999999992E-002     2.3131221382755029E-008
  -7.1300000000000002E-002     2.5059716080022554E-008
  -7.0200000000000012E-002     2.7127830648510098E-008
  -6.9099999999999995E-002     2.9346976404553970E-008
  -6.8000000000000005E-002     3.1724258775511771E-008
  -6.6900000000000015E-002     3.4263845094528733E-008
  -6.5799999999999997E-002     3.6974217465512993E-008
  -6.4700000000000008E-002     3.9873203405704771E-008
  -6.3599999999999990E-002     4.2984279247093582E-008
  -6.2500000000000000E-002     4.6326878333502464E-008
  -6.1400000000000010E-002     4.9910347854620341E-008
  -6.0299999999999992E-002     5.3737945648890673E-008
  -5.9200000000000003E-002     5.7817011622773862E-008
  -5.8100000000000013E-002     6.2164573932932399E-008
  -5.6999999999999995E-002     6.6802527953768731E-008
  -5.5900000000000005E-002     7.1747720653547731E-008
  -5.4800000000000015E-002     7.7008216692320275E-008
  -5.3699999999999998E-002     8.2590872807486448E-008
  -5.2600000000000008E-002     8.8512734919277136E-008
  -5.1499999999999990E-002     9.4803937145115924E-008
  -5.0400000000000000E-002     1.0149798868042126E-007
  -4.9300000000000010E-002     1.0861858612543074E-007
  -4.8199999999999993E-002     1.1617659367857414E-007
  -4.7100000000000003E-002     1.2418041706041549E-007
  -4.6000000000000013E-002     1.3264912013255525E-007
  -4.4899999999999995E-002     1.4161385308852914E-007
  -4.3800000000000006E-002     1.5110575191101816E-007
  -4.2699999999999988E-002     1.6114330492200679E-007
  -4.1599999999999998E-002     1.7173360333799792E-007
  -4.0500000000000008E-002     1.8288810110789200E-007
  -3.9399999999999991E-002     1.9463713840650598E-007
  -3.8300000000000001E-002     2.0702765368696419E-007
  -3.7200000000000011E-002     2.2010446798503835E-007
  -3.6099999999999993E-002     2.3389310399579699E-007
  -3.5000000000000003E-002     2.4840156243044476E-007
  -3.3900000000000013E-002     2.6363949245933327E-007
  -3.2799999999999996E-002     2.7963548632214952E-007
  -3.1700000000000006E-002     2.9643442189808411E-007
  -3.0599999999999988E-002     3.1407759593093942E-007
  -2.9499999999999998E-002     3.3258626785936940E-007
  -2.8400000000000009E-002     3.5196654835090158E-007
  -2.7299999999999991E-002     3.7223173876554938E-007
  -2.6200000000000001E-002     3.9341958313343639E-007
  -2.5100000000000011E-002     4.1558584484846506E-007
  -2.3999999999999994E-002     4.3877960820282169E-007
  -2.2900000000000004E-002     4.6302398004627321E-007
  -2.1800000000000014E-002     4.8832225729711354E-007
  -2.0699999999999996E-002     5.1468271067278692E-007
  -1.9600000000000006E-002     5.4213751354836859E-007
  -1.8499999999999989E-002     5.7073657444561832E-007
  -1.7399999999999999E-002     6.0052303751945146E-007
  -1.6300000000000009E-002     6.3151497897706577E-007
  -1.5199999999999991E-002     6.6371302409606869E-007
  -1.4100000000000001E-002     6.9712581307612709E-007
  -1.3000000000000012E-002     7.3178688353436883E-007
  -1.1899999999999994E-002     7.6774591661887825E-007
  -1.0800000000000004E-002     8.0504332800046541E-007
  -9.6999999999999864E-003     8.4369304431675118E-007
  -8.5999999999999965E-003     8.8369199602311710E-007
  -7.5000000000000067E-003     9.2504473059307202E-007
  -6.3999999999999890E-003     9.6777762337296735E-007
  -5.2999999999999992E-003     1.0119277931153192E-006
  -4.2000000000000093E-003     1.0575183750916040E-006
  -3.0999999999999917E-003     1.1045472092519049E-006
  -2.0000000000000018E-003     1.1530001984283444E-006
  -9.0000000000001190E-004     1.2028771152472473E-006
   2.0000000000000573E-004     1.2542022886918858E-006
   1.2999999999999956E-003     1.3070088016320369E-006
   2.4000000000000132E-003     1.3613115470434423E-006
   3.5000000000000031E-003     1.4170973372529261E-006
   4.5999999999999930E-003     1.4743409337825142E-006
   5.7000000000000106E-003     1.5330303995142458E-006
   6.8000000000000005E-003     1.5931747157083009E-006
   7.8999999999999904E-003     1.6547869563510176E-006
   9.0000000000000080E-003     1.7178590496769175E-006
   1.0099999999999998E-002     1.7823568896346842E-006
   1.1199999999999988E-002     1.8482411405784660E-006
   1.2300000000000005E-002     1.9154920209984994E-006
   1.3399999999999995E-002     1.9841129414999159E-006
   1.4500000000000013E-002     2.0541087906167377E-006
   1.5600000000000003E-002     2.1254575131024467E-006
   1.6699999999999993E-002     2.1981072677590419E-006
   1.7800000000000010E-002     2.2719989374309080E-006
   1.8900000000000000E-002     2.3470936412195442E-006
   1.9999999999999990E-002     2.4233756903413450E-006
   2.1100000000000008E-002     2.5008284865180030E-006
   2.2199999999999998E-002     2.5794108751142630E-006
   2.3300000000000015E-002     2.6590544166538166E-006
   2.4400000000000005E-002     2.7396879431762500E-006
   2.5499999999999995E-002     2.8212618872203166E-006
   2.6600000000000013E-002     2.9037494186923141E-006
   2.7700000000000002E-002     2.9871209790144349E-006
   2.8799999999999992E-002     3.0713217711308971E-006
   2.9900000000000010E-002     3.1562681215291377E-006
   3.1000000000000000E-002     3.2418738555861637E-006
   3.2099999999999990E-002     3.3280734896834474E-006
   3.3200000000000007E-002     3.4148206395911984E-006
   3.4299999999999997E-002     3.5020671020902228E-006
   3.5400000000000015E-002     3.5897423913411330E-006
   3.6500000000000005E-002     3.6777560126211029E-006
   3.7599999999999995E-002     3.7660197449440602E-006
   3.8700000000000012E-002     3.8544662857020739E-006
   3.9800000000000002E-002     3.9430437936971430E-006
   4.0899999999999992E-002     4.0316922422789503E-006
   4.2000000000000010E-002     4.1203284126822837E-006
   4.3099999999999999E-002     4.2088527152372990E-006
   4.4200000000000017E-002     4.2971723814844154E-006
   4.5300000000000007E-002     4.3852155613421928E-006
   4.6399999999999997E-002     4.4729235924023669E-006
   4.7500000000000014E-002     4.5602305362990592E-006
   4.8600000000000004E-002     4.6470490815408994E-006
   4.9699999999999994E-002     4.7332810027000960E-006
   5.0800000000000012E-002     4.8188412620220333E-006
   5.1900000000000002E-002     4.9036666496249381E-006
   5.2999999999999992E-002     4.9877053243108094E-006
   5.4099999999999981E-002     5.0708940761978738E-006
   5.5200000000000027E-002     5.1531460485421121E-006
   5.6300000000000017E-002     5.2343648349051364E-006
   5.7400000000000007E-002     5.3144694902584888E-006
   5.8499999999999996E-002     5.3934018069412559E-006
   5.9599999999999986E-002     5.4711163102183491E-006
   6.0700000000000032E-002     5.5475566114182584E-006
   6.1800000000000022E-002     5.6226472224807367E-006
   6.2900000000000011E-002     5.6963067436299752E-006
   6.4000000000000001E-002     5.7684719649842009E-006
   6.5099999999999991E-002     5.8391060520079918E-006
   6.6199999999999981E-002     5.9081821746076457E-006
   6.7300000000000026E-002     5.9756616792583372E-006
   6.8400000000000016E-002     6.0414813560782932E-006
   6.9500000000000006E-002     6.1055725382175297E-006
   7.0599999999999996E-002     6.1678802012465894E-006
   7.1699999999999986E-002     6.2283779698191211E-006
   7.2800000000000031E-002     6.2870517467672471E-006
   7.3900000000000021E-002     6.3438810684601776E-006
   7.5000000000000011E-002     6.3988291003624909E-006
   7.6100000000000001E-002     6.4518526414758526E-006
   7.7199999999999991E-002     6.5029266806959640E-006
   7.8299999999999981E-002     6.5520489442860708E-006
   7.9400000000000026E-002     6.5992257987090852E-006
   8.0500000000000016E-002     6.6444536059862003E-006
   8.1600000000000006E-002     6.6877105382445734E-006
   8.2699999999999996E-002     6.7289724938746076E-006
   8.3799999999999986E-002     6.7682299231819343E-006
   8.4900000000000031E-002     6.8054978328291327E-006
   8.6000000000000021E-002     6.8408012339205015E-006
   8.7100000000000011E-002     6.8741555878659710E-006
   8.8200000000000001E-002     6.9055595304234885E-006
   8.9299999999999990E-002     6.9350107878562994E-006
   9.0399999999999980E-002     6.9625239120796323E-006
   9.1500000000000026E-002     6.9881371018709615E-006
   9.2600000000000016E-002     7.0118944677233230E-006
   9.3700000000000006E-002     7.0338282966986299E-006
   9.4799999999999995E-002     7.0539549597015139E-006
   9.5899999999999985E-002     7.0722899181419052E-006
   9.7000000000000031E-002     7.0888640948396642E-006
   9.8100000000000021E-002     7.1037243287719321E-006
   9.9200000000000010E-002     7.1169192779052537E-006
  0.10030000000000000          7.1284844125329982E-006
  0.10139999999999999          7.1384447437594645E-006
  0.10249999999999998          7.1468298301624600E-006
  0.10360000000000003          7.1536915129399858E-006
  0.10470000000000002          7.1591002779314294E-006
  0.10580000000000001          7.1631238824920729E-006
  0.10690000000000000          7.1658091655990575E-006
  0.10799999999999998          7.1671865953248926E-006
  0.10910000000000003          7.1672911872155964E-006
  0.11020000000000002          7.1661738729744684E-006
  0.11130000000000001          7.1639015004620887E-006
  0.11240000000000000          7.1605336415814236E-006
  0.11349999999999999          7.1561098593520001E-006
  0.11460000000000004          7.1506574386148714E-006
  0.11570000000000003          7.1442177613789681E-006
  0.11680000000000001          7.1368576755048707E-006
  0.11790000000000000          7.1286608545051422E-006
  0.11899999999999999          7.1197014221979771E-006
  0.12009999999999998          7.1100234890764114E-006
  0.12120000000000003          7.0996502472553402E-006
  0.12230000000000002          7.0886103458178695E-006
  0.12340000000000001          7.0769542617199477E-006
  0.12450000000000000          7.0647506618115585E-006
  0.12559999999999999          7.0520586632483173E-006
  0.12670000000000003          7.0389100983447861E-006
  0.12780000000000002          7.0253204285108950E-006
  0.12890000000000001          7.0113187575771008E-006
  0.13000000000000000          6.9969646574463695E-006
  0.13109999999999999          6.9823345256736502E-006
  0.13219999999999998          6.9674915721407160E-006
  0.13330000000000003          6.9524639911833219E-006
  0.13440000000000002          6.9372590587590821E-006
  0.13550000000000001          6.9218917815305758E-006
  0.13660000000000000          6.9064017225173302E-006
  0.13769999999999999          6.8908429966541007E-006
  0.13880000000000003          6.8752578954445198E-006
  0.13990000000000002          6.8596600613091141E-006
  0.14100000000000001          6.8440490395005327E-006
  0.14210000000000000          6.8284380176919512E-006
  0.14319999999999999          6.8128697421343531E-006
  0.14429999999999998          6.7974033299833536E-006
  0.14540000000000003          6.7820810727425851E-006
  0.14650000000000002          6.7669097916223109E-006
  0.14760000000000001          6.7518772084440570E-006
  0.14870000000000000          6.7369846874498762E-006
  0.14979999999999999          6.7222622419649269E-006
  0.15090000000000003          6.7077526182401925E-006
  0.15200000000000002          6.6934771894011647E-006
  0.15310000000000001          6.6794268605008256E-006
  0.15420000000000000          6.6655802584136836E-006
  0.15529999999999999          6.6519369283923879E-006
  0.15639999999999998          6.6385300669935532E-006
  0.15750000000000003          6.6254033299628645E-006
  0.15860000000000002          6.6125767261837609E-006
  0.15970000000000001          6.6000357037410140E-006
  0.16080000000000000          6.5877538872882724E-006
  0.16189999999999999          6.5757276388467290E-006
  0.16300000000000003          6.5639860622468404E-006
  0.16410000000000002          6.5525618992978707E-006
  0.16520000000000001          6.5414578784839250E-006
  0.16630000000000000          6.5306408032483887E-006
  0.16739999999999999          6.5200738390558399E-006
  0.16850000000000004          6.5097519836854190E-006
  0.16960000000000003          6.4997084336937405E-006
  0.17070000000000002          6.4899800236162264E-006
  0.17180000000000001          6.4805726651684381E-006
  0.17290000000000000          6.4714536165411118E-006
  0.17399999999999999          6.4625869526935276E-006
  0.17510000000000003          6.4539713093836326E-006
  0.17620000000000002          6.4456389736733399E-006
  0.17730000000000001          6.4376208683825098E-006
  0.17840000000000000          6.4299069890694227E-006
  0.17949999999999999          6.4224523157463409E-006
  0.18060000000000004          6.4152122831728775E-006
  0.18170000000000003          6.4081837081175763E-006
  0.18280000000000002          6.4014006966317538E-006
  0.18390000000000001          6.3948950810299721E-006
  0.18500000000000000          6.3886609495966695E-006
  0.18609999999999999          6.3826610130490735E-006
  0.18720000000000003          6.3768666223040782E-006
  0.18830000000000002          6.3712850533192977E-006
  0.18940000000000001          6.3659504121460486E-006
  0.19050000000000000          6.3608813434257172E-006
  0.19159999999999999          6.3560573835275136E-006
  0.19270000000000004          6.3514289649901912E-006
  0.19380000000000003          6.3469624365097843E-006
  0.19490000000000002          6.3426673477806617E-006
  0.19600000000000001          6.3385796238435432E-006
  0.19710000000000000          6.3347188188345172E-006
  0.19819999999999999          6.3310690165963024E-006
  0.19930000000000003          6.3275961110775825E-006
  0.20040000000000002          6.3242869146051817E-006
  0.20150000000000001          6.3211632550519425E-006
  0.20260000000000000          6.3182560552377254E-006
  0.20369999999999999          6.3155671341519337E-006
  0.20480000000000004          6.3130601120064966E-006
  0.20590000000000003          6.3106908783083782E-006
  0.20700000000000002          6.3084494286158588E-006
  0.20810000000000001          6.3063698689802550E-006
  0.20920000000000000          6.3044922171684448E-006
  0.21029999999999999          6.3028210206539370E-006
  0.21140000000000003          6.3013217186380643E-006
  0.21250000000000002          6.2999533838592470E-006
  0.21360000000000001          6.2987123783386778E-006
  0.21470000000000000          6.2976355366117787E-006
  0.21579999999999999          6.2967596932139713E-006
  0.21690000000000004          6.2960830291558523E-006
  0.21800000000000003          6.2955655266705435E-006
  0.21910000000000002          6.2951698964752723E-006
  0.22020000000000001          6.2948988670541439E-006
  0.22130000000000000          6.2947915466793347E-006
  0.22239999999999999          6.2948815866548102E-006
  0.22350000000000003          6.2951630752650090E-006
  0.22460000000000002          6.2955964494904038E-006
  0.22570000000000001          6.2961498770164326E-006
  0.22680000000000000          6.2968306338007096E-006
  0.22789999999999999          6.2976769186207093E-006
  0.22900000000000004          6.2987178353068884E-006
  0.23010000000000003          6.2999451984069310E-006
  0.23120000000000002          6.3013262661115732E-006
  0.23230000000000001          6.3028410295373760E-006
  0.23340000000000000          6.3045013121154625E-006
  0.23450000000000004          6.3063371271709912E-006
  0.23560000000000003          6.3083621171244886E-006
  0.23670000000000002          6.3105571825872175E-006
  0.23780000000000001          6.3128914007393178E-006
  0.23890000000000000          6.3153579503705259E-006
  0.23999999999999999          6.3179795688483864E-006
  0.24110000000000004          6.3207867242454085E-006
  0.24220000000000003          6.3237848735298030E-006
  0.24330000000000002          6.3269476413552184E-006
  0.24440000000000001          6.3302481976279523E-006
  0.24550000000000000          6.3336869970953558E-006
  0.24660000000000004          6.3372931435878854E-006
  0.24770000000000003          6.3410939219465945E-006
  0.24880000000000002          6.3450852394453250E-006
  0.24990000000000001          6.3492307162960060E-006
  0.25100000000000000          6.3535017034155317E-006
  0.25209999999999999          6.3579045672668144E-006
  0.25320000000000004          6.3624752328905743E-006
  0.25430000000000003          6.3672405303805135E-006
  0.25540000000000002          6.3721922742843162E-006
  0.25650000000000001          6.3772918110771570E-006
  0.25760000000000000          6.3825123106653336E-006
  0.25870000000000004          6.3878637774905656E-006
  0.25980000000000003          6.3933835008356255E-006
  0.26090000000000002          6.3990960370574612E-006
  0.26200000000000001          6.4049891079775989E-006
  0.26310000000000000          6.4110263338079676E-006
  0.26419999999999999          6.4171817939495668E-006
  0.26530000000000004          6.4234618548653089E-006
  0.26640000000000003          6.4298928919015452E-006
  0.26750000000000002          6.4364885474788025E-006
  0.26860000000000001          6.4432365434186067E-006
  0.26970000000000000          6.4501123233640101E-006
  0.27080000000000004          6.4571045186312404E-006
  0.27190000000000003          6.4642240431567188E-006
  0.27300000000000002          6.4714881773397792E-006
  0.27410000000000001          6.4788996496645268E-006
  0.27520000000000000          6.4864420892263297E-006
  0.27629999999999999          6.4940991251205560E-006
  0.27740000000000004          6.5018698478525039E-006
  0.27850000000000003          6.5097651713585947E-006
  0.27960000000000002          6.5177891883649863E-006
  0.28070000000000001          6.5259232542302925E-006
  0.28179999999999999          6.5341419031028636E-006
  0.28290000000000004          6.5424378590250853E-006
  0.28400000000000003          6.5508279476489406E-006
  0.28510000000000002          6.5593358158366755E-006
  0.28620000000000001          6.5679646468197461E-006
  0.28730000000000000          6.5766885199991520E-006
  0.28840000000000005          6.5854751483129803E-006
  0.28950000000000004          6.5943154368142132E-006
  0.29060000000000002          6.6032280301442370E-006
  0.29170000000000001          6.6122352109232452E-006
  0.29280000000000000          6.6213324316777289E-006
  0.29389999999999999          6.6304887695878278E-006
  0.29500000000000004          6.6396737565810326E-006
  0.29610000000000003          6.6488823904364835E-006
  0.29720000000000002          6.6581346800376195E-006
  0.29830000000000001          6.6674497247731779E-006
  0.29940000000000000          6.6768225224222988E-006
  0.30050000000000004          6.6862276071333326E-006
  0.30160000000000003          6.6956426962860860E-006
  0.30270000000000002          6.7050655161438044E-006
  0.30380000000000001          6.7145083448849618E-006
  0.30490000000000000          6.7239730014989618E-006
  0.30599999999999999          6.7334422055864707E-006
  0.30709999999999998          6.7428941292746458E-006
  0.30819999999999997          6.7523233155952767E-006
  0.30930000000000007          6.7617415879794862E-006
  0.31040000000000006          6.7711562223848887E-006
  0.31150000000000005          6.7805517574015539E-006
  0.31260000000000004          6.7898945417255163E-006
  0.31370000000000003          6.7991645664733369E-006
  0.31480000000000002          6.8083745645708404E-006
  0.31590000000000001          6.8175550040905364E-006
  0.31700000000000000          6.8267172537161969E-006
  0.31809999999999999          6.8358331191120669E-006
  0.31919999999999998          6.8448539423116017E-006
  0.32029999999999997          6.8537528932210989E-006
  0.32140000000000007          6.8625481617345940E-006
  0.32250000000000006          6.8712761276401579E-006
  0.32360000000000005          6.8799445216427557E-006
  0.32470000000000004          6.8885133259755094E-006
  0.32580000000000003          6.8969275162089616E-006
  0.32690000000000002          6.9051666287123226E-006
  0.32800000000000001          6.9132647695369087E-006
  0.32910000000000000          6.9212692324072123E-006
  0.33019999999999999          6.9291872932808474E-006
  0.33129999999999998          6.9369734774227254E-006
  0.33239999999999997          6.9445691224245820E-006
  0.33350000000000007          6.9519569478870835E-006
  0.33460000000000006          6.9591710598615464E-006
  0.33570000000000005          6.9662473833886907E-006
  0.33680000000000004          6.9731754592794459E-006
  0.33790000000000003          6.9799007178517058E-006
  0.33900000000000002          6.9863740463915747E-006
  0.34010000000000001          6.9926013566146139E-006
  0.34120000000000000          6.9986349444661755E-006
  0.34229999999999999          7.0045130087237339E-006
  0.34339999999999998          7.0102137215144467E-006
  0.34449999999999997          7.0156697802303825E-006
  0.34560000000000007          7.0208370743785053E-006
  0.34670000000000006          7.0257333391054999E-006
  0.34780000000000005          7.0304149630828761E-006
  0.34890000000000004          7.0349055931728799E-006
