 -0.20000000000000001          0.0000000000000000
 -0.19890000000000002          0.0000000000000000
 -0.19780000000000000          0.0000000000000000
 -0.19670000000000001          0.0000000000000000
 -0.19560000000000002          0.0000000000000000
 -0.19450000000000001          2.0736963007367500E-018
 -0.19340000000000002          2.1219742008800399E-017
 -0.19230000000000000          8.4209977442993209E-017
 -0.19120000000000001          1.5372451558627554E-016
 -0.19010000000000002          2.2770234164388171E-017
 -0.18900000000000000         -5.1505103613262693E-016
 -0.18790000000000001         -1.0501308015777922E-015
 -0.18680000000000002         -2.9889712183927566E-016
 -0.18570000000000000          2.3619117746283324E-015
 -0.18460000000000001          4.1594713310060157E-015
 -0.18350000000000000         -3.7918141920910040E-016
 -0.18240000000000001         -1.1127372725224915E-014
 -0.18130000000000002         -1.3184380379170722E-014
 -0.18020000000000000          1.3709312107572629E-014
 -0.17910000000000001          5.8050278180319520E-014
 -0.17800000000000002          4.7905564470830317E-014
 -0.17690000000000000         -9.5554688022813500E-014
 -0.17580000000000001         -3.0437374083820690E-013
 -0.17470000000000002         -2.6210096918354020E-013
 -0.17360000000000000          3.7532273838326857E-013
 -0.17250000000000001          1.3834438152351969E-012
 -0.17140000000000000          1.5424693857249427E-012
 -0.17030000000000001         -6.6247512033393297E-013
 -0.16920000000000002         -4.9430190843247068E-012
 -0.16810000000000000         -7.3767771405219840E-012
 -0.16700000000000001         -2.0051516870511765E-012
 -0.16589999999999999          1.2715896911819069E-011
 -0.16480000000000000          2.6862609359135092E-011
 -0.16370000000000001          2.0791245461393437E-011
 -0.16260000000000002         -1.8159907605452830E-011
 -0.16150000000000000         -7.2566369579973866E-011
 -0.16040000000000001         -8.9959567572961419E-011
 -0.15930000000000000         -1.7588985823380199E-011
 -0.15820000000000001          1.3452611247188884E-010
 -0.15710000000000002          2.5722018959228876E-010
 -0.15600000000000000          1.9474287460408135E-010
 -0.15490000000000001         -1.1393448684504648E-010
 -0.15379999999999999         -5.0779075388973638E-010
 -0.15270000000000000         -6.3993588206301411E-010
 -0.15160000000000001         -2.3164063722713735E-010
 -0.15050000000000002          6.0881505392629265E-010
 -0.14940000000000001          1.3024986644794012E-009
 -0.14830000000000002          1.1475341787914317E-009
 -0.14720000000000000         -6.3716358578158605E-011
 -0.14610000000000001         -1.6606716002343092E-009
 -0.14500000000000002         -2.4051807212543963E-009
 -0.14390000000000000         -1.4333196851623597E-009
 -0.14280000000000001          8.7405571669307847E-010
 -0.14169999999999999          2.9329740858230480E-009
 -0.14060000000000000          3.0964368846753132E-009
 -0.13950000000000001          1.0672414063606084E-009
 -0.13840000000000002         -1.6858677787112697E-009
 -0.13730000000000001         -3.0663265260244543E-009
 -0.13619999999999999         -2.1840274033735341E-009
 -0.13510000000000000         -1.9283052932195233E-010
 -0.13400000000000001          8.3456924704350399E-010
 -0.13290000000000002          9.4348785728559648E-011
 -0.13180000000000000         -8.9028906469224012E-010
 -0.13070000000000001          2.4665988695993235E-010
 -0.12959999999999999          3.7709142475250701E-009
 -0.12850000000000000          6.4703669089283267E-009
 -0.12740000000000001          4.0088852237829542E-009
 -0.12630000000000002         -4.3165968577341118E-009
 -0.12520000000000001         -1.2871585575169320E-008
 -0.12410000000000000         -1.2832262363815516E-008
 -0.12300000000000001         -1.2574190300096433E-010
 -0.12190000000000001          1.8221470554635744E-008
 -0.12080000000000000          2.6315520429420758E-008
 -0.11970000000000000          1.1183050929730598E-008
 -0.11860000000000001         -2.3627091394473609E-008
 -0.11750000000000001         -5.4474284638672543E-008
 -0.11640000000000000         -5.0642597670957912E-008
 -0.11530000000000000          1.8080594799130267E-009
 -0.11420000000000001          8.1725993084091897E-008
 -0.11310000000000001          1.3652740449288103E-007
 -0.11200000000000000          1.1165085567199640E-007
 -0.11090000000000001         -8.7198275267041936E-009
 -0.10980000000000001         -1.7620827463815658E-007
 -0.10870000000000000         -2.9076687724227668E-007
 -0.10760000000000000         -2.5352920829391223E-007
 -0.10650000000000001         -3.5396986675095832E-008
 -0.10540000000000001          2.8078559921596025E-007
 -0.10430000000000000          5.2083777291045408E-007
 -0.10320000000000000          5.0721536126729916E-007
 -0.10210000000000001          1.7482604164342774E-007
 -0.10100000000000001         -3.5494946359904134E-007
  -9.9900000000000003E-002    -8.0283939496439416E-007
  -9.8799999999999999E-002    -8.7066115384004661E-007
  -9.7700000000000009E-002    -4.2610170680745796E-007
  -9.6600000000000005E-002     3.7730117696810339E-007
  -9.5500000000000002E-002     1.1365673344698735E-006
  -9.4400000000000012E-002     1.3985594478072016E-006
  -9.3300000000000008E-002     9.2322858336046920E-007
  -9.2200000000000004E-002    -1.4505009460208385E-007
  -9.1100000000000000E-002    -1.3164475376470364E-006
  -9.0000000000000011E-002    -2.0040713479829719E-006
  -8.8900000000000007E-002    -1.8496755274099996E-006
  -8.7800000000000003E-002    -9.3603119921681355E-007
  -8.6699999999999999E-002     2.4754257310632966E-007
  -8.5600000000000009E-002     1.0763859563667211E-006
  -8.4500000000000006E-002     1.1446844609963591E-006
  -8.3400000000000002E-002     4.9409783287046594E-007
  -8.2299999999999998E-002    -4.2094438867934514E-007
  -8.1200000000000008E-002    -1.0130476084668771E-006
  -8.0100000000000005E-002    -9.1991984163541929E-007
  -7.9000000000000001E-002    -2.2326649684600852E-007
  -7.7899999999999997E-002     6.0752017816412263E-007
  -7.6800000000000007E-002     1.0148221463168738E-006
  -7.5700000000000003E-002     7.0942746788205113E-007
  -7.4600000000000000E-002    -1.4368482936788496E-007
  -7.3500000000000010E-002    -1.0351453738621785E-006
  -7.2399999999999992E-002    -1.4512852430925705E-006
  -7.1300000000000002E-002    -1.2220370990689844E-006
  -7.0200000000000012E-002    -6.3823188156675315E-007
  -6.9099999999999995E-002    -2.4579074420216784E-007
  -6.8000000000000005E-002    -4.4397376086635632E-007
  -6.6900000000000015E-002    -1.1620755913099856E-006
  -6.5799999999999997E-002    -1.8559837826614967E-006
  -6.4700000000000008E-002    -1.8616470924825990E-006
  -6.3599999999999990E-002    -8.9442056605548714E-007
  -6.2500000000000000E-002     6.4264349930454046E-007
  -6.1400000000000010E-002     1.7865028212327161E-006
  -6.0299999999999992E-002     1.5568724620607099E-006
  -5.9200000000000003E-002    -3.8708068927917338E-007
  -5.8100000000000013E-002    -3.3903502298926469E-006
  -5.6999999999999995E-002    -6.0204488363524433E-006
  -5.5900000000000005E-002    -6.8054614530410618E-006
  -5.4800000000000015E-002    -5.1064944273093715E-006
  -5.3699999999999998E-002    -1.6101429309856030E-006
  -5.2600000000000008E-002     1.8991344177266001E-006
  -5.1499999999999990E-002     3.4297497677471256E-006
  -5.0400000000000000E-002     1.8778550838760566E-006
  -4.9300000000000010E-002    -2.2920110041013686E-006
  -4.8199999999999993E-002    -7.1994118115981109E-006
  -4.7100000000000003E-002    -1.0492926776350942E-005
  -4.6000000000000013E-002    -1.0588160876068287E-005
  -4.4899999999999995E-002    -7.5214056778349914E-006
  -4.3800000000000006E-002    -2.9483014714060118E-006
  -4.2699999999999988E-002     7.0508133376279147E-007
  -4.1599999999999998E-002     1.4742726079930435E-006
  -4.0500000000000008E-002    -1.1842831781905261E-006
  -3.9399999999999991E-002    -6.1838741203246173E-006
  -3.8300000000000001E-002    -1.1415695553296246E-005
  -3.7200000000000011E-002    -1.4820322576269973E-005
  -3.6099999999999993E-002    -1.5362324120360427E-005
  -3.5000000000000003E-002    -1.3430113540380262E-005
  -3.3900000000000013E-002    -1.0502502846065909E-005
  -3.2799999999999996E-002    -8.3055028881062753E-006
  -3.1700000000000006E-002    -7.9418032328248955E-006
  -3.0599999999999988E-002    -9.4628212536917999E-006
  -2.9499999999999998E-002    -1.2078523468517233E-005
  -2.8400000000000009E-002    -1.4809712411079090E-005
  -2.7299999999999991E-002    -1.7117123206844553E-005
  -2.6200000000000001E-002    -1.9094959498033859E-005
  -2.5100000000000011E-002    -2.1139621821930632E-005
  -2.3999999999999994E-002    -2.3410751964547671E-005
  -2.2900000000000004E-002    -2.5543435185682029E-005
  -2.1800000000000014E-002    -2.6869607609114610E-005
  -2.0699999999999996E-002    -2.6996624001185410E-005
  -1.9600000000000006E-002    -2.6278583391103894E-005
  -1.8499999999999989E-002    -2.5792662199819461E-005
  -1.7399999999999999E-002    -2.6784244255395606E-005
  -1.6300000000000009E-002    -2.9956672733533196E-005
  -1.5199999999999991E-002    -3.5055592888966203E-005
  -1.4100000000000001E-002    -4.1001010686159134E-005
  -1.3000000000000012E-002    -4.6442717575700954E-005
  -1.1899999999999994E-002    -5.0371345423627645E-005
  -1.0800000000000004E-002    -5.2489267545752227E-005
  -9.6999999999999864E-003    -5.3224459406919777E-005
  -8.5999999999999965E-003    -5.3478659538086504E-005
  -7.5000000000000067E-003    -5.4275871661957353E-005
  -6.3999999999999890E-003    -5.6431599659845233E-005
  -5.2999999999999992E-003    -6.0318663599900901E-005
  -4.2000000000000093E-003    -6.5803236793726683E-005
  -3.0999999999999917E-003    -7.2355134761892259E-005
  -2.0000000000000018E-003    -7.9272278526332229E-005
  -9.0000000000001190E-004    -8.5909850895404816E-005
   2.0000000000000573E-004    -9.1827438154723495E-005
   1.2999999999999956E-003    -9.6813106210902333E-005
   2.4000000000000132E-003    -1.0087657574331388E-004
   3.5000000000000031E-003    -1.0428612586110830E-004
   4.5999999999999930E-003    -1.0759157157735899E-004
   5.7000000000000106E-003    -1.1156094842590392E-004
   6.8000000000000005E-003    -1.1693192936945707E-004
   7.8999999999999904E-003    -1.2411158240865916E-004
   9.0000000000000080E-003    -1.3294800010044128E-004
   1.0099999999999998E-002    -1.4275578723754734E-004
   1.1199999999999988E-002    -1.5259510837495327E-004
   1.2300000000000005E-002    -1.6161316307261586E-004
   1.3399999999999995E-002    -1.6936473548412323E-004
   1.4500000000000013E-002    -1.7592647054698318E-004
   1.5600000000000003E-002    -1.8188224930781871E-004
   1.6699999999999993E-002    -1.8808094318956137E-004
   1.7800000000000010E-002    -1.9534400780685246E-004
   1.8900000000000000E-002    -2.0407157717272639E-004
   1.9999999999999990E-002    -2.1413945069070905E-004
   2.1100000000000008E-002    -2.2508655092678964E-004
   2.2199999999999998E-002    -2.3644858447369188E-004
   2.3300000000000015E-002    -2.4799958919174969E-004
   2.4400000000000005E-002    -2.5966658722609282E-004
   2.5499999999999995E-002    -2.7124246116727591E-004
   2.6600000000000013E-002    -2.8225319692865014E-004
   2.7700000000000002E-002    -2.9223831370472908E-004
   2.8799999999999992E-002    -3.0128442449495196E-004
   2.9900000000000010E-002    -3.1025364296510816E-004
   3.1000000000000000E-002    -3.2033844036050141E-004
   3.2099999999999990E-002    -3.3217566669918597E-004
   3.3200000000000007E-002    -3.4532917197793722E-004
   3.4299999999999997E-002    -3.5875916364602745E-004
   3.5400000000000015E-002    -3.7179808714427054E-004
   3.6500000000000005E-002    -3.8470045547001064E-004
   3.7599999999999995E-002    -3.9826700231060386E-004
   3.8700000000000012E-002    -4.1253204108215868E-004
   3.9800000000000002E-002    -4.2620301246643066E-004
   4.0899999999999992E-002    -4.3763150461018085E-004
   4.2000000000000010E-002    -4.4642100692726672E-004
   4.3099999999999999E-002    -4.5434111962094903E-004
   4.4200000000000017E-002    -4.6433098032139242E-004
   4.5300000000000007E-002    -4.7804220230318606E-004
   4.6399999999999997E-002    -4.9438787391409278E-004
   4.7500000000000014E-002    -5.1036593504250050E-004
   4.8600000000000004E-002    -5.2373716607689857E-004
   4.9699999999999994E-002    -5.3459196351468563E-004
   5.0800000000000012E-002    -5.4510083282366395E-004
   5.1900000000000002E-002    -5.5689597502350807E-004
   5.2999999999999992E-002    -5.6917534675449133E-004
   5.4099999999999981E-002    -5.7959154946729541E-004
   5.5200000000000027E-002    -5.8701075613498688E-004
   5.6300000000000017E-002    -5.9319293359294534E-004
   5.7400000000000007E-002    -6.0162390582263470E-004
   5.8499999999999996E-002    -6.1405246378853917E-004
   5.9599999999999986E-002    -6.2831753166392446E-004
   6.0700000000000032E-002    -6.4014387317001820E-004
   6.1800000000000022E-002    -6.4671668224036694E-004
   6.2900000000000011E-002    -6.4981455216184258E-004
   6.4000000000000001E-002    -6.5421540057286620E-004
   6.5099999999999991E-002    -6.6289055394008756E-004
   6.6199999999999981E-002    -6.7392567871138453E-004
   6.7300000000000026E-002    -6.8190548336133361E-004
   6.8400000000000016E-002    -6.8347883643582463E-004
   6.9500000000000006E-002    -6.8062602076679468E-004
   7.0599999999999996E-002    -6.7937816493213177E-004
   7.1699999999999986E-002    -6.8394356640055776E-004
   7.2800000000000031E-002    -6.9262686884030700E-004
   7.3900000000000021E-002    -6.9900613743811846E-004
   7.5000000000000011E-002    -6.9834158057346940E-004
   7.6100000000000001E-002    -6.9217116106301546E-004
   7.7199999999999991E-002    -6.8690039915964007E-004
   7.8299999999999981E-002    -6.8715628003701568E-004
   7.9400000000000026E-002    -6.9077679654583335E-004
   8.0500000000000016E-002    -6.9086364237591624E-004
   8.1600000000000006E-002    -6.8228255258873105E-004
   8.2699999999999996E-002    -6.6764495568349957E-004
   8.3799999999999986E-002    -6.5508164698258042E-004
   8.4900000000000031E-002    -6.5071968128904700E-004
   8.6000000000000021E-002    -6.5233645727857947E-004
   8.7100000000000011E-002    -6.5140146762132645E-004
   8.8200000000000001E-002    -6.4081477466970682E-004
   8.9299999999999990E-002    -6.2218960374593735E-004
   9.0399999999999980E-002    -6.0380127979442477E-004
   9.1500000000000026E-002    -5.9279508423060179E-004
   9.2600000000000016E-002    -5.8771693147718906E-004
   9.3700000000000006E-002    -5.8006722247228026E-004
   9.4799999999999995E-002    -5.6294840760529041E-004
   9.5899999999999985E-002    -5.3805514471605420E-004
   9.7000000000000031E-002    -5.1438796799629927E-004
   9.8100000000000021E-002    -4.9948814557865262E-004
   9.9200000000000010E-002    -4.9186550313606858E-004
  0.10030000000000000         -4.8227171646431088E-004
  0.10139999999999999         -4.6260122326202691E-004
  0.10249999999999998         -4.3338391697034240E-004
  0.10360000000000003         -4.0431128581985831E-004
  0.10470000000000002         -3.8375103031285107E-004
  0.10580000000000001         -3.7164709647186100E-004
  0.10690000000000000         -3.5852135624736547E-004
  0.10799999999999998         -3.3547269413247705E-004
  0.10910000000000003         -3.0291336588561535E-004
  0.11020000000000002         -2.7009725454263389E-004
  0.11130000000000001         -2.4597256560809910E-004
  0.11240000000000000         -2.3101126134861261E-004
  0.11349999999999999         -2.1630314586218446E-004
  0.11460000000000004         -1.9264320144429803E-004
  0.11570000000000003         -1.5953411639202386E-004
  0.11680000000000001         -1.2616462481673807E-004
  0.11790000000000000         -1.0086080874316394E-004
  0.11899999999999999         -8.3575650933198631E-005
  0.12009999999999998         -6.5925196395255625E-005
  0.12120000000000003         -3.9333761378657073E-005
  0.12230000000000002         -3.9713536352792289E-006
  0.12340000000000001          3.1085426599020138E-005
  0.12450000000000000          5.7383891544304788E-005
  0.12559999999999999          7.4560535722412169E-005
  0.12670000000000003          9.0813067799899727E-005
  0.12780000000000002          1.1423247633501887E-004
  0.12890000000000001          1.4621489390265197E-004
  0.13000000000000000          1.7966215091291815E-004
  0.13109999999999999          2.0643262541852891E-004
  0.13219999999999998          2.2584271209780127E-004
  0.13330000000000003          2.4346241843886673E-004
  0.13440000000000002          2.6633930974639952E-004
  0.13550000000000001          2.9589477344416082E-004
  0.13660000000000000          3.2660405850037932E-004
  0.13769999999999999          3.5107237636111677E-004
  0.13880000000000003          3.6898686084896326E-004
  0.13990000000000002          3.8479632348753512E-004
  0.14100000000000001          4.0494604036211967E-004
  0.14210000000000000          4.3116495362482965E-004
  0.14319999999999999          4.5809635776095092E-004
  0.14429999999999998          4.8111792420968413E-004
  0.14540000000000003          4.9771950580179691E-004
  0.14650000000000002          5.1145465113222599E-004
  0.14760000000000001          5.2841787692159414E-004
  0.14870000000000000          5.4980820277705789E-004
  0.14979999999999999          5.7386420667171478E-004
  0.15090000000000003          5.9536303160712123E-004
  0.15200000000000002          6.1142386402934790E-004
  0.15310000000000001          6.2424939824268222E-004
  0.15420000000000000          6.3649623189121485E-004
  0.15529999999999999          6.5088964765891433E-004
  0.15639999999999998          6.6705717472359538E-004
  0.15750000000000003          6.8400055170059204E-004
  0.15860000000000002          6.9901609094813466E-004
  0.15970000000000001          7.1061367634683847E-004
  0.16080000000000000          7.2104483842849731E-004
  0.16189999999999999          7.3072366649284959E-004
  0.16300000000000003          7.4196135392412543E-004
  0.16410000000000002          7.5646513141691685E-004
  0.16520000000000001          7.7134865568950772E-004
  0.16630000000000000          7.8119023237377405E-004
  0.16739999999999999          7.8506389399990439E-004
  0.16850000000000004          7.8653782838955522E-004
  0.16960000000000003          7.9100107541307807E-004
  0.17070000000000002          8.0033083213493228E-004
  0.17180000000000001          8.1214902456849813E-004
  0.17290000000000000          8.2206295337527990E-004
  0.17399999999999999          8.2467618631199002E-004
  0.17510000000000003          8.2218414172530174E-004
  0.17620000000000002          8.2004652358591557E-004
  0.17730000000000001          8.2506862236186862E-004
  0.17840000000000000          8.3528814138844609E-004
  0.17949999999999999          8.4387831157073379E-004
  0.18060000000000004          8.4222538862377405E-004
  0.18170000000000003          8.3174178143963218E-004
  0.18280000000000002          8.2151137758046389E-004
  0.18390000000000001          8.2082959124818444E-004
  0.18500000000000000          8.2968379138037562E-004
  0.18609999999999999          8.3836429985240102E-004
  0.18720000000000003          8.3616707706823945E-004
  0.18830000000000002          8.2222209312021732E-004
  0.18940000000000001          8.0542161595076323E-004
  0.19050000000000000          7.9792924225330353E-004
  0.19159999999999999          8.0168357817456126E-004
  0.19270000000000004          8.0759538104757667E-004
  0.19380000000000003          8.0307066673412919E-004
  0.19490000000000002          7.8585237497463822E-004
  0.19600000000000001          7.6587806688621640E-004
  0.19710000000000000          7.5483933323994279E-004
  0.19819999999999999          7.5573450885713100E-004
  0.19930000000000003          7.5754837598651648E-004
  0.20040000000000002          7.4795272666960955E-004
  0.20150000000000001          7.2682643076404929E-004
  0.20260000000000000          7.0365658029913902E-004
  0.20369999999999999          6.9069274468347430E-004
  0.20480000000000004          6.8868353264406323E-004
  0.20590000000000003          6.8750354694202542E-004
  0.20700000000000002          6.7560304887592793E-004
  0.20810000000000001          6.5198197262361646E-004
  0.20920000000000000          6.2716373940929770E-004
  0.21029999999999999          6.1173044377937913E-004
  0.21140000000000003          6.0564227169379592E-004
  0.21250000000000002          5.9907487593591213E-004
  0.21360000000000001          5.8331334730610251E-004
  0.21470000000000000          5.5936136050149798E-004
  0.21579999999999999          5.3648086031898856E-004
  0.21690000000000004          5.2227731794118881E-004
  0.21800000000000003          5.1451998297125101E-004
  0.21910000000000002          5.0302816089242697E-004
  0.22020000000000001          4.8257102025672793E-004
  0.22130000000000000          4.5673458953388035E-004
  0.22239999999999999          4.3466067290864885E-004
  0.22350000000000003          4.2273939470760524E-004
  0.22460000000000002          4.1584557038731873E-004
  0.22570000000000001          4.0299113607034087E-004
  0.22680000000000000          3.7914401036687195E-004
  0.22789999999999999          3.5070886951871216E-004
  0.22900000000000004          3.2772347913123667E-004
  0.23010000000000003          3.1585645047016442E-004
  0.23120000000000002          3.0969324870966375E-004
  0.23230000000000001          2.9796906164847314E-004
  0.23340000000000000          2.7638251776807010E-004
  0.23450000000000004          2.5104885571636260E-004
  0.23560000000000003          2.3208909260574728E-004
  0.23670000000000002          2.2028986131772399E-004
  0.23780000000000001          2.1047722839284688E-004
  0.23890000000000000          1.9492275896482170E-004
  0.23999999999999999          1.7273760749958456E-004
  0.24110000000000004          1.5088566578924656E-004
  0.24220000000000003          1.3699225382879376E-004
  0.24330000000000002          1.2988595699425787E-004
  0.24440000000000001          1.2119727034587413E-004
  0.24550000000000000          1.0513643064768985E-004
  0.24660000000000004          8.3493367128539830E-005
  0.24770000000000003          6.5240245021414012E-005
  0.24880000000000002          5.4856129281688482E-005
  0.24990000000000001          4.8744928790256381E-005
  0.25100000000000000          3.8934547774260864E-005
  0.25209999999999999          2.1653913790942170E-005
  0.25320000000000004          2.9622392503370065E-006
  0.25430000000000003         -8.4210423665354028E-006
  0.25540000000000002         -1.1552370779099874E-005
  0.25650000000000001         -1.4326079508464318E-005
  0.25760000000000000         -2.5517212634440511E-005
  0.25870000000000004         -4.4437656470108777E-005
  0.25980000000000003         -6.1466009356081486E-005
  0.26090000000000002         -6.6962791606783867E-005
  0.26200000000000001         -6.2542487285099924E-005
  0.26310000000000000         -6.1471888329833746E-005
  0.26419999999999999         -7.5272160756867379E-005
  0.26530000000000004         -9.8838965641334653E-005
  0.26640000000000003         -1.1618786084000021E-004
  0.26750000000000002         -1.1519005056470633E-004
  0.26860000000000001         -1.0178899538004771E-004
  0.26970000000000000         -9.4378876383416355E-005
  0.27080000000000004         -1.0556413326412439E-004
  0.27190000000000003         -1.3128615682944655E-004
  0.27300000000000002         -1.5088068903423846E-004
  0.27410000000000001         -1.4885613927617669E-004
  0.27520000000000000         -1.3028019748162478E-004
  0.27629999999999999         -1.1674260895233601E-004
  0.27740000000000004         -1.2526357022579759E-004
  0.27850000000000003         -1.5003931184764951E-004
  0.27960000000000002         -1.6966776456683874E-004
  0.28070000000000001         -1.6770740330684930E-004
  0.28179999999999999         -1.4799938071519136E-004
  0.28290000000000004         -1.3201223919168115E-004
  0.28400000000000003         -1.3587418652605265E-004
  0.28510000000000002         -1.5659267955925316E-004
  0.28620000000000001         -1.7442760872654617E-004
  0.28730000000000000         -1.7169865895994008E-004
  0.28840000000000005         -1.5306801651604474E-004
  0.28950000000000004         -1.3756056432612240E-004
  0.29060000000000002         -1.4026871940586716E-004
  0.29170000000000001         -1.5724643890280277E-004
  0.29280000000000000         -1.7062624101527035E-004
  0.29389999999999999         -1.6627240984234959E-004
  0.29500000000000004         -1.4899809320922941E-004
  0.29610000000000003         -1.3632539776153862E-004
  0.29720000000000002         -1.3973160821478814E-004
  0.29830000000000001         -1.5377149975392967E-004
  0.29940000000000000         -1.6208403394557536E-004
  0.30050000000000004         -1.5505278133787215E-004
  0.30160000000000003         -1.3910497364122421E-004
  0.30270000000000002         -1.2964227062184364E-004
  0.30380000000000001         -1.3429450336843729E-004
  0.30490000000000000         -1.4506200386676937E-004
  0.30599999999999999         -1.4889049634803087E-004
  0.30709999999999998         -1.3860313629265875E-004
  0.30819999999999997         -1.2411565694492310E-004
  0.30930000000000007         -1.1825356341432780E-004
  0.31040000000000006         -1.2567362864501774E-004
  0.31150000000000005         -1.3603875413537025E-004
  0.31260000000000004         -1.3608577137347311E-004
  0.31370000000000003         -1.2331812467891723E-004
  0.31480000000000002         -1.0875468433368951E-004
  0.31590000000000001         -1.0553384345257655E-004
  0.31700000000000000         -1.1475964129203930E-004
  0.31809999999999999         -1.2391401105560362E-004
  0.31919999999999998         -1.2083603360224515E-004
  0.32029999999999997         -1.0553655010880902E-004
  0.32140000000000007         -9.2582631623372436E-005
  0.32250000000000006         -9.2192916781641543E-005
  0.32360000000000005         -1.0291882063029334E-004
  0.32470000000000004         -1.1185979383299127E-004
  0.32580000000000003         -1.0718857083702460E-004
  0.32690000000000002         -9.2747199232690036E-005
  0.32800000000000001         -8.1465193943586200E-005
  0.32910000000000000         -8.2151498645544052E-005
  0.33019999999999999         -9.0152076154481620E-005
  0.33129999999999998         -9.4421826361212879E-005
  0.33239999999999997         -8.8644737843424082E-005
  0.33350000000000007         -7.7118587796576321E-005
  0.33460000000000006         -6.9650595833081752E-005
  0.33570000000000005         -7.2570335760246962E-005
  0.33680000000000004         -8.0221885582432151E-005
  0.33790000000000003         -8.1777150626294315E-005
  0.33900000000000002         -7.4367933848407120E-005
  0.34010000000000001         -6.4407904574181885E-005
  0.34120000000000000         -6.1080361774656922E-005
  0.34229999999999999         -6.5652115154080093E-005
  0.34339999999999998         -6.9640649599023163E-005
  0.34449999999999997         -6.5237982198596001E-005
  0.34560000000000007         -5.4795094911241904E-005
  0.34670000000000006         -4.7053126763785258E-005
  0.34780000000000005         -4.9537935410626233E-005
  0.34890000000000004         -5.8668792917160317E-005
