 -0.20000000000000001          0.0000000000000000
 -0.19890000000000002          0.0000000000000000
 -0.19780000000000000          0.0000000000000000
 -0.19670000000000001          0.0000000000000000
 -0.19560000000000002          0.0000000000000000
 -0.19450000000000001          0.0000000000000000
 -0.19340000000000002          0.0000000000000000
 -0.19230000000000000          0.0000000000000000
 -0.19120000000000001          0.0000000000000000
 -0.19010000000000002          0.0000000000000000
 -0.18900000000000000          4.5185081979520304E-037
 -0.18790000000000001          1.7872589478591127E-035
 -0.18680000000000002          2.5778981414391437E-034
 -0.18570000000000000          2.0165695587142577E-033
 -0.18460000000000001          1.0024007505485917E-032
 -0.18350000000000000          3.3507678059172453E-032
 -0.18240000000000001          7.2583120375845196E-032
 -0.18130000000000002          7.1242363274240803E-032
 -0.18020000000000000         -1.3181518750403400E-031
 -0.17910000000000001         -6.7630064432186511E-031
 -0.17800000000000002         -1.1247623656294992E-030
 -0.17690000000000000          2.0221683721856670E-031
 -0.17580000000000001          5.0711172360010365E-030
 -0.17470000000000002          9.7177030885302868E-030
 -0.17360000000000000         -1.7745996228488165E-030
 -0.17250000000000001         -4.5384045619936964E-029
 -0.17140000000000000         -8.0935538779765477E-029
 -0.17030000000000001          4.9951298205085150E-029
 -0.16920000000000002          4.9380246735805967E-028
 -0.16810000000000000          8.2361248143403231E-028
 -0.16700000000000001         -5.6103441874893342E-028
 -0.16589999999999999         -5.1930405241908105E-027
 -0.16480000000000000         -9.2813460618657254E-027
 -0.16370000000000001          2.0744199134714695E-027
 -0.16260000000000002          4.5159658314714826E-026
 -0.16150000000000000          9.4029594474644419E-026
 -0.16040000000000001          2.8573546552164040E-026
 -0.15930000000000000         -3.0581644987996195E-025
 -0.15820000000000001         -7.8531739133856560E-025
 -0.15710000000000002         -5.9236462702325465E-025
 -0.15600000000000000          1.5218849536715094E-024
 -0.15490000000000001          5.3126117707730393E-024
 -0.15379999999999999          6.1359604914789560E-024
 -0.15270000000000000         -4.5200933119649703E-024
 -0.15160000000000001         -2.8934840557324091E-023
 -0.15050000000000002         -4.5467014325258940E-023
 -0.14940000000000001         -5.0376988728994007E-024
 -0.14830000000000002          1.2413324615763140E-022
 -0.14720000000000000          2.6290888667586830E-022
 -0.14610000000000001          1.7155759478269920E-022
 -0.14500000000000002         -3.8760924178281947E-022
 -0.14390000000000000         -1.2200084027267121E-021
 -0.14280000000000001         -1.3389744837374010E-021
 -0.14169999999999999          5.8635463105226048E-022
 -0.14060000000000000          4.5227792318859541E-021
 -0.13950000000000001          7.1170353332185409E-021
 -0.13840000000000002          2.3407504871340509E-021
 -0.13730000000000001         -1.2724575908452911E-020
 -0.13619999999999999         -2.9201036280293217E-020
 -0.13510000000000000         -2.4459415673701919E-020
 -0.13400000000000001          2.1689795263024173E-020
 -0.13290000000000002          9.4554886573965882E-020
 -0.13180000000000000          1.2391223737181175E-019
 -0.13070000000000001          1.8318413881411171E-020
 -0.12959999999999999         -2.3239398910311789E-019
 -0.12850000000000000         -4.5415860393735281E-019
 -0.12740000000000001         -3.2501340229068040E-019
 -0.12630000000000002          3.5463947046533236E-019
 -0.12520000000000001          1.2803463412613754E-018
 -0.12410000000000000          1.5378670012959514E-018
 -0.12300000000000001          1.6979831116969221E-019
 -0.12190000000000001         -2.6808425276524564E-018
 -0.12080000000000000         -4.9540963579627774E-018
 -0.11970000000000000         -3.4679313502762639E-018
 -0.11860000000000001          3.2712830149170418E-018
 -0.11750000000000001          1.1929918085956211E-017
 -0.11640000000000000          1.4303196870683128E-017
 -0.11530000000000000          2.8237096475350120E-018
 -0.11420000000000001         -2.0480887742055784E-017
 -0.11310000000000001         -3.9159788989444398E-017
 -0.11200000000000000         -2.9966930486726126E-017
 -0.11090000000000001          1.6822985885505438E-017
 -0.10980000000000001          7.7965273361475183E-017
 -0.10870000000000000          1.0011947303647061E-016
 -0.10760000000000000          3.6130448445483298E-017
 -0.10650000000000001         -1.0283684737549101E-016
 -0.10540000000000001         -2.2395111727062313E-016
 -0.10430000000000000         -1.9870565761973333E-016
 -0.10320000000000000          2.9693719347844761E-017
 -0.10210000000000001          3.5215598599400470E-016
 -0.10100000000000001          5.1321101587339457E-016
  -9.9900000000000003E-002     2.8247521763482370E-016
  -9.8799999999999999E-002    -3.1468237490474759E-016
  -9.7700000000000009E-002    -9.0186223696301845E-016
  -9.6600000000000005E-002    -9.4442723074932315E-016
  -9.5500000000000002E-002    -1.7410758260345203E-016
  -9.4400000000000012E-002     1.0555333894736170E-015
  -9.3300000000000008E-002     1.8423673875291990E-015
  -9.2200000000000004E-002     1.3380898163922587E-015
  -9.1100000000000000E-002    -4.7424374159099332E-016
  -9.0000000000000011E-002    -2.4742980118941642E-015
  -8.8900000000000007E-002    -3.0131242570045945E-015
  -8.7800000000000003E-002    -1.1940303702506283E-015
  -8.6699999999999999E-002     2.1098938500735236E-015
  -8.5600000000000009E-002     4.4977284327778633E-015
  -8.4500000000000006E-002     3.7068872277279397E-015
  -8.3400000000000002E-002    -3.6855102337216093E-016
  -8.2299999999999998E-002    -5.0105001561889882E-015
  -8.1200000000000008E-002    -6.3333585202446016E-015
  -8.0100000000000005E-002    -2.4187377327519657E-015
  -7.9000000000000001E-002     4.4776317290713078E-015
  -7.7899999999999997E-002     8.8699291238714811E-015
  -7.6800000000000007E-002     6.1270725397867629E-015
  -7.5700000000000003E-002    -3.1291832291297211E-015
  -7.4600000000000000E-002    -1.2165334522086860E-014
  -7.3500000000000010E-002    -1.2521368727839207E-014
  -7.2399999999999992E-002    -1.1296755597753252E-015
  -7.1300000000000002E-002     1.5409440216884729E-014
  -7.0200000000000012E-002     2.3903239278330254E-014
  -6.9099999999999995E-002     1.4226197870008568E-014
  -6.8000000000000005E-002    -1.1095012678508012E-014
  -6.6900000000000015E-002    -3.5588499242835900E-014
  -6.5799999999999997E-002    -3.8947455829017874E-014
  -6.4700000000000008E-002    -1.2752483361563437E-014
  -6.3599999999999990E-002     2.9962662261235132E-014
  -6.2500000000000000E-002     6.0464220436040605E-014
  -6.1400000000000010E-002     5.3783278557758413E-014
  -6.0299999999999992E-002     8.7230239646644316E-015
  -5.9200000000000003E-002    -4.7623543156976103E-014
  -5.8100000000000013E-002    -7.6996785683403068E-014
  -5.6999999999999995E-002    -5.8133199317723927E-014
  -5.5900000000000005E-002    -4.5219379049598121E-015
  -5.4800000000000015E-002     4.4371485516869411E-014
  -5.3699999999999998E-002     5.4532123445766995E-014
  -5.2600000000000008E-002     2.7244509816573559E-014
  -5.1499999999999990E-002     1.0267689711480286E-016
  -5.0400000000000000E-002     1.2643477844548334E-014
  -4.9300000000000010E-002     6.1606149597947385E-014
  -4.8199999999999993E-002     8.7489599441027688E-014
  -4.7100000000000003E-002     1.6740496589320343E-014
  -4.6000000000000013E-002    -1.6148515088066501E-013
  -4.4899999999999995E-002    -3.4581568836809795E-013
  -4.3800000000000006E-002    -3.6010536458123965E-013
  -4.2699999999999988E-002    -8.0383528338386773E-014
  -4.1599999999999998E-002     4.2596609291060961E-013
  -4.0500000000000008E-002     8.6655736839663655E-013
  -3.9399999999999991E-002     8.6699977709311926E-013
  -3.8300000000000001E-002     2.3890703868337249E-013
  -3.7200000000000011E-002    -7.9978585603227015E-013
  -3.6099999999999993E-002    -1.6446220470547890E-012
  -3.5000000000000003E-002    -1.6287602776915433E-012
  -3.3900000000000013E-002    -4.9804572358619348E-013
  -3.2799999999999996E-002     1.2781741810796721E-012
  -3.1700000000000006E-002     2.6410451516717393E-012
  -3.0599999999999988E-002     2.5447103191994502E-012
  -2.9499999999999998E-002     7.0890792151431792E-013
  -2.8400000000000009E-002    -1.9893739433562985E-012
  -2.7299999999999991E-002    -3.8600776221253685E-012
  -2.6200000000000001E-002    -3.4117695647817303E-012
  -2.5100000000000011E-002    -4.6348813459093363E-013
  -2.3999999999999994E-002     3.4174659629959692E-012
  -2.2900000000000004E-002     5.6258313979595798E-012
  -2.1800000000000014E-002     4.1433553636671672E-012
  -2.0699999999999996E-002    -8.6005557059856685E-013
  -1.9600000000000006E-002    -6.5933157371300677E-012
  -1.8499999999999989E-002    -8.9739942907285375E-012
  -1.7399999999999999E-002    -5.2224353314089811E-012
  -1.6300000000000009E-002     3.7829639594477715E-012
  -1.5199999999999991E-002     1.3097692201646804E-011
  -1.4100000000000001E-002     1.6040483177826026E-011
  -1.3000000000000012E-002     8.3721632057609519E-012
  -1.1899999999999994E-002    -8.0465573440435811E-012
  -1.0800000000000004E-002    -2.4736664105962092E-011
  -9.6999999999999864E-003    -3.0399741751674370E-011
  -8.5999999999999965E-003    -1.7642607860746118E-011
  -7.5000000000000067E-003     1.1036790405205554E-011
  -6.3999999999999890E-003     4.2091885532613560E-011
  -5.2999999999999992E-003     5.6565831879629158E-011
  -4.2000000000000093E-003     4.0612031099174217E-011
  -3.0999999999999917E-003    -4.5682797822355070E-012
  -2.0000000000000018E-003    -5.9726577850138796E-011
  -9.0000000000001190E-004    -9.4947730233663208E-011
   2.0000000000000573E-004    -8.5156590112767105E-011
   1.2999999999999956E-003    -2.6003674907792984E-011
   2.4000000000000132E-003     5.9431161381073849E-011
   3.5000000000000031E-003     1.2894407763752724E-010
   4.5999999999999930E-003     1.4229713241054043E-010
   5.7000000000000106E-003     8.4676550493600899E-011
   6.8000000000000005E-003    -2.1159065818898704E-011
   7.8999999999999904E-003    -1.2312056929530968E-010
   9.0000000000000080E-003    -1.6650922307626104E-010
   1.0099999999999998E-002    -1.2568554530467679E-010
   1.1199999999999988E-002    -2.2088468207281942E-011
   1.2300000000000005E-002     8.4239788755713363E-011
   1.3399999999999995E-002     1.2780090874464634E-010
   1.4500000000000013E-002     7.7972892031930030E-011
   1.5600000000000003E-002    -3.7793934648533423E-011
   1.6699999999999993E-002    -1.4457227082154134E-010
   1.7800000000000010E-002    -1.6168308358821548E-010
   1.8900000000000000E-002    -5.2771453873390328E-011
   1.9999999999999990E-002     1.4651635460438683E-010
   2.1100000000000008E-002     3.4301245177559281E-010
   2.2199999999999998E-002     4.3721287701359302E-010
   2.3300000000000015E-002     3.8112724087824290E-010
   2.4400000000000005E-002     2.0524770771856993E-010
   2.5499999999999995E-002    -6.0458612942404510E-012
   2.6600000000000013E-002    -1.7825257936365801E-010
   2.7700000000000002E-002    -3.0832636443989259E-010
   2.8799999999999992E-002    -4.7831733018810496E-010
   2.9900000000000010E-002    -8.0229095589245958E-010
   3.1000000000000000E-002    -1.3323520065000594E-009
   3.2099999999999990E-002    -1.9839392351173046E-009
   3.3200000000000007E-002    -2.5392303815152673E-009
   3.4299999999999997E-002    -2.7452973228037081E-009
   3.5400000000000015E-002    -2.4622823779907321E-009
   3.6500000000000005E-002    -1.7744874458713866E-009
   3.7599999999999995E-002    -9.8546337756744151E-010
   3.8700000000000012E-002    -4.7979370476625149E-010
   3.9800000000000002E-002    -5.1711707138579754E-010
   4.0899999999999992E-002    -1.0769903857621443E-009
   4.2000000000000010E-002    -1.8575596616443590E-009
   4.3099999999999999E-002    -2.4470747650440217E-009
   4.4200000000000017E-002    -2.5799606895304805E-009
   4.5300000000000007E-002    -2.3244972613412074E-009
   4.6399999999999997E-002    -2.0740873463154230E-009
   4.7500000000000014E-002    -2.3238133639580383E-009
   4.8600000000000004E-002    -3.3487563833034528E-009
   4.9699999999999994E-002    -4.9775961130649193E-009
   5.0800000000000012E-002    -6.6188476921524853E-009
   5.1900000000000002E-002    -7.5577597513643013E-009
   5.2999999999999992E-002    -7.3754975460360583E-009
   5.4099999999999981E-002    -6.2495715269506036E-009
   5.5200000000000027E-002    -4.9402406609999616E-009
   5.6300000000000017E-002    -4.4368033691455366E-009
   5.7400000000000007E-002    -5.4380229208561559E-009
   5.8499999999999996E-002    -7.9534308028428313E-009
   5.9599999999999986E-002    -1.1262584642679485E-008
   6.0700000000000032E-002    -1.4276055892992190E-008
   6.1800000000000022E-002    -1.6111728839973694E-008
   6.2900000000000011E-002    -1.6568094451940851E-008
   6.4000000000000001E-002    -1.6225373045131164E-008
   6.5099999999999991E-002    -1.6113776979409522E-008
   6.6199999999999981E-002    -1.7137477215101171E-008
   6.7300000000000026E-002    -1.9586057220521980E-008
   6.8400000000000016E-002    -2.3014361971718245E-008
   6.9500000000000006E-002    -2.6553472309842618E-008
   7.0599999999999996E-002    -2.9459169326173651E-008
   7.1699999999999986E-002    -3.1563978097892686E-008
   7.2800000000000031E-002    -3.3361182261160138E-008
   7.3900000000000021E-002    -3.5677420129331949E-008
   7.5000000000000011E-002    -3.9145710672983114E-008
   7.6100000000000001E-002    -4.3814385009000034E-008
   7.7199999999999991E-002    -4.9141128499741171E-008
   7.8299999999999981E-002    -5.4376503300090917E-008
   7.9400000000000026E-002    -5.9089671822221135E-008
   8.0500000000000016E-002    -6.3491491175682313E-008
   8.1600000000000006E-002    -6.8332859370912047E-008
   8.2699999999999996E-002    -7.4427994434245193E-008
   8.3799999999999986E-002    -8.2103099430241855E-008
   8.4900000000000031E-002    -9.0937582797323557E-008
   8.6000000000000021E-002    -9.9995951075015910E-008
   8.7100000000000011E-002    -1.0843884723499286E-007
   8.8200000000000001E-002    -1.1614336159482264E-007
   8.9299999999999990E-002    -1.2392408166306268E-007
   9.0399999999999980E-002    -1.3316750369085639E-007
   9.1500000000000026E-002    -1.4505194201319682E-007
   9.2600000000000016E-002    -1.5980332079834625E-007
   9.3700000000000006E-002    -1.7645690775225376E-007
   9.4799999999999995E-002    -1.9332360068347043E-007
   9.5899999999999985E-002    -2.0894466956633551E-007
   9.7000000000000031E-002    -2.2300631030702789E-007
   9.8100000000000021E-002    -2.3667055870646436E-007
   9.9200000000000010E-002    -2.5208959186784341E-007
  0.10030000000000000         -2.7133268076795503E-007
  0.10139999999999999         -2.9530394840548979E-007
  0.10249999999999998         -3.2325414167644340E-007
  0.10360000000000003         -3.5317191304784501E-007
  0.10470000000000002         -3.8285025993900490E-007
  0.10580000000000001         -4.1104982528850087E-007
  0.10690000000000000         -4.3813508909806842E-007
  0.10799999999999998         -4.6586285407101968E-007
  0.10910000000000003         -4.9647593414192670E-007
  0.11020000000000002         -5.3162301583142835E-007
  0.11130000000000001         -5.7168756484315963E-007
  0.11240000000000000         -6.1583904198414530E-007
  0.11349999999999999         -6.6269524268136593E-007
  0.11460000000000004         -7.1115590571935172E-007
  0.11570000000000003         -7.6092965173302218E-007
  0.11680000000000001         -8.1251721439912217E-007
  0.11790000000000000         -8.6675822785764467E-007
  0.11899999999999999         -9.2429411324701505E-007
  0.12009999999999998         -9.8530745162861422E-007
  0.12120000000000003         -1.0496692084416281E-006
  0.12230000000000002         -1.1173325447089155E-006
  0.12340000000000001         -1.1886489801327116E-006
  0.12450000000000000         -1.2643490663322154E-006
  0.12559999999999999         -1.3451738141156966E-006
  0.12670000000000003         -1.4314015288618975E-006
  0.12780000000000002         -1.5225972447296954E-006
  0.12890000000000001         -1.6177838233488728E-006
  0.13000000000000000         -1.7159864000859670E-006
  0.13109999999999999         -1.8168467477153172E-006
  0.13219999999999998         -1.9209408037568210E-006
  0.13330000000000003         -2.0296154161769664E-006
  0.13440000000000002         -2.1444209323817631E-006
  0.13550000000000001         -2.2664466996502597E-006
  0.13660000000000000         -2.3958996280271094E-006
  0.13769999999999999         -2.5321148768853163E-006
  0.13880000000000003         -2.6739664917840855E-006
  0.13990000000000002         -2.8204385671415366E-006
  0.14100000000000001         -2.9710874969168799E-006
  0.14210000000000000         -3.1261940875992877E-006
  0.14319999999999999         -3.2865775665413821E-006
  0.14429999999999998         -3.4532392874098150E-006
  0.14540000000000003         -3.6269955216994276E-006
  0.14650000000000002         -3.8082444007159211E-006
  0.14760000000000001         -3.9969545468920842E-006
  0.14870000000000000         -4.1927773963834625E-006
  0.14979999999999999         -4.3952104533673264E-006
  0.15090000000000003         -4.6037707761570346E-006
  0.15200000000000002         -4.8181418605963700E-006
  0.15310000000000001         -5.0382473091303837E-006
  0.15420000000000000         -5.2642617447418161E-006
  0.15529999999999999         -5.4965521485428326E-006
  0.15639999999999998         -5.7355318858753890E-006
  0.15750000000000003         -5.9815233726112638E-006
  0.15860000000000002         -6.2346539380087052E-006
  0.15970000000000001         -6.4948490035021678E-006
  0.16080000000000000         -6.7618780121847522E-006
  0.16189999999999999         -7.0353935370803811E-006
  0.16300000000000003         -7.3150013122358359E-006
  0.16410000000000002         -7.6003379945177585E-006
  0.16520000000000001         -7.8910852607805282E-006
  0.16630000000000000         -8.1869420682778582E-006
  0.16739999999999999         -8.4876483015250415E-006
  0.16850000000000004         -8.7930402514757589E-006
  0.16960000000000003         -9.1031388365081511E-006
  0.17070000000000002         -9.4181532404036261E-006
  0.17180000000000001         -9.7383117463323288E-006
  0.17290000000000000         -1.0063665285997558E-005
  0.17399999999999999         -1.0393917364126537E-005
  0.17510000000000003         -1.0728352208388969E-005
  0.17620000000000002         -1.1066007573390380E-005
  0.17730000000000001         -1.1405931218178011E-005
  0.17840000000000000         -1.1747404641937464E-005
  0.17949999999999999         -1.2090115887986030E-005
  0.18060000000000004         -1.2434095879143570E-005
  0.18170000000000003         -1.2779521057382226E-005
  0.18280000000000002         -1.3126506019034423E-005
  0.18390000000000001         -1.3474931620294228E-005
  0.18500000000000000         -1.3824419511365704E-005
  0.18609999999999999         -1.4174327588989399E-005
  0.18720000000000003         -1.4523729078064207E-005
  0.18830000000000002         -1.4871472558297683E-005
  0.18940000000000001         -1.5216442989185452E-005
  0.19050000000000000         -1.5557869119220413E-005
  0.19159999999999999         -1.5895431715762243E-005
  0.19270000000000004         -1.6229174434556626E-005
  0.19380000000000003         -1.6559311916353181E-005
  0.19490000000000002         -1.6886009689187631E-005
  0.19600000000000001         -1.7209120414918289E-005
  0.19710000000000000         -1.7528082025819458E-005
  0.19819999999999999         -1.7841923181549646E-005
  0.19930000000000003         -1.8149348761653528E-005
  0.20040000000000002         -1.8448976334184408E-005
  0.20150000000000001         -1.8739734514383599E-005
  0.20260000000000000         -1.9021292246179655E-005
  0.20369999999999999         -1.9294064259156585E-005
  0.20480000000000004         -1.9558681742637418E-005
  0.20590000000000003         -1.9815362975350581E-005
  0.20700000000000002         -2.0063607735210098E-005
  0.20810000000000001         -2.0302348275436088E-005
  0.20920000000000000         -2.0530455003608949E-005
  0.21029999999999999         -2.0747147573274560E-005
  0.21140000000000003         -2.0952093109372072E-005
  0.21250000000000002         -2.1145173377590254E-005
  0.21360000000000001         -2.1326270143617876E-005
  0.21470000000000000         -2.1495336113730446E-005
  0.21579999999999999         -2.1652276700478978E-005
  0.21690000000000004         -2.1796828150399961E-005
  0.21800000000000003         -2.1928492060396820E-005
  0.21910000000000002         -2.2046653612051159E-005
  0.22020000000000001         -2.2151072698761709E-005
  0.22130000000000000         -2.2242047634790652E-005
  0.22239999999999999         -2.2320240532280877E-005
  0.22350000000000003         -2.2386162527254783E-005
  0.22460000000000002         -2.2439662643591873E-005
  0.22570000000000001         -2.2480087864096276E-005
  0.22680000000000000         -2.2506475943373516E-005
  0.22789999999999999         -2.2518044715980068E-005
  0.22900000000000004         -2.2514735974255018E-005
  0.23010000000000003         -2.2497262762044556E-005
  0.23120000000000002         -2.2466694645117968E-005
  0.23230000000000001         -2.2424050257541239E-005
  0.23340000000000000         -2.2370084479916841E-005
  0.23450000000000004         -2.2304990125121549E-005
  0.23560000000000003         -2.2228550733416341E-005
  0.23670000000000002         -2.2140293367556296E-005
  0.23780000000000001         -2.2039690520614386E-005
  0.23890000000000000         -2.1926558474660851E-005
  0.23999999999999999         -2.1801275579491630E-005
  0.24110000000000004         -2.1664569430868141E-005
  0.24220000000000003         -2.1517504137591459E-005
  0.24330000000000002         -2.1361391191021539E-005
  0.24440000000000001         -2.1197309251874685E-005
  0.24550000000000000         -2.1025691239628941E-005
  0.24660000000000004         -2.0846440747845918E-005
  0.24770000000000003         -2.0659277652157471E-005
  0.24880000000000002         -2.0464101908146404E-005
  0.24990000000000001         -2.0261411918909289E-005
  0.25100000000000000         -2.0052028048667125E-005
  0.25209999999999999         -1.9836717910948209E-005
  0.25320000000000004         -1.9616019926615991E-005
  0.25430000000000003         -1.9390472516533919E-005
  0.25540000000000002         -1.9160932424711064E-005
  0.25650000000000001         -1.8928329154732637E-005
  0.25760000000000000         -1.8693208403419703E-005
  0.25870000000000004         -1.8455686586094089E-005
  0.25980000000000003         -1.8215896488982253E-005
  0.26090000000000002         -1.7974265574594028E-005
  0.26200000000000001         -1.7731601474224590E-005
  0.26310000000000000         -1.7489046513219364E-005
  0.26419999999999999         -1.7247375581064261E-005
  0.26530000000000004         -1.7006394045893103E-005
  0.26640000000000003         -1.6765512555139139E-005
  0.26750000000000002         -1.6524689272046089E-005
  0.26860000000000001         -1.6284886442008428E-005
  0.26970000000000000         -1.6047844837885350E-005
  0.27080000000000004         -1.5815025108167902E-005
  0.27190000000000003         -1.5586652807542123E-005
  0.27300000000000002         -1.5362207705038600E-005
  0.27410000000000001         -1.5141432413656730E-005
  0.27520000000000000         -1.4924678907846101E-005
  0.27629999999999999         -1.4712484698975459E-005
  0.27740000000000004         -1.4505025319522247E-005
  0.27850000000000003         -1.4301917872217018E-005
  0.27960000000000002         -1.4102606655796990E-005
  0.28070000000000001         -1.3907570064475294E-005
  0.28179999999999999         -1.3718232366954908E-005
  0.28290000000000004         -1.3535985090129543E-005
  0.28400000000000003         -1.3361755918595009E-005
  0.28510000000000002         -1.3195454812375829E-005
  0.28620000000000001         -1.3036014024692122E-005
  0.28730000000000000         -1.2882333066954743E-005
  0.28840000000000005         -1.2733847142953891E-005
  0.28950000000000004         -1.2590635378728621E-005
  0.29060000000000002         -1.2453001545509323E-005
  0.29170000000000001         -1.2320999303483404E-005
  0.29280000000000000         -1.2195014278404415E-005
  0.29389999999999999         -1.2075744962203316E-005
  0.29500000000000004         -1.1964051736867987E-005
  0.29610000000000003         -1.1860377526318189E-005
  0.29720000000000002         -1.1763821021304466E-005
  0.29830000000000001         -1.1672635082504712E-005
  0.29940000000000000         -1.1585590073082130E-005
  0.30050000000000004         -1.1502684174047317E-005
  0.30160000000000003         -1.1424857802921906E-005
  0.30270000000000002         -1.1352850378898438E-005
  0.30380000000000001         -1.1286513654340524E-005
  0.30490000000000000         -1.1224798981857020E-005
  0.30599999999999999         -1.1166430340381339E-005
  0.30709999999999998         -1.1111463209090289E-005
  0.30819999999999997         -1.1061181794502772E-005
  0.30930000000000007         -1.1016662938345689E-005
  0.31040000000000006         -1.0977157216984779E-005
  0.31150000000000005         -1.0940374522760976E-005
  0.31260000000000004         -1.0904615919571370E-005
  0.31370000000000003         -1.0869968718907330E-005
  0.31480000000000002         -1.0837681656994391E-005
  0.31590000000000001         -1.0808555998664815E-005
  0.31700000000000000         -1.0781898708955850E-005
  0.31809999999999999         -1.0755647963378578E-005
  0.31919999999999998         -1.0728190318332054E-005
  0.32029999999999997         -1.0699973245209549E-005
  0.32140000000000007         -1.0673090400814544E-005
  0.32250000000000006         -1.0649479008861817E-005
  0.32360000000000005         -1.0628271411405876E-005
  0.32470000000000004         -1.0606358955556061E-005
  0.32580000000000003         -1.0580885827948805E-005
  0.32690000000000002         -1.0550963452260476E-005
  0.32800000000000001         -1.0518334420339670E-005
  0.32910000000000000         -1.0485512575542089E-005
  0.33019999999999999         -1.0452955393702723E-005
  0.33129999999999998         -1.0418526471767109E-005
  0.33239999999999997         -1.0379934792581480E-005
  0.33350000000000007         -1.0336832019675057E-005
  0.33460000000000006         -1.0290942555002403E-005
  0.33570000000000005         -1.0243924407404847E-005
  0.33680000000000004         -1.0195025424764026E-005
  0.33790000000000003         -1.0141398888663389E-005
  0.33900000000000002         -1.0080583706439938E-005
  0.34010000000000001         -1.0013036444433965E-005
  0.34120000000000000         -9.9417111414368264E-006
  0.34229999999999999         -9.8688506113830954E-006
  0.34339999999999998         -9.7936390375252813E-006
  0.34449999999999997         -9.7126130640390329E-006
  0.34560000000000007         -9.6228177426382899E-006
  0.34670000000000006         -9.5243767646024935E-006
  0.34780000000000005         -9.4203114713309333E-006
  0.34890000000000004         -9.3140897661214694E-006
