 -0.20000000000000001          0.0000000000000000
 -0.19890000000000002          0.0000000000000000
 -0.19780000000000000          0.0000000000000000
 -0.19670000000000001          1.9062819031634426E-011
 -0.19560000000000002         -1.6506243594172076E-010
 -0.19450000000000001         -8.0609813268850417E-010
 -0.19340000000000002         -9.1253515854816669E-010
 -0.19230000000000000          1.7773060800863050E-009
 -0.19120000000000001          6.7275012227696607E-009
 -0.19010000000000002          6.3560294805142803E-009
 -0.18900000000000000         -8.1963875686597021E-009
 -0.18790000000000001         -3.0133325168435476E-008
 -0.18680000000000002         -2.9306688631436373E-008
 -0.18570000000000000          2.1633860924907822E-008
 -0.18460000000000001          9.8719631580479472E-008
 -0.18350000000000000          1.1452551973434311E-007
 -0.18240000000000001         -8.7957747751943316E-009
 -0.18130000000000002         -2.2397546217689523E-007
 -0.18020000000000000         -3.3269654409195937E-007
 -0.17910000000000001         -1.3994059600008768E-007
 -0.17800000000000002          3.0782587145949947E-007
 -0.17690000000000000          6.5419106931585702E-007
 -0.17580000000000001          4.9680556912790053E-007
 -0.17470000000000002         -1.8556148972947994E-007
 -0.17360000000000000         -8.7293420847345260E-007
 -0.17250000000000001         -8.8749095539242262E-007
 -0.17140000000000000         -6.7621307664467167E-008
 -0.17030000000000001          9.2656290462400648E-007
 -0.16920000000000002          1.1123679541924503E-006
 -0.16810000000000000          1.4968344430599245E-007
 -0.16700000000000001         -1.1616394886004855E-006
 -0.16589999999999999         -1.4910068557583145E-006
 -0.16480000000000000         -2.7045592787544592E-007
 -0.16370000000000001          1.5712925005573197E-006
 -0.16260000000000002          2.3102245449990733E-006
 -0.16150000000000000          1.0621049568726448E-006
 -0.16040000000000001         -1.2206385235913331E-006
 -0.15930000000000000         -2.5165441002172884E-006
 -0.15820000000000001         -1.6796174122646335E-006
 -0.15710000000000002          3.4676659765864315E-007
 -0.15600000000000000          1.4042706197869848E-006
 -0.15490000000000001          3.6680484072348918E-007
 -0.15379999999999999         -1.5103644273040118E-006
 -0.15270000000000000         -1.7068572333300835E-006
 -0.15160000000000001          8.8960956645678380E-007
 -0.15050000000000002          4.4498929128167219E-006
 -0.14940000000000001          5.6062067415041383E-006
 -0.14830000000000002          2.6679072107071988E-006
 -0.14720000000000000         -2.5021986402862240E-006
 -0.14610000000000001         -5.9966637309116777E-006
 -0.14500000000000002         -5.4534370974579360E-006
 -0.14390000000000000         -2.1944231320958352E-006
 -0.14280000000000001          2.8986087841076369E-007
 -0.14169999999999999         -9.5521945908672024E-010
 -0.14060000000000000         -1.5770466461617616E-006
 -0.13950000000000001         -1.2632538073376054E-006
 -0.13840000000000002          2.0789550490007969E-006
 -0.13730000000000001          5.9688295550586190E-006
 -0.13619999999999999          6.7466257860360201E-006
 -0.13510000000000000          3.5350647067389218E-006
 -0.13400000000000001         -6.5712720243027434E-007
 -0.13290000000000002         -2.1531939182750648E-006
 -0.13180000000000000         -7.9476211567452992E-007
 -0.13070000000000001         -3.0411567308874510E-007
 -0.12959999999999999         -3.9374504012812395E-006
 -0.12850000000000000         -9.9264279924682342E-006
 -0.12740000000000001         -1.2104788766009733E-005
 -0.12630000000000002         -5.9618546401907224E-006
 -0.12520000000000001          5.7890056268661283E-006
 -0.12410000000000000          1.4419129911402706E-005
 -0.12300000000000001          1.2923185749968980E-005
 -0.12190000000000001          2.9488032851077151E-006
 -0.12080000000000000         -6.3814450186328031E-006
 -0.11970000000000000         -7.1826393650553655E-006
 -0.11860000000000001         -5.0756614200508920E-007
 -0.11750000000000001          5.0208113862026948E-006
 -0.11640000000000000          2.5734150312928250E-006
 -0.11530000000000000         -5.2113746278337203E-006
 -0.11420000000000001         -8.6980362539179623E-006
 -0.11310000000000001         -1.8286276599610574E-006
 -0.11200000000000000          1.0300326721335296E-005
 -0.11090000000000001          1.5593373973388225E-005
 -0.10980000000000001          7.4201557254127692E-006
 -0.10870000000000000         -7.5217881203570869E-006
 -0.10760000000000000         -1.5049936337163672E-005
 -0.10650000000000001         -8.0171303125098348E-006
 -0.10540000000000001          5.4774341151642147E-006
 -0.10430000000000000          9.7200700110988691E-006
 -0.10320000000000000         -1.9568176412576577E-006
 -0.10210000000000001         -1.8762832041829824E-005
 -0.10100000000000001         -2.2256655938690528E-005
  -9.9900000000000003E-002    -5.5670043366262689E-006
  -9.8799999999999999E-002     1.7777221728465520E-005
  -9.7700000000000009E-002     2.5886754883686081E-005
  -9.6600000000000005E-002     1.0512771041248925E-005
  -9.5500000000000002E-002    -1.3462317838275339E-005
  -9.4400000000000012E-002    -2.2060135961510241E-005
  -9.3300000000000008E-002    -6.6991551648243330E-006
  -9.2200000000000004E-002     1.5992145563359372E-005
  -9.1100000000000000E-002     2.0448091163416393E-005
  -9.0000000000000011E-002    -9.0111876716036932E-007
  -8.8900000000000007E-002    -2.7900812710868195E-005
  -8.7800000000000003E-002    -3.1788014894118533E-005
  -8.6699999999999999E-002    -5.0927474148920737E-006
  -8.5600000000000009E-002     2.8467631636885926E-005
  -8.4500000000000006E-002     3.6010620533488691E-005
  -8.3400000000000002E-002     8.6549516709055752E-006
  -8.2299999999999998E-002    -2.7984957341686822E-005
  -8.1200000000000008E-002    -3.8210553611861542E-005
  -8.0100000000000005E-002    -1.2175240044598468E-005
  -7.9000000000000001E-002     2.3243774194270372E-005
  -7.7899999999999997E-002     3.1010546081233770E-005
  -7.6800000000000007E-002     1.9911233266611816E-006
  -7.5700000000000003E-002    -3.4556054743006825E-005
  -7.4600000000000000E-002    -4.0102433558786288E-005
  -7.3500000000000010E-002    -6.8651402216346469E-006
  -7.2399999999999992E-002     3.2633575756335631E-005
  -7.1300000000000002E-002     3.7779587728437036E-005
  -7.0200000000000012E-002     1.9965486899309326E-006
  -6.9099999999999995E-002    -3.8820791814941913E-005
  -6.8000000000000005E-002    -4.1871848225127906E-005
  -6.6900000000000015E-002    -1.8140578958991682E-006
  -6.5799999999999997E-002     4.1968763980548829E-005
  -6.4700000000000008E-002     4.4330641685519367E-005
  -6.3599999999999990E-002     9.3683303248326411E-007
  -6.2500000000000000E-002    -4.5635035348823294E-005
  -6.1400000000000010E-002    -4.8112680815393105E-005
  -6.0299999999999992E-002    -3.0215364859031979E-006
  -5.9200000000000003E-002     4.4555374188348651E-005
  -5.8100000000000013E-002     4.6286568249342963E-005
  -5.6999999999999995E-002     4.9242083832723438E-007
  -5.5900000000000005E-002    -4.4908221752848476E-005
  -5.4800000000000015E-002    -4.0886938222683966E-005
  -5.3699999999999998E-002     1.1611654372245539E-005
  -5.2600000000000008E-002     6.0981205024290830E-005
  -5.1499999999999990E-002     5.6959583162097260E-005
  -5.0400000000000000E-002     2.8854649372078711E-006
  -4.9300000000000010E-002    -4.5901455450803041E-005
  -4.8199999999999993E-002    -3.7587593396892771E-005
  -4.7100000000000003E-002     2.2656360670225695E-005
  -4.6000000000000013E-002     7.6430813351180404E-005
  -4.4899999999999995E-002     7.0800488174427301E-005
  -4.3800000000000006E-002     1.2784800674126018E-005
  -4.2699999999999988E-002    -3.6447760066948831E-005
  -4.1599999999999998E-002    -2.3050828531268053E-005
  -4.0500000000000008E-002     4.4388205424183980E-005
  -3.9399999999999991E-002     1.0259629925712943E-004
  -3.8300000000000001E-002     9.7211581305600703E-005
  -3.7200000000000011E-002     3.8030662835808471E-005
  -3.6099999999999993E-002    -1.0660749467206188E-005
  -3.5000000000000003E-002     4.7860598897386808E-006
  -3.3900000000000013E-002     7.2930895839817822E-005
  -3.2799999999999996E-002     1.2899150897283107E-004
  -3.1700000000000006E-002     1.2111854448448867E-004
  -3.0599999999999988E-002     6.3502891862299293E-005
  -2.9499999999999998E-002     2.2164462279761210E-005
  -2.8400000000000009E-002     4.7784418711671606E-005
  -2.7299999999999991E-002     1.2412729847710580E-004
  -2.6200000000000001E-002     1.8465143512003124E-004
  -2.5100000000000011E-002     1.7980366828851402E-004
  -2.3999999999999994E-002     1.2647669063881040E-004
  -2.2900000000000004E-002     8.9700755779631436E-005
  -2.1800000000000014E-002     1.1611010268097743E-004
  -2.0699999999999996E-002     1.8754643679130822E-004
  -1.9600000000000006E-002     2.4163804482668638E-004
  -1.8499999999999989E-002     2.3655369295738637E-004
  -1.7399999999999999E-002     1.9298726692795753E-004
  -1.6300000000000009E-002     1.7120878328569233E-004
  -1.5199999999999991E-002     2.0825576211791486E-004
  -1.4100000000000001E-002     2.8093281434848905E-004
  -1.3000000000000012E-002     3.3168352092616260E-004
  -1.1899999999999994E-002     3.2895163167268038E-004
  -1.0800000000000004E-002     2.9854732565581799E-004
  -9.6999999999999864E-003     2.9425136744976044E-004
  -8.5999999999999965E-003     3.4064665669575334E-004
  -7.5000000000000067E-003     4.0819132118485868E-004
  -6.3999999999999890E-003     4.4623948633670807E-004
  -5.2999999999999992E-003     4.3732541962526739E-004
  -4.2000000000000093E-003     4.1512039024382830E-004
  -3.0999999999999917E-003     4.2792217573150992E-004
  -2.0000000000000018E-003     4.8707766109146178E-004
  -9.0000000000001190E-004     5.5572029668837786E-004
   2.0000000000000573E-004     5.8905564947053790E-004
   1.2999999999999956E-003     5.8271473972126842E-004
   2.4000000000000132E-003     5.7636125711724162E-004
   3.5000000000000031E-003     6.1023392481729388E-004
   4.5999999999999930E-003     6.8043835926800966E-004
   5.7000000000000106E-003     7.4246723670512438E-004
   6.8000000000000005E-003     7.5892190216109157E-004
   7.8999999999999904E-003     7.4089528061449528E-004
   9.0000000000000080E-003     7.3772278847172856E-004
   1.0099999999999998E-002     7.8506616409868002E-004
   1.1199999999999988E-002     8.6634646868333220E-004
   1.2300000000000005E-002     9.2945137294009328E-004
   1.3399999999999995E-002     9.4181031454354525E-004
   1.4500000000000013E-002     9.2522549675777555E-004
   1.5600000000000003E-002     9.3340873718261719E-004
   1.6699999999999993E-002     9.9480105563998222E-004
   1.7800000000000010E-002     1.0811724932864308E-003
   1.8900000000000000E-002     1.1360001517459750E-003
   1.9999999999999990E-002     1.1336397146806121E-003
   2.1100000000000008E-002     1.1068561580032110E-003
   2.2199999999999998E-002     1.1130744824185967E-003
   2.3300000000000015E-002     1.1751395650207996E-003
   2.4400000000000005E-002     1.2571830302476883E-003
   2.5499999999999995E-002     1.3027640525251627E-003
   2.6600000000000013E-002     1.2937651481479406E-003
   2.7700000000000002E-002     1.2692114105448127E-003
   2.8799999999999992E-002     1.2834764784201980E-003
   2.9900000000000010E-002     1.3494546292349696E-003
   3.1000000000000000E-002     1.4237036230042577E-003
   3.2099999999999990E-002     1.4526636805385351E-003
   3.3200000000000007E-002     1.4280701288953424E-003
   3.4299999999999997E-002     1.3951034052297473E-003
   3.5400000000000015E-002     1.4043202390894294E-003
   3.6500000000000005E-002     1.4582156436517835E-003
   3.7599999999999995E-002     1.5101225581020117E-003
   3.8700000000000012E-002     1.5145144425332546E-003
   3.9800000000000002E-002     1.4751652488484979E-003
   4.0899999999999992E-002     1.4422850217670202E-003
   4.2000000000000010E-002     1.4575012028217316E-003
   4.3099999999999999E-002     1.5094272093847394E-003
   4.4200000000000017E-002     1.5441187424585223E-003
   4.5300000000000007E-002     1.5232302248477936E-003
   4.6399999999999997E-002     1.4628894859924912E-003
   4.7500000000000014E-002     1.4177035773172975E-003
   4.8600000000000004E-002     1.4221000019460917E-003
   4.9699999999999994E-002     1.4535733498632908E-003
   5.0800000000000012E-002     1.4565192395821214E-003
   5.1900000000000002E-002     1.4024692354723811E-003
   5.2999999999999992E-002     1.3212771154940128E-003
   5.4099999999999981E-002     1.2709470465779305E-003
   5.5200000000000027E-002     1.2761997058987617E-003
   5.6300000000000017E-002     1.3011301634833217E-003
   5.7400000000000007E-002     1.2859581038355827E-003
   5.8499999999999996E-002     1.2075555277988315E-003
   5.9599999999999986E-002     1.1064325226470828E-003
   6.0700000000000032E-002     1.0419604368507862E-003
   6.1800000000000022E-002     1.0320853907614946E-003
   6.2900000000000011E-002     1.0337898274883628E-003
   6.4000000000000001E-002     9.8810391500592232E-004
   6.5099999999999991E-002     8.8251306442543864E-004
   6.6199999999999981E-002     7.6453259680420160E-004
   6.7300000000000026E-002     6.9306086516007781E-004
   6.8400000000000016E-002     6.7681650398299098E-004
   6.9500000000000006E-002     6.6751381382346153E-004
   7.0599999999999996E-002     6.0787482652813196E-004
   7.1699999999999986E-002     4.9226521514356136E-004
   7.2800000000000031E-002     3.7005837657488883E-004
   7.3900000000000021E-002     2.9449231806211174E-004
   7.5000000000000011E-002     2.6513126795180142E-004
   7.6100000000000001E-002     2.3238567519001663E-004
   7.7199999999999991E-002     1.4845647092442960E-004
   7.8299999999999981E-002     1.7610675058676861E-005
   7.9400000000000026E-002    -1.0731968359323218E-004
   8.0500000000000016E-002    -1.8183681822847575E-004
   8.1600000000000006E-002    -2.1261480287648737E-004
   8.2699999999999996E-002    -2.5093223666772246E-004
   8.3799999999999986E-002    -3.3686880487948656E-004
   8.4900000000000031E-002    -4.5935233356431127E-004
   8.6000000000000021E-002    -5.7010445743799210E-004
   8.7100000000000011E-002    -6.3637056155130267E-004
   8.8200000000000001E-002    -6.7324028350412846E-004
   8.9299999999999990E-002    -7.2630291106179357E-004
   9.0399999999999980E-002    -8.2320952787995338E-004
   9.1500000000000026E-002    -9.4256893498823047E-004
   9.2600000000000016E-002    -1.0380514431744814E-003
   9.3700000000000006E-002    -1.0879004839807749E-003
   9.4799999999999995E-002    -1.1162497103214264E-003
   9.5899999999999985E-002    -1.1670589447021484E-003
   9.7000000000000031E-002    -1.2567020021378994E-003
   9.8100000000000021E-002    -1.3570183655247092E-003
   9.9200000000000010E-002    -1.4260052703320980E-003
  0.10030000000000000         -1.4532604254782200E-003
  0.10139999999999999         -1.4712038682773709E-003
  0.10249999999999998         -1.5185327501967549E-003
  0.10360000000000003         -1.6008642269298434E-003
  0.10470000000000002         -1.6826386563479900E-003
  0.10580000000000001         -1.7282695043832064E-003
  0.10690000000000000         -1.7388361738994718E-003
  0.10799999999999998         -1.7477590590715408E-003
  0.10910000000000003         -1.7854199977591634E-003
  0.11020000000000002         -1.8465799512341619E-003
  0.11130000000000001         -1.8954569241032004E-003
  0.11240000000000000         -1.9059603800997138E-003
  0.11349999999999999         -1.8898434937000275E-003
  0.11460000000000004         -1.8831648631021380E-003
  0.11570000000000003         -1.9085428211838007E-003
  0.11680000000000001         -1.9508858676999807E-003
  0.11790000000000000         -1.9770360086113214E-003
  0.11899999999999999         -1.9672866910696030E-003
  0.12009999999999998         -1.9390133675187826E-003
  0.12120000000000003         -1.9230990437790751E-003
  0.12230000000000002         -1.9327995833009481E-003
  0.12340000000000001         -1.9487374229356647E-003
  0.12450000000000000         -1.9397331634536386E-003
  0.12559999999999999         -1.8992872210219502E-003
  0.12670000000000003         -1.8518895376473665E-003
  0.12780000000000002         -1.8262150697410107E-003
  0.12890000000000001         -1.8261390505358577E-003
  0.13000000000000000         -1.8235186580568552E-003
  0.13109999999999999         -1.7922071274369955E-003
  0.13219999999999998         -1.7359716584905982E-003
  0.13330000000000003         -1.6829840606078506E-003
  0.13440000000000002         -1.6563528915867209E-003
  0.13550000000000001         -1.6467536333948374E-003
  0.13660000000000000         -1.6250413609668612E-003
  0.13769999999999999         -1.5696359332650900E-003
  0.13880000000000003         -1.4945382717996836E-003
  0.13990000000000002         -1.4320726040750742E-003
  0.14100000000000001         -1.3999672373756766E-003
  0.14210000000000000         -1.3813764089718461E-003
  0.14319999999999999         -1.3451116392388940E-003
  0.14429999999999998         -1.2793256901204586E-003
  0.14540000000000003         -1.2063222238793969E-003
  0.14650000000000002         -1.1545481393113732E-003
  0.14760000000000001         -1.1290996335446835E-003
  0.14870000000000000         -1.1054486967623234E-003
  0.14979999999999999         -1.0532370069995522E-003
  0.15090000000000003         -9.7517529502511024E-004
  0.15200000000000002         -8.9966715313494205E-004
  0.15310000000000001         -8.5395318455994129E-004
  0.15420000000000000         -8.3223188994452357E-004
  0.15529999999999999         -8.0344139132648706E-004
  0.15639999999999998         -7.4371555820107460E-004
  0.15750000000000003         -6.6437706118449569E-004
  0.15860000000000002         -6.0128932818770409E-004
  0.15970000000000001         -5.7448993902653456E-004
  0.16080000000000000         -5.6551099987700582E-004
  0.16189999999999999         -5.3589942399412394E-004
  0.16300000000000003         -4.6874451800249517E-004
  0.16410000000000002         -3.8795205182395875E-004
  0.16520000000000001         -3.3332064049318433E-004
  0.16630000000000000         -3.1951311393640935E-004
  0.16739999999999999         -3.1800125725567341E-004
  0.16850000000000004         -2.8685253346338868E-004
  0.16960000000000003         -2.1639175247400999E-004
  0.17070000000000002         -1.4189812645781785E-004
  0.17180000000000001         -1.0395506251370534E-004
  0.17290000000000000         -1.1002964311046526E-004
  0.17399999999999999         -1.2099607556592673E-004
  0.17510000000000003         -9.3494993052445352E-005
  0.17620000000000002         -2.4609371394035406E-005
  0.17730000000000001          4.5115371904103085E-005
  0.17840000000000000          7.3238559707533568E-005
  0.17949999999999999          5.8946388890035450E-005
  0.18060000000000004          4.3936262954957783E-005
  0.18170000000000003          6.8323199229780585E-005
  0.18280000000000002          1.2920824519824237E-004
  0.18390000000000001          1.8442922737449408E-004
  0.18500000000000000          1.9725837046280503E-004
  0.18609999999999999          1.7437606584280729E-004
  0.18720000000000003          1.5797704691067338E-004
  0.18830000000000002          1.8290651496499777E-004
  0.18940000000000001          2.3817090550437570E-004
  0.19050000000000000          2.7889173361472785E-004
  0.19159999999999999          2.7806891012005508E-004
  0.19270000000000004          2.5065641966648400E-004
  0.19380000000000003          2.3906970454845577E-004
  0.19490000000000002          2.6659789728000760E-004
  0.19600000000000001          3.1313471845351160E-004
  0.19710000000000000          3.3857236849144101E-004
  0.19819999999999999          3.2473230385221541E-004
  0.19930000000000003          2.9496886418201029E-004
  0.20040000000000002          2.8795568505302072E-004
  0.20150000000000001          3.1617292552255094E-004
  0.20260000000000000          3.5304718767292798E-004
  0.20369999999999999          3.6324866232462227E-004
  0.20480000000000004          3.4074613358825445E-004
  0.20590000000000003          3.1498476164415479E-004
  0.20700000000000002          3.1946066883392632E-004
  0.20810000000000001          3.5423896042630076E-004
  0.20920000000000000          3.8471311563625932E-004
  0.21029999999999999          3.7887907819822431E-004
  0.21140000000000003          3.4280412364751101E-004
  0.21250000000000002          3.1429936643689871E-004
  0.21360000000000001          3.2441582879982889E-004
  0.21470000000000000          3.6283451481722295E-004
  0.21579999999999999          3.8955433410592377E-004
  0.21690000000000004          3.7701817927882075E-004
  0.21800000000000003          3.3929935307241976E-004
  0.21910000000000002          3.1808626954443753E-004
  0.22020000000000001          3.3678382169455290E-004
  0.22130000000000000          3.7598013295792043E-004
  0.22239999999999999          3.9361612289212644E-004
  0.22350000000000003          3.7034862907603383E-004
  0.22460000000000002          3.2918833312578499E-004
  0.22570000000000001          3.1273142667487264E-004
  0.22680000000000000          3.3686880487948656E-004
  0.22789999999999999          3.7491496186703444E-004
  0.22900000000000004          3.8602063432335854E-004
  0.23010000000000003          3.5841827047988772E-004
  0.23120000000000002          3.2219686545431614E-004
  0.23230000000000001          3.1651832978241146E-004
  0.23340000000000000          3.4831266384571791E-004
  0.23450000000000004          3.8448526174761355E-004
  0.23560000000000003          3.8587054586969316E-004
  0.23670000000000002          3.5119534004479647E-004
  0.23780000000000001          3.1614760519005358E-004
  0.23890000000000000          3.1585825490765274E-004
  0.23999999999999999          3.5057324566878378E-004
  0.24110000000000004          3.8220660644583404E-004
  0.24220000000000003          3.7676680949516594E-004
  0.24330000000000002          3.4150748979300261E-004
  0.24440000000000001          3.1594687607139349E-004
  0.24550000000000000          3.2830578857101500E-004
  0.24660000000000004          3.6681309575214982E-004
  0.24770000000000003          3.9165213820524514E-004
  0.24880000000000002          3.7653892650268972E-004
  0.24990000000000001          3.3681996865198016E-004
  0.25100000000000000          3.1496124574914575E-004
  0.25209999999999999          3.3207098022103310E-004
  0.25320000000000004          3.6829241435043514E-004
  0.25430000000000003          3.8466250407509506E-004
  0.25540000000000002          3.6368088331073523E-004
  0.25650000000000001          3.2873259624466300E-004
  0.25760000000000000          3.1853112159296870E-004
  0.25870000000000004          3.4524372313171625E-004
  0.25980000000000003          3.8158992538228631E-004
  0.26090000000000002          3.8890511495992541E-004
  0.26200000000000001          3.5857743932865560E-004
  0.26310000000000000          3.2080072560347617E-004
  0.26419999999999999          3.1479308381676674E-004
  0.26530000000000004          3.4597434569150209E-004
  0.26640000000000003          3.7939992034807801E-004
  0.26750000000000002          3.7772348150610924E-004
  0.26860000000000001          3.4095771843567491E-004
  0.26970000000000000          3.0738927307538688E-004
  0.27080000000000004          3.1008388032205403E-004
  0.27190000000000003          3.4615700133144855E-004
  0.27300000000000002          3.7547014653682709E-004
  0.27410000000000001          3.6584556801244617E-004
  0.27520000000000000          3.2471603481099010E-004
  0.27629999999999999          2.9254192486405373E-004
  0.27740000000000004          2.9763812199234962E-004
  0.27850000000000003          3.3125357003882527E-004
  0.27960000000000002          3.5311409737914801E-004
  0.28070000000000001          3.3597002038732171E-004
  0.28179999999999999          2.9301934409886599E-004
  0.28290000000000004          2.6385992532595992E-004
  0.28400000000000003          2.7359480736777186E-004
  0.28510000000000002          3.0619389144703746E-004
  0.28620000000000001          3.2247536000795662E-004
  0.28730000000000000          3.0001442064531147E-004
  0.28840000000000005          2.5649229064583778E-004
  0.28950000000000004          2.2961874492466450E-004
  0.29060000000000002          2.3877853527665138E-004
  0.29170000000000001          2.6571718626655638E-004
  0.29280000000000000          2.7446827152743936E-004
  0.29389999999999999          2.4833981296978891E-004
  0.29500000000000004          2.0526436856016517E-004
  0.29610000000000003          1.7951929476112127E-004
  0.29720000000000002          1.8681638175621629E-004
  0.29830000000000001          2.0901690004393458E-004
  0.29940000000000000          2.1336802456062287E-004
  0.30050000000000004          1.8569514213595539E-004
  0.30160000000000003          1.4560364070348442E-004
  0.30270000000000002          1.2207029794808477E-004
  0.30380000000000001          1.2676141341216862E-004
  0.30490000000000000          1.4016925706528127E-004
  0.30599999999999999          1.3547271373681724E-004
  0.30709999999999998          1.0554830805631354E-004
  0.30819999999999997          6.8502231442835182E-005
  0.30930000000000007          4.8151759983738884E-005
  0.31040000000000006          5.0072332669515163E-005
  0.31150000000000005          5.5830430937930942E-005
  0.31260000000000004          4.6176934120012447E-005
  0.31370000000000003          1.7992257198784500E-005
  0.31480000000000002         -1.4210791050572880E-005
  0.31590000000000001         -3.4049473470076919E-005
  0.31700000000000000         -3.7939447793178260E-005
  0.31809999999999999         -3.9887148886919022E-005
  0.31919999999999998         -5.3090632718522102E-005
  0.32029999999999997         -7.9593446571379900E-005
  0.32140000000000007         -1.0787940118461847E-004
  0.32250000000000006         -1.2813945068046451E-004
  0.32360000000000005         -1.3947300612926483E-004
  0.32470000000000004         -1.4872322208248079E-004
  0.32580000000000003         -1.6269348270725459E-004
  0.32690000000000002         -1.8238568736705929E-004
  0.32800000000000001         -2.0378686895128340E-004
  0.32910000000000000         -2.2371415980160236E-004
  0.33019999999999999         -2.4193427816499025E-004
  0.33129999999999998         -2.5869859382510185E-004
  0.33239999999999997         -2.7383712586015463E-004
  0.33350000000000007         -2.8749633929692209E-004
  0.33460000000000006         -3.0318644712679088E-004
  0.33570000000000005         -3.2511388417333364E-004
  0.33680000000000004         -3.5084088449366391E-004
  0.33790000000000003         -3.7215164047665894E-004
  0.33900000000000002         -3.8266414776444435E-004
  0.34010000000000001         -3.8577651139348745E-004
  0.34120000000000000         -3.9393804036080837E-004
  0.34229999999999999         -4.1764497291296721E-004
  0.34339999999999998         -4.5127308112569153E-004
  0.34449999999999997         -4.7776504652574658E-004
  0.34560000000000007         -4.8432429321110249E-004
  0.34670000000000006         -4.7876514145173132E-004
  0.34780000000000005         -4.7917925985530019E-004
  0.34890000000000004         -5.0091679440811276E-004
