 -0.20000000000000001          0.0000000000000000
 -0.19890000000000002          0.0000000000000000
 -0.19780000000000000          0.0000000000000000
 -0.19670000000000001          0.0000000000000000
 -0.19560000000000002          0.0000000000000000
 -0.19450000000000001          0.0000000000000000
 -0.19340000000000002          0.0000000000000000
 -0.19230000000000000          0.0000000000000000
 -0.19120000000000001          0.0000000000000000
 -0.19010000000000002          0.0000000000000000
 -0.18900000000000000          0.0000000000000000
 -0.18790000000000001          0.0000000000000000
 -0.18680000000000002         -3.7078346474918787E-033
 -0.18570000000000000         -2.0143078414617184E-031
 -0.18460000000000001         -3.3996109127475843E-030
 -0.18350000000000000         -3.1789201050530200E-029
 -0.18240000000000001         -1.8437306525076810E-028
 -0.18130000000000002         -7.0660838545261896E-028
 -0.18020000000000000         -1.8155435362877315E-027
 -0.17910000000000001         -2.7199608159509608E-027
 -0.17800000000000002          7.3038731284523345E-028
 -0.17690000000000000          1.8076451820300028E-026
 -0.17580000000000001          5.3126022551383701E-026
 -0.17470000000000002          5.4534373460284445E-026
 -0.17360000000000000         -1.2670336267823529E-025
 -0.17250000000000001         -4.9636686156793874E-025
 -0.17140000000000000         -2.0159229499358160E-025
 -0.17030000000000001          2.2677905090585872E-024
 -0.16920000000000002          4.6799062761709794E-024
 -0.16810000000000000         -4.8858861415636904E-024
 -0.16700000000000001         -3.4306235481741032E-023
 -0.16589999999999999         -3.5303611256873683E-023
 -0.16480000000000000          1.1290051057778286E-022
 -0.16370000000000001          3.8446268389117184E-022
 -0.16260000000000002          1.7799216279263147E-022
 -0.16150000000000000         -1.4205425498759598E-021
 -0.16040000000000001         -3.3942031654663699E-021
 -0.15930000000000000         -2.1303778182361805E-022
 -0.15820000000000001          1.3457124312431745E-020
 -0.15710000000000002          2.5048471667416244E-020
 -0.15600000000000000         -7.2165813500604693E-021
 -0.15490000000000001         -1.0773367672717704E-019
 -0.15379999999999999         -1.6570854927547105E-019
 -0.15270000000000000          9.6477254317539118E-020
 -0.15160000000000001          7.6950316959608330E-019
 -0.15050000000000002          1.0558015465389556E-018
 -0.14940000000000001         -7.4254886895058348E-019
 -0.14830000000000002         -4.9665541115781323E-018
 -0.14720000000000000         -6.7124565199432873E-018
 -0.14610000000000001          3.7830038252122527E-018
 -0.14500000000000002          2.8593827213500351E-017
 -0.14390000000000000          4.1642085215822129E-017
 -0.14280000000000001         -9.7691957673339817E-018
 -0.14169999999999999         -1.4339541201565238E-016
 -0.14060000000000000         -2.3987846011299697E-016
 -0.13950000000000001         -3.6338858255177258E-017
 -0.13840000000000002          6.0731436461009761E-016
 -0.13730000000000001          1.2309043614225682E-015
 -0.13619999999999999          6.4562550599573201E-016
 -0.13510000000000000         -2.0617360036156171E-015
 -0.13400000000000001         -5.4762590099286575E-015
 -0.13290000000000002         -4.8149405774587043E-015
 -0.13180000000000000          4.8607671774875301E-015
 -0.13070000000000001          2.0661212202384947E-014
 -0.12959999999999999          2.5805084048866229E-014
 -0.12850000000000000         -2.2188339337934513E-015
 -0.12740000000000001         -6.3988785515937951E-014
 -0.12630000000000002         -1.0963900956822287E-013
 -0.12520000000000001         -5.1826195380600196E-014
 -0.12410000000000000          1.5046851839593117E-013
 -0.12300000000000001          3.7919564406865836E-013
 -0.12190000000000001          3.4567560944741282E-013
 -0.12080000000000000         -1.9410757452330979E-013
 -0.11970000000000000         -1.0582857290150627E-012
 -0.11860000000000001         -1.4436196378933563E-012
 -0.11750000000000001         -3.6349290005906199E-013
 -0.11640000000000000          2.2474927734855710E-012
 -0.11530000000000000          4.5745985124967525E-012
 -0.11420000000000001          3.4740773625918653E-012
 -0.11310000000000001         -2.8172830821709960E-012
 -0.11200000000000000         -1.1320395142122575E-011
 -0.11090000000000001         -1.3879726361298861E-011
 -0.10980000000000001         -2.5819082115352554E-012
 -0.10870000000000000          2.0782271736852209E-011
 -0.10760000000000000          3.9232513071585373E-011
 -0.10650000000000001          2.8463960355384899E-011
 -0.10540000000000001         -2.1201851038710195E-011
 -0.10430000000000000         -8.3658462102231823E-011
 -0.10320000000000000         -1.0089101776245002E-010
 -0.10210000000000001         -2.4372812795769860E-011
 -0.10100000000000001          1.2689435613388866E-010
  -9.9900000000000003E-002     2.4395846454083880E-010
  -9.8799999999999999E-002     1.8689748360056768E-010
  -9.7700000000000009E-002    -8.8911947249137313E-011
  -9.6600000000000005E-002    -4.3281589423571631E-010
  -9.5500000000000002E-002    -5.4358711976121299E-010
  -9.4400000000000012E-002    -1.9099784254184016E-010
  -9.3300000000000008E-002     5.1902665498815281E-010
  -9.2200000000000004E-002     1.0816688655879148E-009
  -9.1100000000000000E-002     8.9523494173349150E-010
  -9.0000000000000011E-002    -1.9965491759865728E-010
  -8.8900000000000007E-002    -1.5687069421232991E-009
  -8.7800000000000003E-002    -2.0509336451368654E-009
  -8.6699999999999999E-002    -8.5051282683323848E-010
  -8.5600000000000009E-002     1.5553759391551125E-009
  -8.4500000000000006E-002     3.3730278570232031E-009
  -8.3400000000000002E-002     2.7039797068084681E-009
  -8.2299999999999998E-002    -6.7378935764139669E-010
  -8.1200000000000008E-002    -4.4726689019114474E-009
  -8.0100000000000005E-002    -5.1906021703018723E-009
  -7.9000000000000001E-002    -1.0810489170509641E-009
  -7.7899999999999997E-002     5.4782840486211626E-009
  -7.6800000000000007E-002     8.7796783176941062E-009
  -7.5700000000000003E-002     4.1806957895573760E-009
  -7.4600000000000000E-002    -6.8312302481388087E-009
  -7.3500000000000010E-002    -1.5629913363568448E-008
  -7.2399999999999992E-002    -1.2092551848752464E-008
  -7.1300000000000002E-002     5.9760769666183933E-009
  -7.0200000000000012E-002     2.7282617054424918E-008
  -6.9099999999999995E-002     3.2244184211549509E-008
  -6.8000000000000005E-002     8.2483344598927033E-009
  -6.6900000000000015E-002    -3.5484106319927378E-008
  -6.5799999999999997E-002    -6.7443878037920513E-008
  -6.4700000000000008E-002    -5.3645383246703204E-008
  -6.3599999999999990E-002     1.2837315210845190E-008
  -6.2500000000000000E-002     9.5633410523987550E-008
  -6.1400000000000010E-002     1.3111535679399822E-007
  -6.0299999999999992E-002     7.3414419432538125E-008
  -5.9200000000000003E-002    -6.1295388320559141E-008
  -5.8100000000000013E-002    -1.8939036294796097E-007
  -5.6999999999999995E-002    -2.0915140908073226E-007
  -5.5900000000000005E-002    -7.8429501115806488E-008
  -5.4800000000000015E-002     1.3699475687189988E-007
  -5.3699999999999998E-002     2.9194549711064610E-007
  -5.2600000000000008E-002     2.6153307430831774E-007
  -5.1499999999999990E-002     4.4666222720479709E-008
  -5.0400000000000000E-002    -2.1451367615554773E-007
  -4.9300000000000010E-002    -3.2220239631897130E-007
  -4.8199999999999993E-002    -1.8943298130125186E-007
  -4.7100000000000003E-002     7.6443811281023955E-008
  -4.6000000000000013E-002     2.3700394535808300E-007
  -4.4899999999999995E-002     1.2068591104252846E-007
  -4.3800000000000006E-002    -1.9557448638352071E-007
  -4.2699999999999988E-002    -3.9302295817833510E-007
  -4.1599999999999998E-002    -1.5275185205609887E-007
  -4.0500000000000008E-002     5.2174129905324662E-007
  -3.9399999999999991E-002     1.1733392284440924E-006
  -3.8300000000000001E-002     1.1333260090395925E-006
  -3.7200000000000011E-002     4.3572587316020872E-008
  -3.6099999999999993E-002    -1.7043020079654525E-006
  -3.5000000000000003E-002    -3.0096948648861144E-006
  -3.3900000000000013E-002    -2.6917387003777549E-006
  -3.2799999999999996E-002    -3.6675791648121958E-007
  -3.1700000000000006E-002     3.0402907214011066E-006
  -3.0599999999999988E-002     5.6135327213269193E-006
  -2.9499999999999998E-002     5.5204682212206535E-006
  -2.8400000000000009E-002     2.2073138552514138E-006
  -2.7299999999999991E-002    -3.0806168069830164E-006
  -2.6200000000000001E-002    -7.8430884968838654E-006
  -2.5100000000000011E-002    -9.6153598860837519E-006
  -2.3999999999999994E-002    -7.2009565883490723E-006
  -2.2900000000000004E-002    -1.1531681138876593E-006
  -2.1800000000000014E-002     6.5850545070134103E-006
  -2.0699999999999996E-002     1.3401899195741862E-005
  -1.9600000000000006E-002     1.6587306163273752E-005
  -1.8499999999999989E-002     1.3762585695076268E-005
  -1.7399999999999999E-002     3.6729175008076709E-006
  -1.6300000000000009E-002    -1.2368007446639240E-005
  -1.5199999999999991E-002    -2.9098382583470084E-005
  -1.4100000000000001E-002    -3.7684218114009127E-005
  -1.3000000000000012E-002    -2.9261474992381409E-005
  -1.1899999999999994E-002    -1.0127423593075946E-006
  -1.0800000000000004E-002     3.8627815229119733E-005
  -9.6999999999999864E-003     7.0303249231074005E-005
  -8.5999999999999965E-003     7.2104448918253183E-005
  -7.5000000000000067E-003     3.3246713428525254E-005
  -6.3999999999999890E-003    -3.4914748539449647E-005
  -5.2999999999999992E-003    -9.9454729934222996E-005
  -4.2000000000000093E-003    -1.2136813165852800E-004
  -3.0999999999999917E-003    -7.9399906098842621E-005
  -2.0000000000000018E-003     1.2294589396333322E-005
  -9.0000000000001190E-004     1.0650421609170735E-004
   2.0000000000000573E-004     1.4812812150921673E-004
   1.2999999999999956E-003     1.0918492625933141E-004
   2.4000000000000132E-003     1.0872690836549737E-005
   3.5000000000000031E-003    -8.5319603385869414E-005
   4.5999999999999930E-003    -1.1640089360298589E-004
   5.7000000000000106E-003    -6.3380735809914768E-005
   6.8000000000000005E-003     2.9072365578031167E-005
   7.8999999999999904E-003     7.8361830674111843E-005
   9.0000000000000080E-003     2.4373985070269555E-005
   1.0099999999999998E-002    -1.1459897359600291E-004
   1.1199999999999988E-002    -2.3471176973544061E-004
   1.2300000000000005E-002    -2.0566006423905492E-004
   1.3399999999999995E-002     3.2126179576152936E-005
   1.4500000000000013E-002     3.9529424975626171E-004
   1.5600000000000003E-002     6.7033938830718398E-004
   1.6699999999999993E-002     6.2454404542222619E-004
   1.7800000000000010E-002     1.6222421254497021E-004
   1.8900000000000000E-002    -5.6983943795785308E-004
   1.9999999999999990E-002    -1.2104699853807688E-003
   2.1100000000000008E-002    -1.3570191804319620E-003
   2.2199999999999998E-002    -8.0256350338459015E-004
   2.3300000000000015E-002     2.9910341254435480E-004
   2.4400000000000005E-002     1.4553997898474336E-003
   2.5499999999999995E-002     2.0614142995327711E-003
   2.6600000000000013E-002     1.7263120971620083E-003
   2.7700000000000002E-002     5.2022613817825913E-004
   2.8799999999999992E-002    -1.0135566117241979E-003
   2.9900000000000010E-002    -2.1156263537704945E-003
   3.1000000000000000E-002    -2.2157654166221619E-003
   3.2099999999999990E-002    -1.2646677205339074E-003
   3.3200000000000007E-002     2.0977805252186954E-004
   3.4299999999999997E-002     1.3809240190312266E-003
   3.5400000000000015E-002     1.6017466550692916E-003
   3.6500000000000005E-002     8.1271625822409987E-004
   3.7599999999999995E-002    -3.8018968189135194E-004
   3.8700000000000012E-002    -1.0462399804964662E-003
   3.9800000000000002E-002    -5.2970059914514422E-004
   4.0899999999999992E-002     1.0384134948253632E-003
   4.2000000000000010E-002     2.6648456696420908E-003
   4.3099999999999999E-002     2.9865736141800880E-003
   4.4200000000000017E-002     1.1241681640967727E-003
   4.5300000000000007E-002    -2.5830008089542389E-003
   4.6399999999999997E-002    -6.4605954103171825E-003
   4.7500000000000014E-002    -8.2115335389971733E-003
   4.8600000000000004E-002    -6.1826729215681553E-003
   4.9699999999999994E-002    -5.0493632443249226E-004
   5.0800000000000012E-002     6.6308574751019478E-003
   5.1900000000000002E-002     1.1900354176759720E-002
   5.2999999999999992E-002     1.2620688416063786E-002
   5.4099999999999981E-002     8.4243845194578171E-003
   5.5200000000000027E-002     1.7802773509174585E-003
   5.6300000000000017E-002    -3.1423724722117186E-003
   5.7400000000000007E-002    -2.8096546884626150E-003
   5.8499999999999996E-002     3.4245175775140524E-003
   5.9599999999999986E-002     1.2570015154778957E-002
   6.0700000000000032E-002     1.9428664818406105E-002
   6.1800000000000022E-002     1.9584687426686287E-002
   6.2900000000000011E-002     1.2270099483430386E-002
   6.4000000000000001E-002     1.2815846130251884E-003
   6.5099999999999991E-002    -6.8586673587560654E-003
   6.6199999999999981E-002    -6.6457497887313366E-003
   6.7300000000000026E-002     2.9239072464406490E-003
   6.8400000000000016E-002     1.7359225079417229E-002
   6.9500000000000006E-002     2.9042063280940056E-002
   7.0599999999999996E-002     3.1760361045598984E-002
   7.1699999999999986E-002     2.4702969938516617E-002
   7.2800000000000031E-002     1.3307628221809864E-002
   7.3900000000000021E-002     6.1452309601008892E-003
   7.5000000000000011E-002     9.5248892903327942E-003
   7.6100000000000001E-002     2.3139845579862595E-002
   7.7199999999999991E-002     3.9706252515316010E-002
   7.8299999999999981E-002     4.9213387072086334E-002
   7.9400000000000026E-002     4.5444343239068985E-002
   8.0500000000000016E-002     3.0714498832821846E-002
   8.1600000000000006E-002     1.5530670061707497E-002
   8.2699999999999996E-002     1.2834788300096989E-002
   8.3799999999999986E-002     2.9960414394736290E-002
   8.4900000000000031E-002     6.3197948038578033E-002
   8.6000000000000021E-002     9.8679244518280029E-002
   8.7100000000000011E-002    0.11966420710086823
   8.8200000000000001E-002    0.11632502079010010
   8.9299999999999990E-002     9.2264413833618164E-002
   9.0399999999999980E-002     6.3562288880348206E-002
   9.1500000000000026E-002     5.0386164337396622E-002
   9.2600000000000016E-002     6.5679721534252167E-002
   9.3700000000000006E-002    0.10745342820882797
   9.4799999999999995E-002    0.15938650071620941
   9.5899999999999985E-002    0.19975313544273376
   9.7000000000000031E-002    0.21377025544643402
   9.8100000000000021E-002    0.20228111743927002
   9.9200000000000010E-002    0.18160545825958252
  0.10030000000000000         0.17439176142215729
  0.10139999999999999         0.19659382104873657
  0.10249999999999998         0.24804930388927460
  0.10360000000000003         0.31228145956993103
  0.10470000000000002         0.36583682894706726
  0.10580000000000001         0.39198520779609680
  0.10690000000000000         0.39088830351829529
  0.10799999999999998         0.38019043207168579
  0.10910000000000003         0.38544610142707825
  0.11020000000000002         0.42564794421195984
  0.11130000000000001         0.50213778018951416
  0.11240000000000000         0.59742814302444458
  0.11349999999999999         0.68486386537551880
  0.11460000000000004         0.74379885196685791
  0.11570000000000003         0.77161836624145508
  0.11680000000000001         0.78558719158172607
  0.11790000000000000         0.81324243545532227
  0.11899999999999999         0.87674599885940552
  0.12009999999999998         0.98032069206237793
  0.12120000000000003          1.1081200838088989
  0.12230000000000002          1.2339582443237305
  0.12340000000000001          1.3372546434402466
  0.12450000000000000          1.4155567884445190
  0.12559999999999999          1.4861738681793213
  0.12670000000000003          1.5756014585494995
  0.12780000000000002          1.7031325101852417
  0.12890000000000001          1.8687797784805298
  0.13000000000000000          2.0529296398162842
  0.13109999999999999          2.2286415100097656
  0.13219999999999998          2.3789939880371094
  0.13330000000000003          2.5089139938354492
  0.13440000000000002          2.6438207626342773
  0.13550000000000001          2.8152663707733154
  0.13660000000000000          3.0421051979064941
  0.13769999999999999          3.3185918331146240
  0.13880000000000003          3.6169192790985107
  0.13990000000000002          3.9031202793121338
  0.14100000000000001          4.1570367813110352
  0.14210000000000000          4.3846936225891113
  0.14319999999999999          4.6153445243835449
  0.14429999999999998          4.8854823112487793
  0.14540000000000003          5.2185878753662109
  0.14650000000000002          5.6128201484680176
  0.14760000000000001          6.0433273315429688
  0.14870000000000000          6.4772124290466309
  0.14979999999999999          6.8921713829040527
  0.15090000000000003          7.2883296012878418
  0.15200000000000002          7.6871151924133301
  0.15310000000000001          8.1185111999511719
  0.15420000000000000          8.6051321029663086
  0.15529999999999999          9.1520757675170898
  0.15639999999999998          9.7467527389526367
  0.15750000000000003          10.368021965026855
  0.15860000000000002          10.997790336608887
  0.15970000000000001          11.629214286804199
  0.16080000000000000          12.267813682556152
  0.16189999999999999          12.926436424255371
  0.16300000000000003          13.618449211120605
  0.16410000000000002          14.352469444274902
  0.16520000000000001          15.130866050720215
  0.16630000000000000          15.951114654541016
  0.16739999999999999          16.808797836303711
  0.16850000000000004          17.700101852416992
  0.16960000000000003          18.622722625732422
  0.17070000000000002          19.575962066650391
  0.17180000000000001          20.561170578002930
  0.17290000000000000          21.580728530883789
  0.17399999999999999          22.636232376098633
  0.17510000000000003          23.728084564208984
  0.17620000000000002          24.854307174682617
  0.17730000000000001          26.011989593505859
  0.17840000000000000          27.199884414672852
  0.17949999999999999          28.420530319213867
  0.18060000000000004          29.680294036865234
  0.18170000000000003          30.986066818237305
  0.18280000000000002          32.341598510742188
  0.18390000000000001          33.744743347167969
  0.18500000000000000          35.186172485351562
  0.18609999999999999          36.655193328857422
  0.18720000000000003          38.144008636474609
  0.18830000000000002          39.653026580810547
  0.18940000000000001          41.191417694091797
  0.19050000000000000          42.770755767822266
  0.19159999999999999          44.398342132568359
  0.19270000000000004          46.073600769042969
  0.19380000000000003          47.787738800048828
  0.19490000000000002          49.527996063232422
  0.19600000000000001          51.284809112548828
  0.19710000000000000          53.056022644042969
  0.19819999999999999          54.846984863281250
  0.19930000000000003          56.665260314941406
  0.20040000000000002          58.516746520996094
  0.20150000000000001          60.399162292480469
  0.20260000000000000          62.307067871093750
  0.20369999999999999          64.230743408203125
  0.20480000000000004          66.163848876953125
  0.20590000000000003          68.105964660644531
  0.20700000000000002          70.062271118164062
  0.20810000000000001          72.036666870117188
  0.20920000000000000          74.029678344726562
  0.21029999999999999          76.035774230957031
  0.21140000000000003          78.045822143554688
  0.21250000000000002          80.051231384277344
  0.21360000000000001          82.046478271484375
  0.21470000000000000          84.028411865234375
  0.21579999999999999          86.001312255859375
  0.21690000000000004          87.968460083007812
  0.21800000000000003          89.934135437011719
  0.21910000000000002          91.898139953613281
  0.22020000000000001          93.853668212890625
  0.22130000000000000          95.792556762695312
  0.22239999999999999          97.708152770996094
  0.22350000000000003          99.597076416015625
  0.22460000000000002          101.45968627929688
  0.22570000000000001          103.29834747314453
  0.22680000000000000          105.10900878906250
  0.22789999999999999          106.88997650146484
  0.22900000000000004          108.63121795654297
  0.23010000000000003          110.33228302001953
  0.23120000000000002          111.98970031738281
  0.23230000000000001          113.60499572753906
  0.23340000000000000          115.18199157714844
  0.23450000000000004          116.71961975097656
  0.23560000000000003          118.21752929687500
  0.23670000000000002          119.66893005371094
  0.23780000000000001          121.06204223632812
  0.23890000000000000          122.39253234863281
  0.23999999999999999          123.66004180908203
  0.24110000000000004          124.87364959716797
  0.24220000000000003          126.04059600830078
  0.24330000000000002          127.16190338134766
  0.24440000000000001          128.22894287109375
  0.24550000000000000          129.23936462402344
  0.24660000000000004          130.18247985839844
  0.24770000000000003          131.06187438964844
  0.24880000000000002          131.87678527832031
  0.24990000000000001          132.63415527343750
  0.25100000000000000          133.33540344238281
  0.25209999999999999          133.98548889160156
  0.25320000000000004          134.57592773437500
  0.25430000000000003          135.09672546386719
  0.25540000000000002          135.54537963867188
  0.25650000000000001          135.92768859863281
  0.25760000000000000          136.24836730957031
  0.25870000000000004          136.52156066894531
  0.25980000000000003          136.75234985351562
  0.26090000000000002          136.93682861328125
  0.26200000000000001          137.07189941406250
  0.26310000000000000          137.15428161621094
  0.26419999999999999          137.18301391601562
  0.26530000000000004          137.15596008300781
  0.26640000000000003          137.07434082031250
  0.26750000000000002          136.94662475585938
  0.26860000000000001          136.77703857421875
  0.26970000000000000          136.56904602050781
  0.27080000000000004          136.32685852050781
  0.27190000000000003          136.05372619628906
  0.27300000000000002          135.75364685058594
  0.27410000000000001          135.42065429687500
  0.27520000000000000          135.05812072753906
  0.27629999999999999          134.66192626953125
  0.27740000000000004          134.23312377929688
  0.27850000000000003          133.78269958496094
  0.27960000000000002          133.32133483886719
  0.28070000000000001          132.85704040527344
  0.28179999999999999          132.39083862304688
  0.28290000000000004          131.90573120117188
  0.28400000000000003          131.39936828613281
  0.28510000000000002          130.87939453125000
  0.28620000000000001          130.36537170410156
  0.28730000000000000          129.87074279785156
  0.28840000000000005          129.38703918457031
  0.28950000000000004          128.90678405761719
  0.29060000000000002          128.42553710937500
  0.29170000000000001          127.94687652587891
  0.29280000000000000          127.47926330566406
  0.29389999999999999          127.03343963623047
  0.29500000000000004          126.59867095947266
  0.29610000000000003          126.17893981933594
  0.29720000000000002          125.77431488037109
  0.29830000000000001          125.39436340332031
  0.29940000000000000          125.05075836181641
  0.30050000000000004          124.75540924072266
  0.30160000000000003          124.49345397949219
  0.30270000000000002          124.24961090087891
  0.30380000000000001          124.01693725585938
  0.30490000000000000          123.81164550781250
  0.30599999999999999          123.64889526367188
  0.30709999999999998          123.53919219970703
  0.30819999999999997          123.46485137939453
  0.30930000000000007          123.41622924804688
  0.31040000000000006          123.38983154296875
  0.31150000000000005          123.39559936523438
  0.31260000000000004          123.45760345458984
  0.31370000000000003          123.57320404052734
  0.31480000000000002          123.72551727294922
  0.31590000000000001          123.90004730224609
  0.31700000000000000          124.09815979003906
  0.31809999999999999          124.32825469970703
  0.31919999999999998          124.61439514160156
  0.32029999999999997          124.95105743408203
  0.32140000000000007          125.32100677490234
  0.32250000000000006          125.70794677734375
  0.32360000000000005          126.11466217041016
  0.32470000000000004          126.56201934814453
  0.32580000000000003          127.06511688232422
  0.32690000000000002          127.61849212646484
  0.32800000000000001          128.20121765136719
  0.32910000000000000          128.79743957519531
  0.33019999999999999          129.39871215820312
  0.33129999999999998          130.02900695800781
  0.33239999999999997          130.69676208496094
  0.33350000000000007          131.38868713378906
  0.33460000000000006          132.08566284179688
  0.33570000000000005          132.77232360839844
  0.33680000000000004          133.47254943847656
  0.33790000000000003          134.21389770507812
  0.33900000000000002          135.01185607910156
  0.34010000000000001          135.83775329589844
  0.34120000000000000          136.64755249023438
  0.34229999999999999          137.42156982421875
  0.34339999999999998          138.17225646972656
  0.34449999999999997          138.92872619628906
  0.34560000000000007          139.71096801757812
  0.34670000000000006          140.50831604003906
  0.34780000000000005          141.29374694824219
  0.34890000000000004          142.05290222167969
