 -0.20000000000000001          0.0000000000000000
 -0.19890000000000002          0.0000000000000000
 -0.19780000000000000          0.0000000000000000
 -0.19670000000000001          0.0000000000000000
 -0.19560000000000002          0.0000000000000000
 -0.19450000000000001          1.7961399715098729E-014
 -0.19340000000000002          7.0640521698208169E-014
 -0.19230000000000000          2.1933625943018286E-015
 -0.19120000000000001         -6.3578531545385104E-013
 -0.19010000000000002         -1.9724308991665562E-012
 -0.18900000000000000         -2.3472324344606909E-012
 -0.18790000000000001          2.1065777160846514E-012
 -0.18680000000000002          1.3780550485454193E-011
 -0.18570000000000000          2.6213307566249382E-011
 -0.18460000000000001          2.0748658000061047E-011
 -0.18350000000000000         -2.2007326516692577E-011
 -0.18240000000000001         -9.5640280417535556E-011
 -0.18130000000000002         -1.4724994834570481E-010
 -0.18020000000000000         -9.5626041807244028E-011
 -0.17910000000000001          9.9228326944098203E-011
 -0.17800000000000002          3.5539671205954506E-010
 -0.17690000000000000          4.6268394671144811E-010
 -0.17580000000000001          2.1529658611459802E-010
 -0.17470000000000002         -3.6258512858825540E-010
 -0.17360000000000000         -8.8346202575801507E-010
 -0.17250000000000001         -7.6981843122307905E-010
 -0.17140000000000000          2.4260310427257825E-010
 -0.17030000000000001          1.5982962731086586E-009
 -0.16920000000000002          1.9642978354989391E-009
 -0.16810000000000000          1.4036505291332422E-010
 -0.16700000000000001         -3.5717755419999699E-009
 -0.16589999999999999         -6.6820051713982648E-009
 -0.16480000000000000         -5.6051776553525682E-009
 -0.16370000000000001          1.5686515419964666E-009
 -0.16260000000000002          1.2428188256308561E-008
 -0.16150000000000000          2.0223815511141936E-008
 -0.16040000000000001          1.7566344823189950E-008
 -0.15930000000000000          1.9605028711534510E-009
 -0.15820000000000001         -2.0900941422040672E-008
 -0.15710000000000002         -3.9262637585574131E-008
 -0.15600000000000000         -4.2099625119356375E-008
 -0.15490000000000001         -2.5869763220496530E-008
 -0.15379999999999999          3.7768117522271127E-009
 -0.15270000000000000          3.6187273622082301E-008
 -0.15160000000000001          6.1571078902030010E-008
 -0.15050000000000002          7.3290131297203534E-008
 -0.14940000000000001          6.5825425110698394E-008
 -0.14830000000000002          3.3398983134708756E-008
 -0.14720000000000000         -2.5360197497554260E-008
 -0.14610000000000001         -9.8196188957916662E-008
 -0.14500000000000002         -1.5511525930379939E-007
 -0.14390000000000000         -1.5913431639091749E-007
 -0.14280000000000001         -9.0349061565553847E-008
 -0.14169999999999999          3.2765946400588820E-008
 -0.14060000000000000          1.5467273328796869E-007
 -0.13950000000000001          2.1252084536625900E-007
 -0.13840000000000002          1.7707637312011069E-007
 -0.13730000000000001          7.4703272900901872E-008
 -0.13619999999999999         -2.9005853718905795E-008
 -0.13510000000000000         -7.4908768965518660E-008
 -0.13400000000000001         -5.2336538658402878E-008
 -0.13290000000000002         -5.5086508687744806E-009
 -0.13180000000000000          1.1121357168346689E-009
 -0.13070000000000001         -6.7291452410284590E-008
 -0.12959999999999999         -1.8775627097514531E-007
 -0.12850000000000000         -2.9300508685991671E-007
 -0.12740000000000001         -3.1542032274951971E-007
 -0.12630000000000002         -2.2989516423871963E-007
 -0.12520000000000001         -6.7692425886865480E-008
 -0.12410000000000000          1.0426229124503061E-007
 -0.12300000000000001          2.2141031763562430E-007
 -0.12190000000000001          2.5135406644944989E-007
 -0.12080000000000000          1.9868147660416831E-007
 -0.11970000000000000          8.6084199324456578E-008
 -0.11860000000000001         -7.1032552284544877E-008
 -0.11750000000000001         -2.7431300964052820E-007
 -0.11640000000000000         -5.2468550393317002E-007
 -0.11530000000000000         -7.8720853480267298E-007
 -0.11420000000000001         -9.6945234417946248E-007
 -0.11310000000000001         -9.4547903017879854E-007
 -0.11200000000000000         -6.2946992329664070E-007
 -0.11090000000000001         -5.9500976590181446E-008
 -0.10980000000000001          5.7305777545480672E-007
 -0.10870000000000000          9.9038004464085698E-007
 -0.10760000000000000          9.6859218956515507E-007
 -0.10650000000000001          4.6822421495556638E-007
 -0.10540000000000001         -3.3375832231285585E-007
 -0.10430000000000000         -1.1357753919582486E-006
 -0.10320000000000000         -1.6668341231706446E-006
 -0.10210000000000001         -1.8042914007310076E-006
 -0.10100000000000001         -1.5905958434814695E-006
  -9.9900000000000003E-002    -1.1661701364574330E-006
  -9.8799999999999999E-002    -6.8934758701292588E-007
  -9.7700000000000009E-002    -2.9892271413698982E-007
  -9.6600000000000005E-002    -1.1472189243017303E-007
  -9.5500000000000002E-002    -2.3110492008977345E-007
  -9.4400000000000012E-002    -6.7718906393564899E-007
  -9.3300000000000008E-002    -1.3715765589950357E-006
  -9.2200000000000004E-002    -2.1266207568260685E-006
  -9.1100000000000000E-002    -2.7237015274295634E-006
  -9.0000000000000011E-002    -3.0171947855706471E-006
  -8.8900000000000007E-002    -2.9950401767564701E-006
  -8.7800000000000003E-002    -2.7591468096943687E-006
  -8.6699999999999999E-002    -2.4545931864849999E-006
  -8.5600000000000009E-002    -2.2080309918237549E-006
  -8.4500000000000006E-002    -2.1067949091957336E-006
  -8.3400000000000002E-002    -2.1990117602399487E-006
  -8.2299999999999998E-002    -2.4816163204377441E-006
  -8.1200000000000008E-002    -2.8800127438444043E-006
  -8.0100000000000005E-002    -3.2617856504657399E-006
  -7.9000000000000001E-002    -3.5107891562802357E-006
  -7.7899999999999997E-002    -3.6226058455213841E-006
  -7.6800000000000007E-002    -3.7366944525275630E-006
  -7.5700000000000003E-002    -4.0564818846179562E-006
  -7.4600000000000000E-002    -4.7052012632776425E-006
  -7.3500000000000010E-002    -5.6334529290325017E-006
  -7.2399999999999992E-002    -6.6587358560354415E-006
  -7.1300000000000002E-002    -7.6040219028072677E-006
  -7.0200000000000012E-002    -8.4171915659681623E-006
  -6.9099999999999995E-002    -9.1771944426001524E-006
  -6.8000000000000005E-002    -1.0002183444157847E-005
  -6.6900000000000015E-002    -1.0957837730529784E-005
  -6.5799999999999997E-002    -1.2042070011375465E-005
  -6.4700000000000008E-002    -1.3227726412878834E-005
  -6.3599999999999990E-002    -1.4485172869172018E-005
  -6.2500000000000000E-002    -1.5750352758914378E-005
  -6.1400000000000010E-002    -1.6895126464078355E-005
  -6.0299999999999992E-002    -1.7781698261387724E-005
  -5.9200000000000003E-002    -1.8395212464383820E-005
  -5.8100000000000013E-002    -1.8936012565973255E-005
  -5.6999999999999995E-002    -1.9747529222513705E-005
  -5.5900000000000005E-002    -2.1094667317811661E-005
  -5.4800000000000015E-002    -2.2963844457990747E-005
  -5.3699999999999998E-002    -2.5066214220714898E-005
  -5.2600000000000008E-002    -2.7057718398282328E-005
  -5.1499999999999990E-002    -2.8792308512493057E-005
  -5.0400000000000000E-002    -3.0394336135941703E-005
  -4.9300000000000010E-002    -3.2105665013660030E-005
  -4.8199999999999993E-002    -3.4077416785294509E-005
  -4.7100000000000003E-002    -3.6310651921667389E-005
  -4.6000000000000013E-002    -3.8779351598350453E-005
  -4.4899999999999995E-002    -4.1568851884221787E-005
  -4.3800000000000006E-002    -4.4837765017291795E-005
  -4.2699999999999988E-002    -4.8614816478221159E-005
  -4.1599999999999998E-002    -5.2638770284830088E-005
  -4.0500000000000008E-002    -5.6450502597727153E-005
  -3.9399999999999991E-002    -5.9705631429096813E-005
  -3.8300000000000001E-002    -6.2450882978737490E-005
  -3.7200000000000011E-002    -6.5110092691611837E-005
  -3.6099999999999993E-002    -6.8184512201697190E-005
  -3.5000000000000003E-002    -7.1922971983440871E-005
  -3.3900000000000013E-002    -7.6235395681579195E-005
  -3.2799999999999996E-002    -8.0872225225903433E-005
  -3.1700000000000006E-002    -8.5653373389505107E-005
  -3.0599999999999988E-002    -9.0521847596392429E-005
  -2.9499999999999998E-002    -9.5418399723712924E-005
  -2.8400000000000009E-002    -1.0018039756687422E-004
  -2.7299999999999991E-002    -1.0463436774443889E-004
  -2.6200000000000001E-002    -1.0881254274863789E-004
  -2.5100000000000011E-002    -1.1305234511382917E-004
  -2.3999999999999994E-002    -1.1782703950302734E-004
  -2.2900000000000004E-002    -1.2342036643531257E-004
  -2.1800000000000014E-002    -1.2973241973668429E-004
  -2.0699999999999996E-002    -1.3639028475154273E-004
  -1.9600000000000006E-002    -1.4304467185866153E-004
  -1.8499999999999989E-002    -1.4957222447264999E-004
  -1.7399999999999999E-002    -1.5601306222379281E-004
  -1.6300000000000009E-002    -1.6236834926530811E-004
  -1.5199999999999991E-002    -1.6850560496095666E-004
  -1.4100000000000001E-002    -1.7428962746635163E-004
  -1.3000000000000012E-002    -1.7979340918827875E-004
  -1.1899999999999994E-002    -1.8530835222918619E-004
  -1.0800000000000004E-002    -1.9113032612949705E-004
  -9.6999999999999864E-003    -1.9729684572667000E-004
  -8.5999999999999965E-003    -2.0357182074803981E-004
  -7.5000000000000067E-003    -2.0967370073776801E-004
  -6.3999999999999890E-003    -2.1552365797106269E-004
  -5.2999999999999992E-003    -2.2123532835394236E-004
  -4.2000000000000093E-003    -2.2687543241772909E-004
  -3.0999999999999917E-003    -2.3226054327096917E-004
  -2.0000000000000018E-003    -2.3706715728622060E-004
  -9.0000000000001190E-004    -2.4114904226735354E-004
   2.0000000000000573E-004    -2.4475602549500866E-004
   1.2999999999999956E-003    -2.4834737996570874E-004
   2.4000000000000132E-003    -2.5219155941158663E-004
   3.5000000000000031E-003    -2.5608905707486126E-004
   4.5999999999999930E-003    -2.5953527074307350E-004
   5.7000000000000106E-003    -2.6214751414954792E-004
   6.8000000000000005E-003    -2.6393780717626328E-004
   7.8999999999999904E-003    -2.6516517391428465E-004
   9.0000000000000080E-003    -2.6591186178848283E-004
   1.0099999999999998E-002    -2.6586354942992481E-004
   1.1199999999999988E-002    -2.6455073384568247E-004
   1.2300000000000005E-002    -2.6180903660133611E-004
   1.3399999999999995E-002    -2.5798592832870890E-004
   1.4500000000000013E-002    -2.5364273460582013E-004
   1.5600000000000003E-002    -2.4902066797949509E-004
   1.6699999999999993E-002    -2.4378046509809949E-004
   1.7800000000000010E-002    -2.3731909459456959E-004
   1.8900000000000000E-002    -2.2929348051548140E-004
   1.9999999999999990E-002    -2.1988285880070285E-004
   2.1100000000000008E-002    -2.0950217731297116E-004
   2.2199999999999998E-002    -1.9829627126455426E-004
   2.3300000000000015E-002    -1.8594591529108722E-004
   2.4400000000000005E-002    -1.7193665553350143E-004
   2.5499999999999995E-002    -1.5608400281053156E-004
   2.6600000000000013E-002    -1.3872080307919624E-004
   2.7700000000000002E-002    -1.2033914390485815E-004
   2.8799999999999992E-002    -1.0111664596479480E-004
   2.9900000000000010E-002    -8.0747362517287217E-005
   3.1000000000000000E-002    -5.8719127991936370E-005
   3.2099999999999990E-002    -3.4799570130418031E-005
   3.3200000000000007E-002    -9.1244137365726317E-006
   3.4299999999999997E-002     1.8090255252900096E-005
   3.5400000000000015E-002     4.6867215132805976E-005
   3.6500000000000005E-002     7.7508113463408662E-005
   3.7599999999999995E-002     1.1019733938155633E-004
   3.8700000000000012E-002     1.4473132614511950E-004
   3.9800000000000002E-002     1.8059193098451918E-004
   4.0899999999999992E-002     2.1736659982707343E-004
   4.2000000000000010E-002     2.5508675025776023E-004
   4.3099999999999999E-002     2.9410628485493351E-004
   4.4200000000000017E-002     3.3469393383711571E-004
   4.5300000000000007E-002     3.7677382351830607E-004
   4.6399999999999997E-002     4.2005997966043684E-004
   4.7500000000000014E-002     4.6448686043731917E-004
   4.8600000000000004E-002     5.1023444393649752E-004
   4.9699999999999994E-002     5.5753072956577019E-004
   5.0800000000000012E-002     6.0618808493018215E-004
   5.1900000000000002E-002     6.5561372321099119E-004
   5.2999999999999992E-002     7.0519116707146254E-004
   5.4099999999999981E-002     7.5484003173187483E-004
   5.5200000000000027E-002     8.0504262587055672E-004
   5.6300000000000017E-002     8.5627683438360810E-004
   5.7400000000000007E-002     9.0848526451736830E-004
   5.8499999999999996E-002     9.6107844728976629E-004
   5.9599999999999986E-002     1.0134504409506932E-003
   6.0700000000000032E-002     1.0654827347025293E-003
   6.1800000000000022E-002     1.1175556574016827E-003
   6.2900000000000011E-002     1.1699462775141018E-003
   6.4000000000000001E-002     1.2222842779010554E-003
   6.5099999999999991E-002     1.2737094657495637E-003
   6.6199999999999981E-002     1.3235294027254009E-003
   6.7300000000000026E-002     1.3717163819819713E-003
   6.8400000000000016E-002     1.4188630739226959E-003
   6.9500000000000006E-002     1.4654003316536570E-003
   7.0599999999999996E-002     1.5110155800357487E-003
   7.1699999999999986E-002     1.5548550290986922E-003
   7.2800000000000031E-002     1.5962409088388114E-003
   7.3900000000000021E-002     1.6352185048162963E-003
   7.5000000000000011E-002     1.6723804874345686E-003
   7.6100000000000001E-002     1.7080929828807740E-003
   7.7199999999999991E-002     1.7418960342183737E-003
   7.8299999999999981E-002     1.7728159436956076E-003
   7.9400000000000026E-002     1.8001446733251242E-003
   8.0500000000000016E-002     1.8240303033962874E-003
   8.1600000000000006E-002     1.8451416399329931E-003
   8.2699999999999996E-002     1.8639273475855617E-003
   8.3799999999999986E-002     1.8800622783601312E-003
   8.4900000000000031E-002     1.8927017226815252E-003
   8.6000000000000021E-002     1.9012255361303717E-003
   8.7100000000000011E-002     1.9057028694078357E-003
   8.8200000000000001E-002     1.9066106760874419E-003
   8.9299999999999990E-002     1.9041667692363290E-003
   9.0399999999999980E-002     1.8980044405907421E-003
   9.1500000000000026E-002     1.8875134410336642E-003
   9.2600000000000016E-002     1.8724546534940626E-003
   9.3700000000000006E-002     1.8532180693000581E-003
   9.4799999999999995E-002     1.8303960096091058E-003
   9.5899999999999985E-002     1.8041534349322345E-003
   9.7000000000000031E-002     1.7740734620019820E-003
   9.8100000000000021E-002     1.7395854229107521E-003
   9.9200000000000010E-002     1.7005407717078946E-003
  0.10030000000000000          1.6573705943301340E-003
  0.10139999999999999          1.6105634858831785E-003
  0.10249999999999998          1.5602611238136907E-003
  0.10360000000000003          1.5062144957482834E-003
  0.10470000000000002          1.4482926344499007E-003
  0.10580000000000001          1.3868131209164873E-003
  0.10690000000000000          1.3223621062934412E-003
  0.10799999999999998          1.2551551917567862E-003
  0.10910000000000003          1.1848713038489236E-003
  0.11020000000000002          1.1108985636383308E-003
  0.11130000000000001          1.0330938966944822E-003
  0.11240000000000000          9.5209281425923174E-004
  0.11349999999999999          8.6898455629125303E-004
  0.11460000000000004          7.8435405157506531E-004
  0.11570000000000003          6.9799501216039116E-004
  0.11680000000000001          6.0956750530749603E-004
  0.11790000000000000          5.1905051805079005E-004
  0.11899999999999999          4.2711969581432630E-004
  0.12009999999999998          3.3455147058702978E-004
  0.12120000000000003          2.4150827084667954E-004
  0.12230000000000002          1.4744640793651315E-004
  0.12340000000000001          5.1945469749625454E-005
  0.12450000000000000         -4.4731601519743475E-005
  0.12559999999999999         -1.4146071043796911E-004
  0.12670000000000003         -2.3701295140199453E-004
  0.12780000000000002         -3.3096206607297160E-004
  0.12890000000000001         -4.2384504922665753E-004
  0.13000000000000000         -5.1626801723614422E-004
  0.13109999999999999         -6.0816266341135014E-004
  0.13219999999999998         -6.9877645000815511E-004
  0.13330000000000003         -7.8727613436058305E-004
  0.13440000000000002         -8.7357539450749907E-004
  0.13550000000000001         -9.5824012532830379E-004
  0.13660000000000000         -1.0416409932076946E-003
  0.13769999999999999         -1.1233084369450821E-003
  0.13880000000000003         -1.2020525755360738E-003
  0.13990000000000002         -1.2768887681886571E-003
  0.14100000000000001         -1.3477568281814473E-003
  0.14210000000000000         -1.4153615338727849E-003
  0.14319999999999999         -1.4802741352468746E-003
  0.14429999999999998         -1.5425143064931052E-003
  0.14540000000000003         -1.6011834377422946E-003
  0.14650000000000002         -1.6557466005906482E-003
  0.14760000000000001         -1.7063154373317974E-003
  0.14870000000000000         -1.7535032238811274E-003
  0.14979999999999999         -1.7975117079913636E-003
  0.15090000000000003         -1.8379207467660323E-003
  0.15200000000000002         -1.8736796919256468E-003
  0.15310000000000001         -1.9045217195525783E-003
  0.15420000000000000         -1.9308276241645232E-003
  0.15529999999999999         -1.9534099847078345E-003
  0.15639999999999998         -1.9727384205907601E-003
  0.15750000000000003         -1.9884051289409416E-003
  0.15860000000000002         -1.9998317584395426E-003
  0.15970000000000001         -2.0069400779902948E-003
  0.16080000000000000         -2.0103794522583502E-003
  0.16189999999999999         -2.0104993600398319E-003
  0.16300000000000003         -2.0073731429874910E-003
  0.16410000000000002         -2.0004976540803922E-003
  0.16520000000000001         -1.9894256256520761E-003
  0.16630000000000000         -1.9743146840482968E-003
  0.16739999999999999         -1.9560120999813089E-003
  0.16850000000000004         -1.9352536182850610E-003
  0.16960000000000003         -1.9118416821584114E-003
  0.17070000000000002         -1.8851900240406405E-003
  0.17180000000000001         -1.8550691893324265E-003
  0.17290000000000000         -1.8217780161648997E-003
  0.17399999999999999         -1.7862034728750595E-003
  0.17510000000000003         -1.7491433536633856E-003
  0.17620000000000002         -1.7102753045037395E-003
  0.17730000000000001         -1.6691221389919524E-003
  0.17840000000000000         -1.6253958456218249E-003
  0.17949999999999999         -1.5796861844137315E-003
  0.18060000000000004         -1.5328347217291598E-003
  0.18170000000000003         -1.4854549663141374E-003
  0.18280000000000002         -1.4371598372235896E-003
  0.18390000000000001         -1.3872937997803094E-003
  0.18500000000000000         -1.3356544077396393E-003
  0.18609999999999999         -1.2829640181735160E-003
  0.18720000000000003         -1.2300128582865004E-003
  0.18830000000000002         -1.1773396981880069E-003
  0.18940000000000001         -1.1245955247431993E-003
  0.19050000000000000         -1.0713083902373908E-003
  0.19159999999999999         -1.0174587368965149E-003
  0.19270000000000004         -9.6354784909635771E-004
  0.19380000000000003         -9.1033801436424255E-004
  0.19490000000000002         -8.5804110858589411E-004
  0.19600000000000001         -8.0616743071004727E-004
  0.19710000000000000         -7.5417076004669038E-004
  0.19819999999999999         -7.0214673178270427E-004
  0.19930000000000003         -6.5052247373387196E-004
  0.20040000000000002         -6.0011644382029750E-004
  0.20150000000000001         -5.5116933071985830E-004
  0.20260000000000000         -5.0345918862149098E-004
  0.20369999999999999         -4.5681817573495177E-004
  0.20480000000000004         -4.1126526775769851E-004
  0.20590000000000003         -3.6736490437760917E-004
  0.20700000000000002         -3.2500101951882221E-004
  0.20810000000000001         -2.8390961233526452E-004
  0.20920000000000000         -2.4355889763683064E-004
  0.21029999999999999         -2.0378420595079636E-004
  0.21140000000000003         -1.6482117644045469E-004
  0.21250000000000002         -1.2727701687253982E-004
  0.21360000000000001         -9.1431073087733022E-005
  0.21470000000000000         -5.7276494771940485E-005
  0.21579999999999999         -2.4548880901420350E-005
  0.21690000000000004          6.7476294134395934E-006
  0.21800000000000003          3.6220404581399817E-005
  0.21910000000000002          6.3746854721103013E-005
  0.22020000000000001          8.9612753072287955E-005
  0.22130000000000000          1.1477488442324105E-004
  0.22239999999999999          1.3967386621516201E-004
  0.22350000000000003          1.6396162391174590E-004
  0.22460000000000002          1.8688576528802519E-004
  0.22570000000000001          2.0768585090991107E-004
  0.22680000000000000          2.2643285046797238E-004
  0.22789999999999999          2.4398483219556500E-004
  0.22900000000000004          2.6090178289450694E-004
  0.23010000000000003          2.7707184199243773E-004
  0.23120000000000002          2.9194445232860728E-004
  0.23230000000000001          3.0513093224726596E-004
  0.23340000000000000          3.1685756403021493E-004
  0.23450000000000004          3.2802243367768802E-004
  0.23560000000000003          3.3928826451301553E-004
  0.23670000000000002          3.5045863478444495E-004
  0.23780000000000001          3.6067247856408331E-004
  0.23890000000000000          3.6937231197953186E-004
  0.23999999999999999          3.7670950405299626E-004
  0.24110000000000004          3.8318030419759404E-004
  0.24220000000000003          3.8950543967075597E-004
  0.24330000000000002          3.9565711631439583E-004
  0.24440000000000001          4.0112907299771856E-004
  0.24550000000000000          4.0565931703895282E-004
  0.24660000000000004          4.0932887350209009E-004
  0.24770000000000003          4.1263154707848972E-004
  0.24880000000000002          4.1590578621253312E-004
  0.24990000000000001          4.1909041465260029E-004
  0.25100000000000000          4.2189468513242835E-004
  0.25209999999999999          4.2406641296110982E-004
  0.25320000000000004          4.2561552254483039E-004
  0.25430000000000003          4.2689303518272866E-004
  0.25540000000000002          4.2809755541384144E-004
  0.25650000000000001          4.2923356522805913E-004
  0.25760000000000000          4.3032559915445675E-004
  0.25870000000000004          4.3118264875374664E-004
  0.25980000000000003          4.3193667079321980E-004
  0.26090000000000002          4.3242660467512841E-004
  0.26200000000000001          4.3260114034637733E-004
  0.26310000000000000          4.3219450162723579E-004
  0.26419999999999999          4.3160235509276303E-004
  0.26530000000000004          4.3104102951474406E-004
  0.26640000000000003          4.3077897862531174E-004
  0.26750000000000002          4.3074987479485501E-004
  0.26860000000000001          4.3054792331531563E-004
  0.26970000000000000          4.2996538104489364E-004
  0.27080000000000004          4.2920091073028657E-004
  0.27190000000000003          4.2863594717346056E-004
  0.27300000000000002          4.2825867421925003E-004
  0.27410000000000001          4.2757409391924674E-004
  0.27520000000000000          4.2627344373613520E-004
  0.27629999999999999          4.2422258411534049E-004
  0.27740000000000004          4.2202812619507231E-004
  0.27850000000000003          4.2048995965160354E-004
  0.27960000000000002          4.1985133429989154E-004
  0.28070000000000001          4.1968765435740292E-004
  0.28179999999999999          4.1923491517081797E-004
  0.28290000000000004          4.1801732731983001E-004
  0.28400000000000003          4.1618788964115018E-004
  0.28510000000000002          4.1418467299081331E-004
  0.28620000000000001          4.1233800584450321E-004
  0.28730000000000000          4.1045682155527131E-004
  0.28840000000000005          4.0809670463204330E-004
  0.28950000000000004          4.0523265488445699E-004
  0.29060000000000002          4.0217355126514977E-004
  0.29170000000000001          3.9955432293936561E-004
  0.29280000000000000          3.9751076838001576E-004
  0.29389999999999999          3.9576954441145030E-004
  0.29500000000000004          3.9360288064926825E-004
  0.29610000000000003          3.9078338886611120E-004
  0.29720000000000002          3.8730283267796002E-004
  0.29830000000000001          3.8369302637875058E-004
  0.29940000000000000          3.8013848825357849E-004
  0.30050000000000004          3.7637923378497357E-004
  0.30160000000000003          3.7228644941933431E-004
  0.30270000000000002          3.6786415148526403E-004
  0.30380000000000001          3.6332540912553646E-004
  0.30490000000000000          3.5881201620213682E-004
  0.30599999999999999          3.5453264717943977E-004
  0.30709999999999998          3.5030709113925712E-004
  0.30819999999999997          3.4601546940393751E-004
  0.30930000000000007          3.4143816446885461E-004
  0.31040000000000006          3.3652241108939052E-004
  0.31150000000000005          3.3102647284977154E-004
  0.31260000000000004          3.2504164846614041E-004
  0.31370000000000003          3.1862454488873520E-004
  0.31480000000000002          3.1210729503072820E-004
  0.31590000000000001          3.0572537798434507E-004
  0.31700000000000000          2.9946491122245799E-004
  0.31809999999999999          2.9311230173334506E-004
  0.31919999999999998          2.8624621336348404E-004
  0.32029999999999997          2.7899155975319499E-004
  0.32140000000000007          2.7177779702469750E-004
  0.32250000000000006          2.6488103321753475E-004
  0.32360000000000005          2.5847810320556196E-004
  0.32470000000000004          2.5196271599270452E-004
  0.32580000000000003          2.4480916908942228E-004
  0.32690000000000002          2.3681715538259666E-004
  0.32800000000000001          2.2849671950098192E-004
  0.32910000000000000          2.2046055528335325E-004
  0.33019999999999999          2.1289483993314258E-004
  0.33129999999999998          2.0527848391793728E-004
  0.33239999999999997          1.9705337763298379E-004
  0.33350000000000007          1.8814533541444770E-004
  0.33460000000000006          1.7880856466945337E-004
  0.33570000000000005          1.6979027714114701E-004
  0.33680000000000004          1.6130754374899032E-004
  0.33790000000000003          1.5313920448534267E-004
  0.33900000000000002          1.4486222062260002E-004
  0.34010000000000001          1.3612365000881352E-004
  0.34120000000000000          1.2711860472336501E-004
  0.34229999999999999          1.1812630691565656E-004
  0.34339999999999998          1.0911312710959544E-004
  0.34449999999999997          9.9920420325362060E-005
  0.34560000000000007          9.0281042503193997E-005
  0.34670000000000006          8.0417674325873243E-005
  0.34780000000000005          7.0551475801040476E-005
  0.34890000000000004          6.0844766267110611E-005
