 -0.20000000000000001          0.0000000000000000
 -0.19890000000000002          0.0000000000000000
 -0.19780000000000000          0.0000000000000000
 -0.19670000000000001          0.0000000000000000
 -0.19560000000000002          0.0000000000000000
 -0.19450000000000001         -1.1358575885409803E-010
 -0.19340000000000002         -1.2035058505332158E-009
 -0.19230000000000000         -4.7840940098352935E-009
 -0.19120000000000001         -7.9418818188519338E-009
 -0.19010000000000002          5.0103579063413384E-009
 -0.18900000000000000          5.3997339932718029E-008
 -0.18790000000000001          1.1792749887717923E-007
 -0.18680000000000002          9.0256563112243448E-008
 -0.18570000000000000         -1.5892184990204994E-007
 -0.18460000000000001         -5.7230550964957176E-007
 -0.18350000000000000         -7.4475514111327568E-007
 -0.18240000000000001         -1.6298614013982111E-007
 -0.18130000000000002          1.1275933502473741E-006
 -0.18020000000000000          2.1010671389375580E-006
 -0.17910000000000001          1.4569819768439828E-006
 -0.17800000000000002         -7.3018713919717725E-007
 -0.17690000000000000         -2.2576948595084820E-006
 -0.17580000000000001         -8.1052024825094429E-007
 -0.17470000000000002          2.2974827516007507E-006
 -0.17360000000000000          1.2625225735968792E-006
 -0.17250000000000001         -8.3838194768764182E-006
 -0.17140000000000000         -2.0650057194870771E-005
 -0.17030000000000001         -1.7686414139460674E-005
 -0.16920000000000002          1.5405483281939786E-005
 -0.16810000000000000          6.7183449573349668E-005
 -0.16700000000000001          9.2338894319252994E-005
 -0.16589999999999999          4.0527524106433017E-005
 -0.16480000000000000         -8.9766115706884186E-005
 -0.16370000000000001         -2.1963697508908903E-004
 -0.16260000000000002         -2.2729835473000445E-004
 -0.16150000000000000         -4.7977384383545811E-005
 -0.16040000000000001          2.4033748195507863E-004
 -0.15930000000000000          4.3736054794863414E-004
 -0.15820000000000001          3.6359118530526074E-004
 -0.15710000000000002          2.4467241018991936E-005
 -0.15600000000000000         -3.5624849260787044E-004
 -0.15490000000000001         -4.9664254765959480E-004
 -0.15379999999999999         -2.9850366991013890E-004
 -0.15270000000000000          4.5144428440845667E-005
 -0.15160000000000001          2.0470285380727406E-004
 -0.15050000000000002          2.5076868041688386E-005
 -0.14940000000000001         -2.8736478998321792E-004
 -0.14830000000000002         -3.1181049416770164E-004
 -0.14720000000000000          1.8842775898519958E-004
 -0.14610000000000001          9.6268864581357521E-004
 -0.14500000000000002          1.3830451061948403E-003
 -0.14390000000000000          9.4257341697804036E-004
 -0.14280000000000001         -2.5803525932138153E-004
 -0.14169999999999999         -1.4873449690639882E-003
 -0.14060000000000000         -1.9113405141978810E-003
 -0.13950000000000001         -1.2701000086962329E-003
 -0.13840000000000002         -1.2324612180230848E-004
 -0.13730000000000001          5.8611802523956646E-004
 -0.13619999999999999          3.1927396776152263E-004
 -0.13510000000000000         -5.7627644855530382E-004
 -0.13400000000000001         -1.1184760369360115E-003
 -0.13290000000000002         -4.9082731129594225E-004
 -0.13180000000000000          1.2681492371485275E-003
 -0.13070000000000001          3.2671778462827093E-003
 -0.12959999999999999          4.4647487811742981E-003
 -0.12850000000000000          4.4955522753296132E-003
 -0.12740000000000001          3.9391373284158688E-003
 -0.12630000000000002          3.8084927946327230E-003
 -0.12520000000000001          4.6761399134992642E-003
 -0.12410000000000000          6.1519094742834603E-003
 -0.12300000000000001          7.1461121551693067E-003
 -0.12190000000000001          6.7259790375829367E-003
 -0.12080000000000000          4.8991194926202714E-003
 -0.11970000000000000          2.7037649415433598E-003
 -0.11860000000000001          1.5154760330915453E-003
 -0.11750000000000001          2.0883653778582430E-003
 -0.11640000000000000          4.0664584375916628E-003
 -0.11530000000000000          6.3463789410886364E-003
 -0.11420000000000001          8.0008776858444576E-003
 -0.11310000000000001          9.0065887197846913E-003
 -0.11200000000000000          1.0156069882213629E-002
 -0.11090000000000001          1.2208688072860054E-002
 -0.10980000000000001          1.5015709213912626E-002
 -0.10870000000000000          1.7444016411900895E-002
 -0.10760000000000000          1.8274124711752309E-002
 -0.10650000000000001          1.7366351559758287E-002
 -0.10540000000000001          1.6055542975663802E-002
 -0.10430000000000000          1.6319064423441138E-002
 -0.10320000000000000          1.9321767613290748E-002
 -0.10210000000000001          2.4540899321435879E-002
 -0.10100000000000001          3.0225038528441554E-002
  -9.9900000000000003E-002     3.4791741520165807E-002
  -9.8799999999999999E-002     3.7953518331050512E-002
  -9.7700000000000009E-002     4.0646769106387863E-002
  -9.6600000000000005E-002     4.3967563658952505E-002
  -9.5500000000000002E-002     4.8212379217147494E-002
  -9.4400000000000012E-002     5.2917689085006117E-002
  -9.3300000000000008E-002     5.7713065296410564E-002
  -9.2200000000000004E-002     6.2959618866442357E-002
  -9.1100000000000000E-002     6.9421857595442199E-002
  -9.0000000000000011E-002     7.7328875660894664E-002
  -8.8900000000000007E-002     8.5927061736582086E-002
  -8.7800000000000003E-002     9.4157576560972567E-002
  -8.6699999999999999E-002    0.10184432566165771
  -8.5600000000000009E-002    0.11010204255580744
  -8.4500000000000006E-002    0.12039215117692774
  -8.3400000000000002E-002    0.13310889899730483
  -8.2299999999999998E-002    0.14720818400382760
  -8.1200000000000008E-002    0.16139152646064478
  -8.0100000000000005E-002    0.17566703259944602
  -7.9000000000000001E-002    0.19154603779315613
  -7.7899999999999997E-002    0.21047672629356043
  -7.6800000000000007E-002    0.23208576440810808
  -7.5700000000000003E-002    0.25425964593886957
  -7.4600000000000000E-002    0.27531275153159684
  -7.3500000000000010E-002    0.29615414142608160
  -7.2399999999999992E-002    0.32000428438186096
  -7.1300000000000002E-002    0.34953618049620971
  -7.0200000000000012E-002    0.38413101434706987
  -6.9099999999999995E-002    0.42023783922194746
  -6.8000000000000005E-002    0.45491570234297973
  -6.6900000000000015E-002    0.48921889066695384
  -6.5799999999999997E-002    0.52779793739318004
  -6.4700000000000008E-002    0.57462358474730513
  -6.3599999999999990E-002    0.62883371114729802
  -6.2500000000000000E-002    0.68507540225981534
  -6.1400000000000010E-002    0.73853594064711292
  -6.0299999999999992E-002    0.79002267122267344
  -5.9200000000000003E-002    0.84589868783949407
  -5.8100000000000013E-002    0.91248816251753295
  -5.6999999999999995E-002    0.99016439914701804
  -5.5900000000000005E-002     1.0731173753738230
  -5.4800000000000015E-002     1.1554150581359675
  -5.3699999999999998E-002     1.2375934123992713
  -5.2600000000000008E-002     1.3269931077956927
  -5.1499999999999990E-002     1.4309947490691897
  -5.0400000000000000E-002     1.5495288372039540
  -4.9300000000000010E-002     1.6744618415832246
  -4.8199999999999993E-002     1.7970637083053296
  -4.7100000000000003E-002     1.9166104793548271
  -4.6000000000000013E-002     2.0416753292083407
  -4.4899999999999995E-002     2.1824650764464972
  -4.3800000000000006E-002     2.3415198326110453
  -4.2699999999999988E-002     2.5119669437408034
  -4.1599999999999998E-002     2.6853060722350626
  -4.0500000000000008E-002     2.8610515594481938
  -3.9399999999999991E-002     3.0484082698821506
  -3.8300000000000001E-002     3.2577595710753848
  -3.7200000000000011E-002     3.4901230335235023
  -3.6099999999999993E-002     3.7351849079131472
  -3.5000000000000003E-002     3.9804921150206876
  -3.3900000000000013E-002     4.2232918739318164
  -3.2799999999999996E-002     4.4736166000365474
  -3.1700000000000006E-002     4.7454133033751660
  -3.0599999999999988E-002     5.0442910194396129
  -2.9499999999999998E-002     5.3636884689330149
  -2.8400000000000009E-002     5.6930241584776873
  -2.7299999999999991E-002     6.0294976234435023
  -2.6200000000000001E-002     6.3815093040465243
  -2.5100000000000011E-002     6.7602910995482279
  -2.3999999999999994E-002     7.1681361198424103
  -2.2900000000000004E-002     7.5954074859617879
  -2.1800000000000014E-002     8.0297212600706658
  -2.0699999999999996E-002     8.4683322906492737
  -1.9600000000000006E-002     8.9214639663694797
  -1.8499999999999989E-002     9.4031038284300177
  -1.7399999999999999E-002     9.9183044433592080
  -1.6300000000000009E-002     10.459579467773262
  -1.5199999999999991E-002     11.015713691711239
  -1.4100000000000001E-002     11.583834648132129
  -1.3000000000000012E-002     12.172531127929483
  -1.1899999999999994E-002     12.792701721191191
  -1.0800000000000004E-002     13.445923805236591
  -9.6999999999999864E-003     14.122255325317147
  -8.5999999999999965E-003     14.810141563415280
  -7.5000000000000067E-003     15.508522987365462
  -6.3999999999999890E-003     16.228614807128633
  -5.2999999999999992E-003     16.983411788940142
  -4.2000000000000093E-003     17.775283813476261
  -3.0999999999999917E-003     18.594287872314140
  -2.0000000000000018E-003     19.428791046142251
  -9.0000000000001190E-004     20.277845382690085
   2.0000000000000573E-004     21.152198791503547
   1.2999999999999956E-003     22.063184738158810
   2.4000000000000132E-003     23.010255813598246
   3.5000000000000031E-003     23.980401992797447
   4.5999999999999930E-003     24.960287094115788
   5.7000000000000106E-003     25.949436187743704
   6.8000000000000005E-003     26.960775375365753
   7.8999999999999904E-003     28.007875442504410
   9.0000000000000080E-003     29.091526031493647
   1.0099999999999998E-002     30.198598861693824
   1.1199999999999988E-002     31.314966201781694
   1.2300000000000005E-002     32.439098358153750
   1.3399999999999995E-002     33.583152770995525
   1.4500000000000013E-002     34.760334014891988
   1.5600000000000003E-002     35.970890045165405
   1.6699999999999993E-002     37.200851440429055
   1.7800000000000010E-002     38.434642791747386
   1.8900000000000000E-002     39.669677734374325
   1.9999999999999990E-002     40.918102264403601
   2.1100000000000008E-002     42.194168090819595
   2.2199999999999998E-002     43.499687194823473
   2.3300000000000015E-002     44.821472167967990
   2.4400000000000005E-002     46.143218994139836
   2.5499999999999995E-002     47.459556579589027
   2.6600000000000013E-002     48.779739379881981
   2.7700000000000002E-002     50.116584777831171
   2.8799999999999992E-002     51.472885131835064
   2.9900000000000010E-002     52.837448120116285
   3.1000000000000000E-002     54.195343017577194
   3.2099999999999990E-002     55.540916442870142
   3.3200000000000007E-002     56.881439208983394
   3.4299999999999997E-002     58.228275299071264
   3.5400000000000015E-002     59.585182189940383
   3.6500000000000005E-002     60.943489074705987
   3.7599999999999995E-002     62.290458679198146
   3.8700000000000012E-002     63.619388580321171
   3.9800000000000002E-002     64.934486389159048
   4.0899999999999992E-002     66.244049072264488
   4.2000000000000010E-002     67.550704956053536
   4.3099999999999999E-002     68.847541809080838
   4.4200000000000017E-002     70.124031066893323
   4.5300000000000007E-002     71.374084472655014
   4.6399999999999997E-002     72.600212097166732
   4.7500000000000014E-002     73.808509826658891
   4.8600000000000004E-002     75.001876831053394
   4.9699999999999994E-002     76.176467895506505
   5.0800000000000012E-002     77.324981689451789
   5.1900000000000002E-002     78.443359374998650
   5.2999999999999992E-002     79.532325744627542
   5.4099999999999981E-002     80.594848632811107
   5.5200000000000027E-002     81.630821228025937
   5.6300000000000017E-002     82.636703491209516
   5.7400000000000007E-002     83.607147216795425
   5.8499999999999996E-002     84.540054321287613
   5.9599999999999986E-002     85.437171936033664
   6.0700000000000032E-002     86.302024841307102
   6.1800000000000022E-002     87.135009765623494
   6.2900000000000011E-002     87.934341430662542
   6.4000000000000001E-002     88.695693969725028
   6.5099999999999991E-002     89.417678833006264
   6.6199999999999981E-002     90.100547790525781
   6.7300000000000026E-002     90.745529174803096
   6.8400000000000016E-002     91.352005004881235
   6.9500000000000006E-002     91.918167114256221
   7.0599999999999996E-002     92.441337585447613
   7.1699999999999986E-002     92.921707153318707
   7.2800000000000031E-002     93.361328124998380
   7.3900000000000021E-002     93.763023376463210
   7.5000000000000011E-002     94.128273010252272
   7.6100000000000001E-002     94.456405639646803
   7.7199999999999991E-002     94.746154785154602
   7.8299999999999981E-002     94.995498657224914
   7.9400000000000026E-002     95.204338073728820
   8.0500000000000016E-002     95.374702453611619
   8.1600000000000006E-002     95.508544921873337
   8.2699999999999996E-002     95.606925964353792
   8.3799999999999986E-002     95.669540405271761
   8.4900000000000031E-002     95.694854736326448
   8.6000000000000021E-002     95.683204650877229
   8.7100000000000011E-002     95.637710571287386
   8.8200000000000001E-002     95.562507629392854
   8.9299999999999990E-002     95.460975646970994
   9.0399999999999980E-002     95.333007812498337
   9.1500000000000026E-002     95.175491333006150
   9.2600000000000016E-002     94.985931396482727
   9.3700000000000006E-002     94.765052795408508
   9.4799999999999995E-002     94.517196655271789
   9.5899999999999985E-002     94.247665405271789
   9.7000000000000031E-002     93.958694458006178
   9.8100000000000021E-002     93.647903442381178
   9.9200000000000010E-002     93.312477111814772
  0.10030000000000000          92.953948974607755
  0.10139999999999999          92.577903747556974
  0.10249999999999998          92.191505432127286
  0.10360000000000003          91.798019409178082
  0.10470000000000002          91.394485473631235
  0.10580000000000001          90.974433898924190
  0.10690000000000000          90.535614013670298
  0.10799999999999998          90.082412719724985
  0.10910000000000003          89.622825622557031
  0.11020000000000002          89.162849426267982
  0.11130000000000001          88.701560974119545
  0.11240000000000000          88.233634948728934
  0.11349999999999999          87.755867004393011
  0.11460000000000004          87.271369934080511
  0.11570000000000003          86.788375854490667
  0.11680000000000001          86.312469482420383
  0.11790000000000000          85.842987060545383
  0.11899999999999999          85.373901367186008
  0.12009999999999998          84.900573730467286
  0.12120000000000003          84.424270629881349
  0.12230000000000002          83.952606201170411
  0.12340000000000001          83.491622924803224
  0.12450000000000000          83.043502807615752
  0.12559999999999999          82.604522705076675
  0.12670000000000003          82.169815063475127
  0.12780000000000002          81.738517761229048
  0.12890000000000001          81.315345764158749
  0.13000000000000000          80.904975891111889
  0.13109999999999999          80.509101867674389
  0.13219999999999998          80.124916076658764
  0.13330000000000003          79.749298095701747
  0.13440000000000002          79.379997253416590
  0.13550000000000001          79.018714904783778
  0.13660000000000000          78.668815612791605
  0.13769999999999999          78.332397460936136
  0.13880000000000003          78.010826110838494
  0.13990000000000002          77.702522277830695
  0.14100000000000001          77.406311035154914
  0.14210000000000000          77.121307373045525
  0.14319999999999999          76.848701477049445
  0.14429999999999998          76.588462829588522
  0.14540000000000003          76.342102050779928
  0.14650000000000002          76.108451843260397
  0.14760000000000001          75.886550903319005
  0.14870000000000000          75.673927307127599
  0.14979999999999999          75.471214294432286
  0.15090000000000003          75.280166625975255
  0.15200000000000002          75.101242065428380
  0.15310000000000001          74.935150146483082
  0.15420000000000000          74.781394958494801
  0.15529999999999999          74.637649536131534
  0.15639999999999998          74.502098083494815
  0.15750000000000003          74.376121520994815
  0.15860000000000002          74.260856628416690
  0.15970000000000001          74.156555175779971
  0.16080000000000000          74.060325622557301
  0.16189999999999999          73.970420837401065
  0.16300000000000003          73.885696411131534
  0.16410000000000002          73.807792663572940
  0.16520000000000001          73.738731384276065
  0.16630000000000000          73.680351257322940
  0.16739999999999999          73.629791259764360
  0.16850000000000004          73.583503723143266
  0.16960000000000003          73.539703369139360
  0.17070000000000002          73.502250671385454
  0.17180000000000001          73.473152160643266
  0.17290000000000000          73.453872680662798
  0.17399999999999999          73.439048767088579
  0.17510000000000003          73.423492431639360
  0.17620000000000002          73.406326293944048
  0.17730000000000001          73.392425537108110
  0.17840000000000000          73.386161804197940
  0.17949999999999999          73.388496398924502
  0.18060000000000004          73.392700195311221
  0.18170000000000003          73.392669677733096
  0.18280000000000002          73.386871337889346
  0.18390000000000001          73.379776000975284
  0.18500000000000000          73.379531860350284
  0.18609999999999999          73.388740539549502
  0.18720000000000003          73.400375366209673
  0.18830000000000002          73.405807495115923
  0.18940000000000001          73.402618408201860
  0.19050000000000000          73.396446228026079
  0.19159999999999999          73.395309448240923
  0.19270000000000004          73.402679443358110
  0.19380000000000003          73.409797668455766
  0.19490000000000002          73.408874511717485
  0.19600000000000001          73.394821166990909
  0.19710000000000000          73.375328063963565
  0.19819999999999999          73.359306335447940
  0.19930000000000003          73.350616455076846
  0.20040000000000002          73.344383239744815
  0.20150000000000001          73.328147888182315
  0.20260000000000000          73.296806335447940
  0.20369999999999999          73.256195068358096
  0.20480000000000004          73.213562011717471
  0.20590000000000003          73.174919128416704
  0.20700000000000002          73.133720397947940
  0.20810000000000001          73.081359863279971
  0.20920000000000000          73.013275146483096
  0.21029999999999999          72.933341979979190
  0.21140000000000003          72.850158691404971
  0.21250000000000002          72.769126892088565
  0.21360000000000001          72.687042236326860
  0.21470000000000000          72.595199584959673
  0.21579999999999999          72.489028930662798
  0.21690000000000004          72.371185302733110
  0.21800000000000003          72.246902465819062
  0.21910000000000002          72.117492675779985
  0.22020000000000001          71.980033874510454
  0.22130000000000000          71.827629089354190
  0.22239999999999999          71.658561706541704
  0.22350000000000003          71.475433349608110
  0.22460000000000002          71.285209655760468
  0.22570000000000001          71.088546752928423
  0.22680000000000000          70.881782531737016
  0.22789999999999999          70.659210205076874
  0.22900000000000004          70.418220520018266
  0.23010000000000003          70.162284851072954
  0.23120000000000002          69.894584655760468
  0.23230000000000001          69.616821289061249
  0.23340000000000000          69.323715209959687
  0.23450000000000004          69.011329650877656
  0.23560000000000003          68.679077148436249
  0.23670000000000002          68.331695556639389
  0.23780000000000001          67.974372863768295
  0.23890000000000000          67.606025695799545
  0.23999999999999999          67.220611572264374
  0.24110000000000004          66.814208984373764
  0.24220000000000003          66.384162902830795
  0.24330000000000002          65.934875488280028
  0.24440000000000001          65.469749450682372
  0.24550000000000000          64.989486694334715
  0.24660000000000004          64.491020202635497
  0.24770000000000003          63.971839904783941
  0.24880000000000002          63.429576873778082
  0.24990000000000001          62.867542266844488
  0.25100000000000000          62.287796020506605
  0.25209999999999999          61.689052581785901
  0.25320000000000004          61.071643829344502
  0.25430000000000003          60.433456420897230
  0.25540000000000002          59.774208068846455
  0.25650000000000001          59.093048095701931
  0.25760000000000000          58.390060424803494
  0.25870000000000004          57.665523529051541
  0.25980000000000003          56.921314239500767
  0.26090000000000002          56.160743713377720
  0.26200000000000001          55.383964538573032
  0.26310000000000000          54.588584899901164
  0.26419999999999999          53.771686553953899
  0.26530000000000004          52.931396484373828
  0.26640000000000003          52.070758819578913
  0.26750000000000002          51.192287445067194
  0.26860000000000001          50.298835754393366
  0.26970000000000000          49.387485504149225
  0.27080000000000004          48.455879211424623
  0.27190000000000003          47.502601623533998
  0.27300000000000002          46.532966613768380
  0.27410000000000001          45.553073883055490
  0.27520000000000000          44.566707611082833
  0.27629999999999999          43.571437835692215
  0.27740000000000004          42.561313629149254
  0.27850000000000003          41.531757354735191
  0.27960000000000002          40.485565185545738
  0.28070000000000001          39.429424285887535
  0.28179999999999999          38.368194580076995
  0.28290000000000004          37.300144195555518
  0.28400000000000003          36.222705841063323
  0.28510000000000002          35.133201599119964
  0.28620000000000001          34.036758422850440
  0.28730000000000000          32.940780639647308
  0.28840000000000005          31.848236083983252
  0.28950000000000004          30.756429672240088
  0.29060000000000002          29.659957885741068
  0.29170000000000001          28.556949615477397
  0.29280000000000000          27.452957153319190
  0.29389999999999999          26.354459762572123
  0.29500000000000004          25.265691757201029
  0.29610000000000003          24.184629440306502
  0.29720000000000002          23.106389999388529
  0.29830000000000001          22.032142639159037
  0.29940000000000000          20.967901229857279
  0.30050000000000004          19.921369552611186
  0.30160000000000003          18.894546508787943
  0.30270000000000002          17.881996154784034
  0.30380000000000001          16.876659393309424
  0.30490000000000000          15.879364013670752
  0.30599999999999999          14.896864891051120
  0.30709999999999998          13.939565658568210
  0.30819999999999997          13.008972167967622
  0.30930000000000007          12.101185798643890
  0.31040000000000006          11.208316802977384
  0.31150000000000005          10.331808090208828
  0.31260000000000004          9.4808998107898788
  0.31370000000000003          8.6667957305896799
  0.31480000000000002          7.8924112319934858
  0.31590000000000001          7.1496734619129159
  0.31700000000000000          6.4270720481861074
  0.31809999999999999          5.7231950759876185
  0.31919999999999998          5.0463299751270192
  0.32029999999999997          4.4077115058887335
  0.32140000000000007          3.8117594718921479
  0.32250000000000006          3.2513835430133602
  0.32360000000000005          2.7198612689960231
  0.32470000000000004          2.2143075466144277
  0.32580000000000003          1.7437465190875683
  0.32690000000000002          1.3198424577701200
  0.32800000000000001         0.94538879394412634
  0.32910000000000000         0.61427712440371662
  0.33019999999999999         0.31607094406962111
  0.33129999999999998          4.6902630476944547E-002
  0.33239999999999997        -0.18785607814909192
  0.33350000000000007        -0.37779945135237453
  0.33460000000000006        -0.51945888996245670
  0.33570000000000005        -0.61694759130599819
  0.33680000000000004        -0.67735624313476883
  0.33790000000000003        -0.70455241203430952
  0.33900000000000002        -0.69107711315278331
  0.34010000000000001        -0.62993180751924360
  0.34120000000000000        -0.51826179027681718
  0.34229999999999999        -0.35944357514506281
  0.34339999999999998        -0.16155008971816523
  0.34449999999999997          7.3699750004939737E-002
  0.34560000000000007         0.34992799162738225
  0.34670000000000006         0.67312026023737725
  0.34780000000000005          1.0433993339525813
  0.34890000000000004          1.4571738243090213
