 -0.20000000000000001          0.0000000000000000
 -0.19890000000000002          0.0000000000000000
 -0.19780000000000000          0.0000000000000000
 -0.19670000000000001          0.0000000000000000
 -0.19560000000000002          0.0000000000000000
 -0.19450000000000001          0.0000000000000000
 -0.19340000000000002          0.0000000000000000
 -0.19230000000000000          0.0000000000000000
 -0.19120000000000001          0.0000000000000000
 -0.19010000000000002          0.0000000000000000
 -0.18900000000000000          4.5185081979520304E-037
 -0.18790000000000001          1.7872583738872617E-035
 -0.18680000000000002          2.5778986006166244E-034
 -0.18570000000000000          2.0165693750432654E-033
 -0.18460000000000001          1.0024006036117979E-032
 -0.18350000000000000          3.3507672181700699E-032
 -0.18240000000000001          7.2583138008260459E-032
 -0.18130000000000002          7.1242427926430099E-032
 -0.18020000000000000         -1.3181515223920347E-031
 -0.17910000000000001         -6.7630087942073527E-031
 -0.17800000000000002         -1.1247621775504031E-030
 -0.17690000000000000          2.0221874151941503E-031
 -0.17580000000000001          5.0711172360010365E-030
 -0.17470000000000002          9.7176963176828260E-030
 -0.17360000000000000         -1.7746118479900651E-030
 -0.17250000000000001         -4.5384066684795730E-029
 -0.17140000000000000         -8.0935502668579019E-029
 -0.17030000000000001          4.9951292186554074E-029
 -0.16920000000000002          4.9380314143354021E-028
 -0.16810000000000000          8.2361440736397670E-028
 -0.16700000000000001         -5.6103504467616535E-028
 -0.16589999999999999         -5.1930617094201988E-027
 -0.16480000000000000         -9.2813845804646132E-027
 -0.16370000000000001          2.0743823578375539E-027
 -0.16260000000000002          4.5159855529941131E-026
 -0.16150000000000000          9.4030118327589292E-026
 -0.16040000000000001          2.8573987204935316E-026
 -0.15930000000000000         -3.0581760851941649E-025
 -0.15820000000000001         -7.8532177937735089E-025
 -0.15710000000000002         -5.9236911366965310E-025
 -0.15600000000000000          1.5218939269643063E-024
 -0.15490000000000001          5.3126492416660373E-024
 -0.15379999999999999          6.1359955957892383E-024
 -0.15270000000000000         -4.5201599707114615E-024
 -0.15160000000000001         -2.8935051972046690E-023
 -0.15050000000000002         -4.5467197340988951E-023
 -0.14940000000000001         -5.0374598480451187E-024
 -0.14830000000000002          1.2413419279071767E-022
 -0.14720000000000000          2.6290979544363112E-022
 -0.14610000000000001          1.7155677436735777E-022
 -0.14500000000000002         -3.8761323026355627E-022
 -0.14390000000000000         -1.2200137543590931E-021
 -0.14280000000000001         -1.3389732720470506E-021
 -0.14169999999999999          5.8637245299783124E-022
 -0.14060000000000000          4.5228087163511476E-021
 -0.13950000000000001          7.1170417955670765E-021
 -0.13840000000000002          2.3406876811842208E-021
 -0.13730000000000001         -1.2724695461900819E-020
 -0.13619999999999999         -2.9201081516732966E-020
 -0.13510000000000000         -2.4459213725310183E-020
 -0.13400000000000001          2.1690262167705868E-020
 -0.13290000000000002          9.4555235540786803E-020
 -0.13180000000000000          1.2391175915802011E-019
 -0.13070000000000001          1.8316890382743910E-020
 -0.12959999999999999         -2.3239551421737229E-019
 -0.12850000000000000         -4.5415798355189340E-019
 -0.12740000000000001         -3.2500929223701178E-019
 -0.12630000000000002          3.5464513148264952E-019
 -0.12520000000000001          1.2803476854298708E-018
 -0.12410000000000000          1.5378580057067899E-018
 -0.12300000000000001          1.6978033291606625E-019
 -0.12190000000000001         -2.6808536945907258E-018
 -0.12080000000000000         -4.9540798143505263E-018
 -0.11970000000000000         -3.4678827534152764E-018
 -0.11860000000000001          3.2713309913925699E-018
 -0.11750000000000001          1.1929905678247022E-017
 -0.11640000000000000          1.4303087682842271E-017
 -0.11530000000000000          2.8235528968089332E-018
 -0.11420000000000001         -2.0480942335976212E-017
 -0.11310000000000001         -3.9159600392264736E-017
 -0.11200000000000000         -2.9966526822587200E-017
 -0.11090000000000001          1.6823315103389234E-017
 -0.10980000000000001          7.7965101307907772E-017
 -0.10870000000000000          1.0011866570819276E-016
 -0.10760000000000000          3.6129439285135983E-017
 -0.10650000000000001         -1.0283716501284623E-016
 -0.10540000000000001         -2.2394992613054105E-016
 -0.10430000000000000         -1.9870323563489977E-016
 -0.10320000000000000          2.9695605319641382E-017
 -0.10210000000000001          3.5215505955171864E-016
 -0.10100000000000001          5.1320656895042149E-016
  -9.9900000000000003E-002     2.8246992367890337E-016
  -9.8799999999999999E-002    -3.1468367192394808E-016
  -9.7700000000000009E-002    -9.0185620185326927E-016
  -9.6600000000000005E-002    -9.4441621932100884E-016
  -9.5500000000000002E-002    -1.7409973431380013E-016
  -9.4400000000000012E-002     1.0555294719462359E-015
  -9.3300000000000008E-002     1.8423500233537803E-015
  -9.2200000000000004E-002     1.3380694876015246E-015
  -9.1100000000000000E-002    -4.7424924730515047E-016
  -9.0000000000000011E-002    -2.4742776831034301E-015
  -8.8900000000000007E-002    -3.0130865640384417E-015
  -8.7800000000000003E-002    -1.1940029475589610E-015
  -8.6699999999999999E-002     2.1098817798540252E-015
  -8.5600000000000009E-002     4.4976733756362918E-015
  -8.4500000000000006E-002     3.7068241237733692E-015
  -8.3400000000000002E-002    -3.6856761992397119E-016
  -8.2299999999999998E-002    -5.0104391698167858E-015
  -8.1200000000000008E-002    -6.3332488294779322E-015
  -8.0100000000000005E-002    -2.4186634056108441E-015
  -7.9000000000000001E-002     4.4775914950063132E-015
  -7.7899999999999997E-002     8.8697724227762391E-015
  -7.6800000000000007E-002     6.1269044037467330E-015
  -7.5700000000000003E-002    -3.1292107577005068E-015
  -7.4600000000000000E-002    -1.2165148174838464E-014
  -7.3500000000000010E-002    -1.2521066337077037E-014
  -7.2399999999999992E-002    -1.1294926006587182E-015
  -7.1300000000000002E-002     1.5409294527217801E-014
  -7.0200000000000012E-002     2.3902783574604632E-014
  -6.9099999999999995E-002     1.4225737084085262E-014
  -6.8000000000000005E-002    -1.1095070276748425E-014
  -6.6900000000000015E-002    -3.5587977470540391E-014
  -6.5799999999999997E-002    -3.8946618960465987E-014
  -6.4700000000000008E-002    -1.2751955660037298E-014
  -6.3599999999999990E-002     2.9962326836188019E-014
  -6.2500000000000000E-002     6.0463048142441606E-014
  -6.1400000000000010E-002     5.3782018172732898E-014
  -6.0299999999999992E-002     8.7227139506057365E-015
  -5.9200000000000003E-002    -4.7622381027772470E-014
  -5.8100000000000013E-002    -7.6994725699275346E-014
  -5.6999999999999995E-002    -5.8131722092263916E-014
  -5.5900000000000005E-002    -4.5224448541787438E-015
  -5.4800000000000015E-002     4.4368930865500492E-014
  -5.3699999999999998E-002     5.4529185935505917E-014
  -5.2600000000000008E-002     2.7243605185385891E-014
  -5.1499999999999990E-002     1.0500942071074929E-016
  -5.0400000000000000E-002     1.2647785007085122E-014
  -4.9300000000000010E-002     6.1609239574138969E-014
  -4.8199999999999993E-002     8.7488555896436671E-014
  -4.7100000000000003E-002     1.6735282254497046E-014
  -4.6000000000000013E-002    -1.6149107333503221E-013
  -4.4899999999999995E-002    -3.4581742309157393E-013
  -4.3800000000000006E-002    -3.6010035014619191E-013
  -4.2699999999999988E-002    -8.0374529460355143E-014
  -4.1599999999999998E-002     4.2597227286299277E-013
  -4.0500000000000008E-002     8.6655471210131396E-013
  -3.9399999999999991E-002     8.6698839297030816E-013
  -3.8300000000000001E-002     2.3889459746344321E-013
  -3.7200000000000011E-002    -7.9978878337813586E-013
  -3.6099999999999993E-002    -1.6446109881926296E-012
  -3.5000000000000003E-002    -1.6287413041535248E-012
  -3.3900000000000013E-002    -4.9803314684099265E-013
  -3.2799999999999996E-002     1.2781681095475061E-012
  -3.1700000000000006E-002     2.6410215160643791E-012
  -3.0599999999999988E-002     2.5446853825494831E-012
  -2.9499999999999998E-002     7.0890212103269512E-013
  -2.8400000000000009E-002    -1.9893522593128488E-012
  -2.7299999999999991E-002    -3.8600407592515040E-012
  -2.6200000000000001E-002    -3.4117448449721977E-012
  -2.5100000000000011E-002    -4.6349892240254986E-013
  -2.3999999999999994E-002     3.4174210770260283E-012
  -2.2900000000000004E-002     5.6257836930639904E-012
  -2.1800000000000014E-002     4.1433453890071803E-012
  -2.0699999999999996E-002    -8.6001214830155881E-013
  -1.9600000000000006E-002    -6.5932467818718976E-012
  -1.8499999999999989E-002    -8.9739526573651140E-012
  -1.7399999999999999E-002    -5.2224617859419897E-012
  -1.6300000000000009E-002     3.7828785243165797E-012
  -1.5199999999999991E-002     1.3097610669643434E-011
  -1.4100000000000001E-002     1.6040474504208646E-011
  -1.3000000000000012E-002     8.3722490745730127E-012
  -1.1899999999999994E-002    -8.0464272397828829E-012
  -1.0800000000000004E-002    -2.4736592982299577E-011
  -9.6999999999999864E-003    -3.0399793793378649E-011
  -8.5999999999999965E-003    -1.7642767455305908E-011
  -7.5000000000000067E-003     1.1036631678007502E-011
  -6.3999999999999890E-003     4.2091864715931848E-011
  -5.2999999999999992E-003     5.6565998413082852E-011
  -4.2000000000000093E-003     4.0612273960460854E-011
  -3.0999999999999917E-003    -4.5681648568052236E-012
  -2.0000000000000018E-003    -5.9726723566910778E-011
  -9.0000000000001190E-004    -9.4948077178358403E-011
   2.0000000000000573E-004    -8.5156881546311070E-011
   1.2999999999999956E-003    -2.6003652356387796E-011
   2.4000000000000132E-003     5.9431556898026372E-011
   3.5000000000000031E-003     1.2894461887125175E-010
   4.5999999999999930E-003     1.4229740996629658E-010
   5.7000000000000106E-003     8.4676252121163031E-011
   6.8000000000000005E-003    -2.1159808280546422E-011
   7.8999999999999904E-003    -1.2312124930691226E-010
   9.0000000000000080E-003    -1.6650930634298788E-010
   1.0099999999999998E-002    -1.2568486529307421E-010
   1.1199999999999988E-002    -2.2087449924601543E-011
   1.2300000000000005E-002     8.4240399378376907E-011
   1.3399999999999995E-002     1.2780057567773895E-010
   1.4500000000000013E-002     7.7971754053329789E-011
   1.5600000000000003E-002    -3.7795027524323288E-011
   1.6699999999999993E-002    -1.4457242347720722E-010
   1.7800000000000010E-002    -1.6168204275412990E-010
   1.8900000000000000E-002    -5.2769941194519276E-011
   1.9999999999999990E-002     1.4651714563829188E-010
   2.1100000000000008E-002     3.4301181339735365E-010
   2.2199999999999998E-002     4.3721104514560238E-010
   2.3300000000000015E-002     3.8112540901025227E-010
   2.4400000000000005E-002     2.0524741628502596E-010
   2.5499999999999995E-002    -6.0438720000943746E-012
   2.6600000000000013E-002    -1.7824941522803783E-010
   2.7700000000000002E-002    -3.0832458808305319E-010
   2.8799999999999992E-002    -4.7831877347803697E-010
   2.9900000000000010E-002    -8.0229511922880192E-010
   3.1000000000000000E-002    -1.3323561143252505E-009
   3.2099999999999990E-002    -1.9839401232957243E-009
   3.3200000000000007E-002    -2.5392268288015885E-009
   3.4299999999999997E-002    -2.7452913275993751E-009
   3.5400000000000015E-002    -2.4622779370986336E-009
   3.6500000000000005E-002    -1.7744875568936891E-009
   3.7599999999999995E-002    -9.8546881766026218E-010
   3.8700000000000012E-002    -4.7980153183857510E-010
   3.9800000000000002E-002    -5.1712262250092067E-010
   4.0899999999999992E-002    -1.0769904967844468E-009
   4.2000000000000010E-002    -1.8575535554177236E-009
   4.3099999999999999E-002    -2.4470643289475902E-009
   4.4200000000000017E-002    -2.5799533620585180E-009
   4.5300000000000007E-002    -2.3245017022333059E-009
   4.6399999999999997E-002    -2.0741033335269776E-009
   4.7500000000000014E-002    -2.3238277968573584E-009
   4.8600000000000004E-002    -3.3487530526343789E-009
   4.9699999999999994E-002    -4.9775725763367973E-009
   5.0800000000000012E-002    -6.6188183822646351E-009
   5.1900000000000002E-002    -7.5577473168664255E-009
   5.2999999999999992E-002    -7.3755126450691932E-009
   5.4099999999999981E-002    -6.2496039454629226E-009
   5.5200000000000027E-002    -4.9402704149770216E-009
   5.6300000000000017E-002    -4.4368153595542026E-009
   5.7400000000000007E-002    -5.4380060454661816E-009
   5.8499999999999996E-002    -7.9533997165981418E-009
   5.9599999999999986E-002    -1.1262581089965806E-008
   6.0700000000000032E-002    -1.4276092308307398E-008
   6.1800000000000022E-002    -1.6111767919824160E-008
   6.2900000000000011E-002    -1.6568083793799815E-008
   6.4000000000000001E-002    -1.6225303767214427E-008
   6.5099999999999991E-002    -1.6113686385210713E-008
   6.6199999999999981E-002    -1.7137422148039150E-008
   6.7300000000000026E-002    -1.9586080313160892E-008
   6.8400000000000016E-002    -2.3014445460489696E-008
   6.9500000000000006E-002    -2.6553573562182464E-008
   7.0599999999999996E-002    -2.9459242156804066E-008
   7.1699999999999986E-002    -3.1563985203320044E-008
   7.2800000000000031E-002    -3.3361139628595993E-008
   7.3900000000000021E-002    -3.5677384602195161E-008
   7.5000000000000011E-002    -3.9145671593132647E-008
   7.6100000000000001E-002    -4.3814292638444385E-008
   7.7199999999999991E-002    -4.9141014812903450E-008
   7.8299999999999981E-002    -5.4376489089236202E-008
   7.9400000000000026E-002    -5.9089778403631499E-008
   8.0500000000000016E-002    -6.3491555124528531E-008
   8.1600000000000006E-002    -6.8332759894929040E-008
   8.2699999999999996E-002    -7.4427823903988610E-008
   8.3799999999999986E-002    -8.2103120746523928E-008
   8.4900000000000031E-002    -9.0937945174118795E-008
   8.6000000000000021E-002    -9.9996469771213015E-008
   8.7100000000000011E-002    -1.0843908881952302E-007
   8.8200000000000001E-002    -1.1614298500717268E-007
   8.9299999999999990E-002    -1.2392321480092505E-007
   9.0399999999999980E-002    -1.3316680735897535E-007
   9.1500000000000026E-002    -1.4505192780234211E-007
   9.2600000000000016E-002    -1.5980381817826128E-007
   9.3700000000000006E-002    -1.7645726302362164E-007
   9.4799999999999995E-002    -1.9332347278577799E-007
   9.5899999999999985E-002    -2.0894434271667706E-007
   9.7000000000000031E-002    -2.2300613977677131E-007
   9.8100000000000021E-002    -2.3667084292355867E-007
   9.9200000000000010E-002    -2.5209033083228860E-007
  0.10030000000000000         -2.7133347657581908E-007
  0.10139999999999999         -2.9530397682719922E-007
  0.10249999999999998         -3.2325291954293789E-007
  0.10360000000000003         -3.5316992352818488E-007
  0.10470000000000002         -3.8284886727524281E-007
  0.10580000000000001         -4.1105008108388574E-007
  0.10690000000000000         -4.3813676597892481E-007
  0.10799999999999998         -4.6586509938606468E-007
  0.10910000000000003         -4.9647758260107366E-007
  0.11020000000000002         -5.3162301583142835E-007
  0.11130000000000001         -5.7168620060110698E-007
  0.11240000000000000         -6.1583818933286238E-007
  0.11349999999999999         -6.6269569742871681E-007
  0.11460000000000004         -7.1115562150225742E-007
  0.11570000000000003         -7.6092692324891686E-007
  0.11680000000000001         -8.1251386063740938E-007
  0.11790000000000000         -8.6675726151952404E-007
  0.11899999999999999         -9.2429627329693176E-007
  0.12009999999999998         -9.8531006642588181E-007
  0.12120000000000003         -1.0496690947547904E-006
  0.12230000000000002         -1.1173301572853234E-006
  0.12340000000000001         -1.1886479569511721E-006
  0.12450000000000000         -1.2643522495636716E-006
  0.12559999999999999         -1.3451813174469862E-006
  0.12670000000000003         -1.4314082363853231E-006
  0.12780000000000002         -1.5225957668008050E-006
  0.12890000000000001         -1.6177739325939910E-006
  0.13000000000000000         -1.7159755998363835E-006
  0.13109999999999999         -1.8168422002418083E-006
  0.13219999999999998         -1.9209426227462245E-006
  0.13330000000000003         -2.0296190541557735E-006
  0.13440000000000002         -2.1444232061185176E-006
  0.13550000000000001         -2.2664480638923123E-006
  0.13660000000000000         -2.3959048576216446E-006
  0.13769999999999999         -2.5321267003164394E-006
  0.13880000000000003         -2.6739780878415331E-006
  0.13990000000000002         -2.8204408408782911E-006
  0.14100000000000001         -2.9710772651014850E-006
  0.14210000000000000         -3.1261745334631996E-006
  0.14319999999999999         -3.2865600587683730E-006
  0.14429999999999998         -3.4532304198364727E-006
  0.14540000000000003         -3.6269918837206205E-006
  0.14650000000000002         -3.8082478113210527E-006
  0.14760000000000001         -3.9969663703232072E-006
  0.14870000000000000         -4.1927951315301470E-006
  0.14979999999999999         -4.3952341002295725E-006
  0.15090000000000003         -4.6037971515033860E-006
  0.15200000000000002         -4.8181568672589492E-006
  0.15310000000000001         -5.0382432164042257E-006
  0.15420000000000000         -5.2642449190898333E-006
  0.15529999999999999         -5.4965257731964812E-006
  0.15639999999999998         -5.7355000535608269E-006
  0.15750000000000003         -5.9814942687808070E-006
  0.15860000000000002         -6.2346471167984419E-006
  0.15970000000000001         -6.4948721956170630E-006
  0.16080000000000000         -6.7619043875311036E-006
  0.16189999999999999         -7.0354049057641532E-006
  0.16300000000000003         -7.3150099524355028E-006
  0.16410000000000002         -7.6003575486538466E-006
  0.16520000000000001         -7.8911034506745636E-006
  0.16630000000000000         -8.1869375208043493E-006
  0.16739999999999999         -8.4876128312316723E-006
  0.16850000000000004         -8.7929884102777578E-006
  0.16960000000000003         -9.1030979092465714E-006
  0.17070000000000002         -9.4181295935413800E-006
  0.17180000000000001         -9.7383026513853110E-006
  0.17290000000000000         -1.0063670742965769E-005
  0.17399999999999999         -1.0393935554020572E-005
  0.17510000000000003         -1.0728392226155847E-005
  0.17620000000000002         -1.1066059414588381E-005
  0.17730000000000001         -1.1405972145439591E-005
  0.17840000000000000         -1.1747451935661957E-005
  0.17949999999999999         -1.2090177733625751E-005
  0.18060000000000004         -1.2434137715899851E-005
  0.18170000000000003         -1.2779495591530576E-005
  0.18280000000000002         -1.3126403246133123E-005
  0.18390000000000001         -1.3474805200530682E-005
  0.18500000000000000         -1.3824346751789562E-005
  0.18609999999999999         -1.4174334864947014E-005
  0.18720000000000003         -1.4523760000884067E-005
  0.18830000000000002         -1.4871478015265893E-005
  0.18940000000000001         -1.5216427527775522E-005
  0.19050000000000000         -1.5557852748315781E-005
  0.19159999999999999         -1.5895424439804628E-005
  0.19270000000000004         -1.6229179891524836E-005
  0.19380000000000003         -1.6559341020183638E-005
  0.19490000000000002         -1.6886013327166438E-005
  0.19600000000000001         -1.7209040379384533E-005
  0.19710000000000000         -1.7527958334540017E-005
  0.19819999999999999         -1.7841850421973504E-005
  0.19930000000000003         -1.8149366951547563E-005
  0.20040000000000002         -1.8449069102643989E-005
  0.20150000000000001         -1.8739925508270971E-005
  0.20260000000000000         -1.9021550542674959E-005
  0.20369999999999999         -1.9294222511234693E-005
  0.20480000000000004         -1.9558634448912926E-005
  0.20590000000000003         -1.9815208361251280E-005
  0.20700000000000002         -2.0063471311004832E-005
  0.20810000000000001         -2.0302310076658614E-005
  0.20920000000000000         -2.0530487745418213E-005
  0.21029999999999999         -2.0747120288433507E-005
  0.21140000000000003         -2.0951934857293963E-005
  0.21250000000000002         -2.1145007849554531E-005
  0.21360000000000001         -2.1326322894310579E-005
  0.21470000000000000         -2.1495645341929048E-005
  0.21579999999999999         -2.1652647774317302E-005
  0.21690000000000004         -2.1796997316414490E-005
  0.21800000000000003         -2.1928392015979625E-005
  0.21910000000000002         -2.2046360754757188E-005
  0.22020000000000001         -2.2150697986944579E-005
  0.22130000000000000         -2.2241740225581452E-005
  0.22239999999999999         -2.2320107746054418E-005
  0.22350000000000003         -2.2386233467841521E-005
  0.22460000000000002         -2.2439937310991809E-005
  0.22570000000000001         -2.2480453480966389E-005
  0.22680000000000000         -2.2506732420879416E-005
  0.22789999999999999         -2.2518108380609192E-005
  0.22900000000000004         -2.2514601369039156E-005
  0.23010000000000003         -2.2496955352835357E-005
  0.23120000000000002         -2.2466376321972348E-005
  0.23230000000000001         -2.2423999325837940E-005
  0.23340000000000000         -2.2370351871359162E-005
  0.23450000000000004         -2.2305350285023451E-005
  0.23560000000000003         -2.2228725356399082E-005
  0.23670000000000002         -2.2140171495266259E-005
  0.23780000000000001         -2.2039430405129679E-005
  0.23890000000000000         -2.1926385670667514E-005
  0.23999999999999999         -2.1801242837682366E-005
  0.24110000000000004         -2.1664591258740984E-005
  0.24220000000000003         -2.1517496861633845E-005
  0.24330000000000002         -2.1361249309848063E-005
  0.24440000000000001         -2.1197003661654890E-005
  0.24550000000000000         -2.1025398382334970E-005
  0.24660000000000004         -2.0846318875555880E-005
  0.24770000000000003         -2.0659339497797191E-005
  0.24880000000000002         -2.0464351109694690E-005
  0.24990000000000001         -2.0261813915567473E-005
  0.25100000000000000         -2.0052491890965030E-005
  0.25209999999999999         -1.9837068975903094E-005
  0.25320000000000004         -1.9616063582361676E-005
  0.25430000000000003         -1.9390254237805493E-005
  0.25540000000000002         -1.9160628653480671E-005
  0.25650000000000001         -1.8928027202491648E-005
  0.25760000000000000         -1.8692964658839628E-005
  0.25870000000000004         -1.8455466488376260E-005
  0.25980000000000003         -1.8215607269667089E-005
  0.26090000000000002         -1.7974112779484130E-005
  0.26200000000000001         -1.7731992556946352E-005
  0.26310000000000000         -1.7489950550952926E-005
  0.26419999999999999         -1.7248188669327646E-005
  0.26530000000000004         -1.7006497728289105E-005
  0.26640000000000003         -1.6764864994911477E-005
  0.26750000000000002         -1.6523807062185369E-005
  0.26860000000000001         -1.6284398952848278E-005
  0.26970000000000000         -1.6047957615228370E-005
  0.27080000000000004         -1.5815254300832748E-005
  0.27190000000000003         -1.5586385416099802E-005
  0.27300000000000002         -1.5361532859969884E-005
  0.27410000000000001         -1.5141172298172023E-005
  0.27520000000000000         -1.4925304640200920E-005
  0.27629999999999999         -1.4713677956024185E-005
  0.27740000000000004         -1.4505945728160441E-005
  0.27850000000000003         -1.4301743249234278E-005
  0.27960000000000002         -1.4101558917900547E-005
  0.28070000000000001         -1.3906635103921872E-005
  0.28179999999999999         -1.3718044101551641E-005
  0.28290000000000004         -1.3536411643144675E-005
  0.28400000000000003         -1.3362234312808141E-005
  0.28510000000000002         -1.3195549399824813E-005
  0.28620000000000001         -1.3035816664341837E-005
  0.28730000000000000         -1.2882437658845447E-005
  0.28840000000000005         -1.2734729352814611E-005
  0.28950000000000004         -1.2591774066095240E-005
  0.29060000000000002         -1.2453327144612558E-005
  0.29170000000000001         -1.2320153473410755E-005
  0.29280000000000000         -1.2193594557174947E-005
  0.29389999999999999         -1.2074929145455826E-005
  0.29500000000000004         -1.1964538316533435E-005
  0.29610000000000003         -1.1861458915518597E-005
  0.29720000000000002         -1.1764179362216964E-005
  0.29830000000000001         -1.1671823813230731E-005
  0.29940000000000000         -1.1584367712202948E-005
  0.30050000000000004         -1.1502344023028854E-005
  0.30160000000000003         -1.1425748198234942E-005
  0.30270000000000002         -1.1353901754773688E-005
  0.30380000000000001         -1.1286507287877612E-005
  0.30490000000000000         -1.1223953151784372E-005
  0.30599999999999999         -1.1166302101628389E-005
  0.30709999999999998         -1.1113110303995200E-005
  0.30819999999999997         -1.1063874808314722E-005
  0.30930000000000007         -1.1018210898328107E-005
  0.31040000000000006         -1.0975868462992366E-005
  0.31150000000000005         -1.0936823855445255E-005
  0.31260000000000004         -1.0901228961301968E-005
  0.31370000000000003         -1.0868929166463204E-005
  0.31480000000000002         -1.0839159585884772E-005
  0.31590000000000001         -1.0810790627147071E-005
  0.31700000000000000         -1.0782935532915872E-005
  0.31809999999999999         -1.0755044968391303E-005
  0.31919999999999998         -1.0727359040174633E-005
  0.32029999999999997         -1.0700550774345174E-005
  0.32140000000000007         -1.0674920304154512E-005
  0.32250000000000006         -1.0650567674019840E-005
  0.32360000000000005         -1.0627110896166414E-005
  0.32470000000000004         -1.0603594091662671E-005
  0.32580000000000003         -1.0578689398244023E-005
  0.32690000000000002         -1.0551057130214758E-005
  0.32800000000000001         -1.0520240721234586E-005
  0.32910000000000000         -1.0486706742085516E-005
  0.33019999999999999         -1.0451462912897114E-005
  0.33129999999999998         -1.0415144970465917E-005
  0.33239999999999997         -1.0377320904808585E-005
  0.33350000000000007         -1.0336958439438604E-005
  0.33460000000000006         -1.0292960723745637E-005
  0.33570000000000005         -1.0244913028145675E-005
  0.33680000000000004         -1.0193107300437987E-005
  0.33790000000000003         -1.0137519893760327E-005
  0.33900000000000002         -1.0077534170704894E-005
  0.34010000000000001         -1.0012645361712202E-005
  0.34120000000000000         -9.9428862085915171E-006
  0.34229999999999999         -9.8688451544148847E-006
  0.34339999999999998         -9.7908559837378561E-006
  0.34449999999999997         -9.7083147920784540E-006
  0.34560000000000007         -9.6198127721436322E-006
  0.34670000000000006         -9.5241293820436113E-006
  0.34780000000000005         -9.4216884463094175E-006
  0.34890000000000004         -9.3138614829513244E-006
