 -0.20000000000000001          0.0000000000000000
 -0.19890000000000002          0.0000000000000000
 -0.19780000000000000          0.0000000000000000
 -0.19670000000000001          0.0000000000000000
 -0.19560000000000002          0.0000000000000000
 -0.19450000000000001          0.0000000000000000
 -0.19340000000000002          0.0000000000000000
 -0.19230000000000000          0.0000000000000000
 -0.19120000000000001          0.0000000000000000
 -0.19010000000000002          8.4855878250323809E-042
 -0.18900000000000000          3.8292551888417385E-029
 -0.18790000000000001          6.6519535460043302E-028
 -0.18680000000000002          1.7306177294623651E-027
 -0.18570000000000000         -6.2997345666465085E-027
 -0.18460000000000001         -3.4138624356337627E-026
 -0.18350000000000000         -2.4566391998669522E-026
 -0.18240000000000001          5.4543112560032526E-026
 -0.18130000000000002         -4.2262744750277637E-025
 -0.18020000000000000         -2.2088227619632857E-024
 -0.17910000000000001         -2.0245698515514715E-025
 -0.17800000000000002          2.0728424689949982E-023
 -0.17690000000000000          5.2517758432830546E-023
 -0.17580000000000001         -1.1476824132254165E-023
 -0.17470000000000002         -3.1325838202462035E-022
 -0.17360000000000000         -5.5641552954200485E-022
 -0.17250000000000001          4.2378077358462872E-022
 -0.17140000000000000          3.2085928025184807E-021
 -0.17030000000000001          3.7302392308658441E-021
 -0.16920000000000002         -7.0483995372148653E-021
 -0.16810000000000000         -2.7444615184769440E-020
 -0.16700000000000001         -1.8971938264127785E-020
 -0.16589999999999999          7.6582390900551325E-020
 -0.16480000000000000          2.1397824740603800E-019
 -0.16370000000000001          1.0190238298853230E-019
 -0.16260000000000002         -6.0933401623832480E-019
 -0.16150000000000000         -1.5316053474567604E-018
 -0.16040000000000001         -7.9806028777528119E-019
 -0.15930000000000000          3.6748900783805330E-018
 -0.15820000000000001          9.7266133365817557E-018
 -0.15710000000000002          7.0495574349800209E-018
 -0.15600000000000000         -1.6497387744068343E-017
 -0.15490000000000001         -5.2829550799374918E-017
 -0.15379999999999999         -5.3003424164142939E-017
 -0.15270000000000000          4.8654654442515683E-017
 -0.15160000000000001          2.3824418945062562E-016
 -0.15050000000000002          3.1857957349512877E-016
 -0.14940000000000001         -2.5928912668852643E-017
 -0.14830000000000002         -8.6159767878235785E-016
 -0.14720000000000000         -1.5330480017302105E-015
 -0.14610000000000001         -7.2779236056095989E-016
 -0.14500000000000002          2.3178628849974256E-015
 -0.14390000000000000          5.9219224305117500E-015
 -0.14280000000000001          5.4430421893868963E-015
 -0.14169999999999999         -3.4326988510523706E-015
 -0.14060000000000000         -1.8080956721537185E-014
 -0.13950000000000001         -2.4838292501335137E-014
 -0.13840000000000002         -5.8830563237312739E-015
 -0.13730000000000001          4.1027988976039706E-014
 -0.13619999999999999          8.3807770836019120E-014
 -0.13510000000000000          6.4112696271741338E-014
 -0.13400000000000001         -5.3182396773096288E-014
 -0.13290000000000002         -2.1493816112790246E-013
 -0.13180000000000000         -2.6721165427918466E-013
 -0.13070000000000001         -5.5004025829518992E-014
 -0.12959999999999999          3.9520795490354143E-013
 -0.12850000000000000          7.6284746748650906E-013
 -0.12740000000000001          5.7592239354279732E-013
 -0.12630000000000002         -3.6881015277348480E-013
 -0.12520000000000001         -1.5906653164782620E-012
 -0.12410000000000000         -1.9845204039111720E-012
 -0.12300000000000001         -6.0111339733980714E-013
 -0.12190000000000001          2.2481413432250209E-012
 -0.12080000000000000          4.5560972529448429E-012
 -0.11970000000000000          3.7115579706876042E-012
 -0.11860000000000001         -1.1705808848275129E-012
 -0.11750000000000001         -7.4377093026156645E-012
 -0.11640000000000000         -9.7477564214861998E-012
 -0.11530000000000000         -4.0457017076734946E-012
 -0.11420000000000001          7.8556675053846073E-012
 -0.11310000000000001          1.7425035372942698E-011
 -0.11200000000000000          1.4813619081401448E-011
 -0.11090000000000001         -2.1736017933435946E-012
 -0.10980000000000001         -2.2947706235231952E-011
 -0.10870000000000000         -2.9471289991757750E-011
 -0.10760000000000000         -1.0897722828309833E-011
 -0.10650000000000001          2.3357675169031711E-011
 -0.10540000000000001          4.5571692253167007E-011
 -0.10430000000000000          3.0286394919757774E-011
 -0.10320000000000000         -1.9990752109230426E-011
 -0.10210000000000001         -6.7364551437077800E-011
 -0.10100000000000001         -6.3158547836122822E-011
  -9.9900000000000003E-002     8.2208892471176646E-012
  -9.8799999999999999E-002     1.0205290779108329E-010
  -9.7700000000000009E-002     1.3464528103580291E-010
  -9.6600000000000005E-002     4.9231493881598437E-011
  -9.5500000000000002E-002    -1.2113099412402218E-010
  -9.4400000000000012E-002    -2.5320623375791467E-010
  -9.3300000000000008E-002    -2.1522114646013197E-010
  -9.2200000000000004E-002     1.9441191712017909E-011
  -9.1100000000000000E-002     3.1886121520939856E-010
  -9.0000000000000011E-002     4.6163861622263240E-010
  -8.8900000000000007E-002     2.9758234765257836E-010
  -8.7800000000000003E-002    -1.1697233459613245E-010
  -8.6699999999999999E-002    -5.2738718947507353E-010
  -8.5600000000000009E-002    -6.4914718045374696E-010
  -8.4500000000000006E-002    -3.7999473012645557E-010
  -8.3400000000000002E-002     1.1349283318689336E-010
  -8.2299999999999998E-002     5.1742726769884049E-010
  -8.1200000000000008E-002     6.1276089757811860E-010
  -8.0100000000000005E-002     4.3691816831174928E-010
  -7.9000000000000001E-002     2.1665426397371916E-010
  -7.7899999999999997E-002     1.1949329026267662E-010
  -7.6800000000000007E-002     5.1460273542464740E-011
  -7.5700000000000003E-002    -2.7650531864149951E-010
  -7.4600000000000000E-002    -1.0121944393759292E-009
  -7.3500000000000010E-002    -1.8290711167879119E-009
  -7.2399999999999992E-002    -1.9535668638327653E-009
  -7.1300000000000002E-002    -6.7965066907782474E-010
  -7.0200000000000012E-002     1.9169168474772822E-009
  -6.9099999999999995E-002     4.6314263535406239E-009
  -6.8000000000000005E-002     5.5861306691441778E-009
  -6.6900000000000015E-002     3.3930696030641810E-009
  -6.5799999999999997E-002    -1.6659631452136456E-009
  -6.4700000000000008E-002    -7.3276527068338995E-009
  -6.3599999999999990E-002    -1.0347759094031384E-008
  -6.2500000000000000E-002    -8.3896933844589663E-009
  -6.1400000000000010E-002    -1.6555369297687212E-009
  -6.0299999999999992E-002     6.8936905073246167E-009
  -5.9200000000000003E-002     1.3051237424121196E-008
  -5.8100000000000013E-002     1.3753791883175264E-008
  -5.6999999999999995E-002     8.7919342917083589E-009
  -5.5900000000000005E-002     6.6898314665822038E-010
  -5.4800000000000015E-002    -7.2547123863823129E-009
  -5.3699999999999998E-002    -1.2869695531490621E-008
  -5.2600000000000008E-002    -1.5955011534173794E-008
  -5.1499999999999990E-002    -1.6816580128421080E-008
  -5.0400000000000000E-002    -1.4267474313103254E-008
  -4.9300000000000010E-002    -5.2967958907889978E-009
  -4.8199999999999993E-002     1.2236346158541601E-008
  -4.7100000000000003E-002     3.5226854322443137E-008
  -4.6000000000000013E-002     5.3013422984804698E-008
  -4.4899999999999995E-002     5.0725997624571122E-008
  -4.3800000000000006E-002     1.8416493219325804E-008
  -4.2699999999999988E-002    -3.8820370917840221E-008
  -4.1599999999999998E-002    -9.7281848354664065E-008
  -4.0500000000000008E-002    -1.2289596895698138E-007
  -3.9399999999999991E-002    -8.9504716527249126E-008
  -3.8300000000000001E-002     2.2478972017037154E-009
  -3.7200000000000011E-002     1.1776860020517118E-007
  -3.6099999999999993E-002     2.0051234628225859E-007
  -3.5000000000000003E-002     1.9965887076977812E-007
  -3.3900000000000013E-002     9.9525045982321742E-008
  -3.2799999999999996E-002    -6.6401455001132321E-008
  -3.1700000000000006E-002    -2.2686639056245068E-007
  -3.0599999999999988E-002    -3.0584641308449631E-007
  -2.9499999999999998E-002    -2.6050867063530747E-007
  -2.8400000000000009E-002    -1.0364448144172972E-007
  -2.7299999999999991E-002     1.0204657030498734E-007
  -2.6200000000000001E-002     2.7497068799674166E-007
  -2.5100000000000011E-002     3.5383365570849087E-007
  -2.3999999999999994E-002     3.2326622090292681E-007
  -2.2900000000000004E-002     2.1221802626312601E-007
  -2.1800000000000014E-002     6.7935289393968069E-008
  -2.0699999999999996E-002    -7.6410742622086486E-008
  -1.9600000000000006E-002    -2.1789684012670852E-007
  -1.8499999999999989E-002    -3.7132488728271282E-007
  -1.7399999999999999E-002    -5.3511081432585518E-007
  -1.6300000000000009E-002    -6.6016366417896542E-007
  -1.5199999999999991E-002    -6.4963995782819492E-007
  -1.4100000000000001E-002    -4.0185508964899246E-007
  -1.3000000000000012E-002     1.1912374020535538E-007
  -1.1899999999999994E-002     8.2467738593546630E-007
  -1.0800000000000004E-002     1.4978002127463487E-006
  -9.6999999999999864E-003     1.8640639609657169E-006
  -8.5999999999999965E-003     1.7158635046143910E-006
  -7.5000000000000067E-003     1.0311071036994656E-006
  -6.3999999999999890E-003     1.7961657050575529E-008
  -5.2999999999999992E-003    -9.5328465476998817E-007
  -4.2000000000000093E-003    -1.5120917851163900E-006
  -3.0999999999999917E-003    -1.4670562222818616E-006
  -2.0000000000000018E-003    -9.0510576455929699E-007
  -9.0000000000001190E-004    -1.4604181330926741E-007
   2.0000000000000573E-004     4.3485806600070980E-007
   1.2999999999999956E-003     6.2258845900937924E-007
   2.4000000000000132E-003     4.8813780040286448E-007
   3.5000000000000031E-003     3.3678702493485781E-007
   4.5999999999999930E-003     4.9440211569162382E-007
   5.7000000000000106E-003     1.0551738114373113E-006
   6.8000000000000005E-003     1.7574308230906251E-006
   7.8999999999999904E-003     2.0935167412973043E-006
   9.0000000000000080E-003     1.6189818552448563E-006
   1.0099999999999998E-002     2.8687793474092530E-007
   1.1199999999999988E-002    -1.4122599623079442E-006
   1.2300000000000005E-002    -2.6311247438572212E-006
   1.3399999999999995E-002    -2.6043082925754905E-006
   1.4500000000000013E-002    -1.1082827313659542E-006
   1.5600000000000003E-002     1.3373830825001557E-006
   1.6699999999999993E-002     3.6787107546841886E-006
   1.7800000000000010E-002     4.8602269089314502E-006
   1.8900000000000000E-002     4.3926897888013178E-006
   1.9999999999999990E-002     2.6261484435962627E-006
   2.1100000000000008E-002     5.5820089528416089E-007
   2.2199999999999998E-002    -7.2167347298101156E-007
   2.3300000000000015E-002    -6.3106614334184258E-007
   2.4400000000000005E-002     6.1443665799733798E-007
   2.5499999999999995E-002     2.1861405912203727E-006
   2.6600000000000013E-002     3.1819945434107174E-006
   2.7700000000000002E-002     3.1838619634070700E-006
   2.8799999999999992E-002     2.4874195787558221E-006
   2.9900000000000010E-002     1.8689017906577833E-006
   3.1000000000000000E-002     2.0482132185857796E-006
   3.2099999999999990E-002     3.2012683277567407E-006
   3.3200000000000007E-002     4.8401766434832085E-006
   3.4299999999999997E-002     6.1377832025751859E-006
   3.5400000000000015E-002     6.4795385696921987E-006
   3.6500000000000005E-002     5.8744353736980156E-006
   3.7599999999999995E-002     4.9494356062492185E-006
   3.8700000000000012E-002     4.5290712478158858E-006
   3.9800000000000002E-002     5.0823864512490149E-006
   4.0899999999999992E-002     6.4114628912643392E-006
   4.2000000000000010E-002     7.7972672443133353E-006
   4.3099999999999999E-002     8.5114106695976902E-006
   4.4200000000000017E-002     8.3534951045287448E-006
   4.5300000000000007E-002     7.8456732808254723E-006
   4.6399999999999997E-002     7.9362225733338360E-006
   4.7500000000000014E-002     9.3865901362722057E-006
   4.8600000000000004E-002     1.2228844752825109E-005
   4.9699999999999994E-002     1.5651470675946904E-005
   5.0800000000000012E-002     1.8407386960460557E-005
   5.1900000000000002E-002     1.9517139662638025E-005
   5.2999999999999992E-002     1.8849037587641382E-005
   5.4099999999999981E-002     1.7226006093550019E-005
   5.5200000000000027E-002     1.5990486645021848E-005
   5.6300000000000017E-002     1.6276109818134741E-005
   5.7400000000000007E-002     1.8412294593870846E-005
   5.8499999999999996E-002     2.1800973627248883E-005
   5.9599999999999986E-002     2.5323224690508042E-005
   6.0700000000000032E-002     2.8020476747767708E-005
   6.1800000000000022E-002     2.9636326871693475E-005
   6.2900000000000011E-002     3.0704257369504346E-005
   6.4000000000000001E-002     3.2149571779879513E-005
   6.5099999999999991E-002     3.4674638300199575E-005
   6.6199999999999981E-002     3.8316433347059819E-005
   6.7300000000000026E-002     4.2437819502080183E-005
   6.8400000000000016E-002     4.6142227802189289E-005
   6.9500000000000006E-002     4.8820631491249487E-005
   7.0599999999999996E-002     5.0490594730941408E-005
   7.1699999999999986E-002     5.1730607083295948E-005
   7.2800000000000031E-002     5.3296247642715639E-005
   7.3900000000000021E-002     5.5689699365752628E-005
   7.5000000000000011E-002     5.8971469115926452E-005
   7.6100000000000001E-002     6.2896979216015133E-005
   7.7199999999999991E-002     6.7246161052020054E-005
   7.8299999999999981E-002     7.2049930167843886E-005
   7.9400000000000026E-002     7.7537370088969222E-005
   8.0500000000000016E-002     8.3823782915708054E-005
   8.1600000000000006E-002     9.0579997049637108E-005
   8.2699999999999996E-002     9.6988194854922156E-005
   8.3799999999999986E-002     1.0210611071669597E-004
   8.4900000000000031E-002     1.0548435966483373E-004
   8.6000000000000021E-002     1.0765252955024139E-004
   8.7100000000000011E-002     1.1007230204994750E-004
   8.8200000000000001E-002     1.1448271106927569E-004
   8.9299999999999990E-002     1.2191045243524816E-004
   9.0399999999999980E-002     1.3193969789425671E-004
   9.1500000000000026E-002     1.4273247506933997E-004
   9.2600000000000016E-002     1.5192052524069981E-004
   9.3700000000000006E-002     1.5790550969539799E-004
   9.4799999999999995E-002     1.6083873924797916E-004
   9.5899999999999985E-002     1.6266190505119480E-004
   9.7000000000000031E-002     1.6611722821833932E-004
   9.8100000000000021E-002     1.7326875240540436E-004
   9.9200000000000010E-002     1.8438033293931055E-004
  0.10030000000000000          1.9781664013860929E-004
  0.10139999999999999          2.1098559955133234E-004
  0.10249999999999998          2.2175921185405953E-004
  0.10360000000000003          2.2955826716495613E-004
  0.10470000000000002          2.3545672593170620E-004
  0.10580000000000001          2.4136125284710658E-004
  0.10690000000000000          2.4882084107955601E-004
  0.10799999999999998          2.5819629081522670E-004
  0.10910000000000003          2.6863120729101386E-004
  0.11020000000000002          2.7878166292791685E-004
  0.11130000000000001          2.8774293605235760E-004
  0.11240000000000000          2.9561098199335195E-004
  0.11349999999999999          3.0331069137898449E-004
  0.11460000000000004          3.1190362642516466E-004
  0.11570000000000003          3.2183199073185204E-004
  0.11680000000000001          3.3266784157601090E-004
  0.11790000000000000          3.4344394225624208E-004
  0.11899999999999999          3.5338566522110921E-004
  0.12009999999999998          3.6244481452737585E-004
  0.12120000000000003          3.7128728581589210E-004
  0.12230000000000002          3.8075869088057836E-004
  0.12340000000000001          3.9111875230443059E-004
  0.12450000000000000          4.0173702291209496E-004
  0.12559999999999999          4.1144681745205244E-004
  0.12670000000000003          4.1924865217875782E-004
  0.12780000000000002          4.2506179306652409E-004
  0.12890000000000001          4.2986610787916865E-004
  0.13000000000000000          4.3514242861416062E-004
  0.13109999999999999          4.4201069977130547E-004
  0.13219999999999998          4.5060180127616723E-004
  0.13330000000000003          4.5994398533362598E-004
  0.13440000000000002          4.6853962703603911E-004
  0.13550000000000001          4.7511348384428375E-004
  0.13660000000000000          4.7923426609482173E-004
  0.13769999999999999          4.8147450434039781E-004
  0.13880000000000003          4.8298272304232612E-004
  0.13990000000000002          4.8488305765199811E-004
  0.14100000000000001          4.8776707262727730E-004
  0.14210000000000000          4.9145595403383762E-004
  0.14319999999999999          4.9516442231829533E-004
  0.14429999999999998          4.9800932174544094E-004
  0.14540000000000003          4.9945141654457199E-004
  0.14650000000000002          4.9937627045433270E-004
  0.14760000000000001          4.9815425882111547E-004
  0.14870000000000000          4.9613346345718273E-004
  0.14979999999999999          4.9354624934490104E-004
  0.15090000000000003          4.9035390838976295E-004
  0.15200000000000002          4.8636653809803842E-004
  0.15310000000000001          4.8147828783835620E-004
  0.15420000000000000          4.7583004925395736E-004
  0.15529999999999999          4.6968754031691192E-004
  0.15639999999999998          4.6319875400509231E-004
  0.15750000000000003          4.5635824790220324E-004
  0.15860000000000002          4.4896500185127988E-004
  0.15970000000000001          4.4082428212273628E-004
  0.16080000000000000          4.3174932943653154E-004
  0.16189999999999999          4.2166380444537768E-004
  0.16300000000000003          4.1057573980648072E-004
  0.16410000000000002          3.9858990930948500E-004
  0.16520000000000001          3.8568579475391852E-004
  0.16630000000000000          3.7211470771577514E-004
  0.16739999999999999          3.5809996188614947E-004
  0.16850000000000004          3.4386437619101821E-004
  0.16960000000000003          3.2937663490880981E-004
  0.17070000000000002          3.1429377850142218E-004
  0.17180000000000001          2.9852095758539675E-004
  0.17290000000000000          2.8191207093184074E-004
  0.17399999999999999          2.6484293630344195E-004
  0.17510000000000003          2.4734807084312210E-004
  0.17620000000000002          2.2962949878999660E-004
  0.17730000000000001          2.1164819190742308E-004
  0.17840000000000000          1.9335385877637220E-004
  0.17949999999999999          1.7469491285735942E-004
  0.18060000000000004          1.5565060311926903E-004
  0.18170000000000003          1.3621171819976145E-004
  0.18280000000000002          1.1646953498710660E-004
  0.18390000000000001          9.6873074653548580E-005
  0.18500000000000000          7.7692377089980214E-005
  0.18609999999999999          5.9185036661795280E-005
  0.18720000000000003          4.1281822632294837E-005
  0.18830000000000002          2.3529697500631767E-005
  0.18940000000000001          5.3600124374483409E-006
  0.19050000000000000         -1.3510074495570412E-005
  0.19159999999999999         -3.2992447813737954E-005
  0.19270000000000004         -5.2534400310829273E-005
  0.19380000000000003         -7.1190384915093195E-005
  0.19490000000000002         -8.8700253400013403E-005
  0.19600000000000001         -1.0484275117050017E-004
  0.19710000000000000         -1.2012789375147732E-004
  0.19819999999999999         -1.3475076411849631E-004
  0.19930000000000003         -1.4915839710737258E-004
  0.20040000000000002         -1.6325608885379988E-004
  0.20150000000000001         -1.7707457300274054E-004
  0.20260000000000000         -1.9047873502129920E-004
  0.20369999999999999         -2.0338261674622188E-004
  0.20480000000000004         -2.1558559092225516E-004
  0.20590000000000003         -2.2651796462012366E-004
  0.20700000000000002         -2.3580106790175486E-004
  0.20810000000000001         -2.4340380332430576E-004
  0.20920000000000000         -2.4950641090979488E-004
  0.21029999999999999         -2.5487621314821394E-004
  0.21140000000000003         -2.5971108698283834E-004
  0.21250000000000002         -2.6426714612168728E-004
  0.21360000000000001         -2.6857637567443272E-004
  0.21470000000000000         -2.7242736541663700E-004
  0.21579999999999999         -2.7562334435058208E-004
  0.21690000000000004         -2.7736727497537991E-004
  0.21800000000000003         -2.7708450215866234E-004
  0.21910000000000002         -2.7425383450461007E-004
  0.22020000000000001         -2.6955213979815547E-004
  0.22130000000000000         -2.6404904201624436E-004
  0.22239999999999999         -2.5870912941170431E-004
  0.22350000000000003         -2.5375513359902061E-004
  0.22460000000000002         -2.4824813590382862E-004
  0.22570000000000001         -2.4133792612699573E-004
  0.22680000000000000         -2.3217314446808633E-004
  0.22789999999999999         -2.2093014558775297E-004
  0.22900000000000004         -2.0845861581618007E-004
  0.23010000000000003         -1.9572016026357338E-004
  0.23120000000000002         -1.8291997548656812E-004
  0.23230000000000001         -1.7006561392916779E-004
  0.23340000000000000         -1.5661027282475124E-004
  0.23450000000000004         -1.4178648416417436E-004
  0.23560000000000003         -1.2535160931291932E-004
  0.23670000000000002         -1.0746529005699890E-004
  0.23780000000000001         -8.8372697064180656E-005
  0.23890000000000000         -6.8981833464926614E-005
  0.23999999999999999         -4.9718175432641417E-005
  0.24110000000000004         -3.0997161957200921E-005
  0.24220000000000003         -1.2854285159847127E-005
  0.24330000000000002          5.5544524002447443E-006
  0.24440000000000001          2.5054650905072010E-005
  0.24550000000000000          4.6255874622141039E-005
  0.24660000000000004          6.9369634729801480E-005
  0.24770000000000003          9.3605754955195428E-005
  0.24880000000000002          1.1796732724177313E-004
  0.24990000000000001          1.4132153592070947E-004
  0.25100000000000000          1.6287481412289833E-004
  0.25209999999999999          1.8301294767295893E-004
  0.25320000000000004          2.0239909645167843E-004
  0.25430000000000003          2.2235735377760125E-004
  0.25540000000000002          2.4330103769895869E-004
  0.25650000000000001          2.6548877940510451E-004
  0.25760000000000000          2.8831258532588226E-004
  0.25870000000000004          3.1112256692719306E-004
  0.25980000000000003          3.3273475128222659E-004
  0.26090000000000002          3.5224983002986966E-004
  0.26200000000000001          3.6972700036127143E-004
  0.26310000000000000          3.8601076812479478E-004
  0.26419999999999999          4.0183504461306733E-004
  0.26530000000000004          4.1810949915084469E-004
  0.26640000000000003          4.3509347597132692E-004
  0.26750000000000002          4.5212535769674109E-004
  0.26860000000000001          4.6796223614360195E-004
  0.26970000000000000          4.8155614058482331E-004
  0.27080000000000004          4.9258535727853643E-004
  0.27190000000000003          5.0187780288974402E-004
  0.27300000000000002          5.1043636631215462E-004
  0.27410000000000001          5.1854702178383630E-004
  0.27520000000000000          5.2623043302441335E-004
  0.27629999999999999          5.3326948545867831E-004
  0.27740000000000004          5.3885299712414132E-004
  0.27850000000000003          5.4237234871829096E-004
  0.27960000000000002          5.4397562053049128E-004
  0.28070000000000001          5.4402794921765260E-004
  0.28179999999999999          5.4163573076943113E-004
  0.28290000000000004          5.3725298494095204E-004
  0.28400000000000003          5.3061329526821427E-004
  0.28510000000000002          5.2220735233271824E-004
  0.28620000000000001          5.1289785187686268E-004
  0.28730000000000000          5.0324277253816407E-004
  0.28840000000000005          4.9303693231190246E-004
  0.28950000000000004          4.8193975817407297E-004
  0.29060000000000002          4.6909827506164971E-004
  0.29170000000000001          4.5336841139937849E-004
  0.29280000000000000          4.3490613461467708E-004
  0.29389999999999999          4.1358638554807287E-004
  0.29500000000000004          3.8998646778050562E-004
  0.29610000000000003          3.6503735464062527E-004
  0.29720000000000002          3.3911527134474596E-004
  0.29830000000000001          3.1285895965990168E-004
  0.29940000000000000          2.8581215883602222E-004
  0.30050000000000004          2.5717285461721143E-004
  0.30160000000000003          2.2618020011575400E-004
  0.30270000000000002          1.9229603640267444E-004
  0.30380000000000001          1.5574634016955407E-004
  0.30490000000000000          1.1817265476564412E-004
  0.30599999999999999          8.1009478890326669E-005
  0.30709999999999998          4.4444564991856919E-005
  0.30819999999999997          7.6877176979880955E-006
  0.30930000000000007         -3.1320247217079929E-005
  0.31040000000000006         -7.3222610808437708E-005
  0.31150000000000005         -1.1828285641967292E-004
  0.31260000000000004         -1.6455448349005103E-004
  0.31370000000000003         -2.1076136908957798E-004
  0.31480000000000002         -2.5585811818016317E-004
  0.31590000000000001         -3.0004227301103179E-004
  0.31700000000000000         -3.4412764944133031E-004
  0.31809999999999999         -3.8875141763124789E-004
  0.31919999999999998         -4.3474492849778109E-004
  0.32029999999999997         -4.8153824172909572E-004
  0.32140000000000007         -5.2867043996224846E-004
  0.32250000000000006         -5.7594478130335209E-004
  0.32360000000000005         -6.2318524578580409E-004
  0.32470000000000004         -6.7051901714870038E-004
  0.32580000000000003         -7.1732973447062825E-004
  0.32690000000000002         -7.6301873195909269E-004
  0.32800000000000001         -8.0783333396531513E-004
  0.32910000000000000         -8.5170386591918205E-004
  0.33019999999999999         -8.9503644267088702E-004
  0.33129999999999998         -9.3734194524577386E-004
  0.33239999999999997         -9.7861955873658978E-004
  0.33350000000000007         -1.0190149769186011E-003
  0.33460000000000006         -1.0583646362646412E-003
  0.33570000000000005         -1.0968248825519241E-003
  0.33680000000000004         -1.1341887293382408E-003
  0.33790000000000003         -1.1697495356201022E-003
  0.33900000000000002         -1.2027807533739863E-003
  0.34010000000000001         -1.2330068275331286E-003
  0.34120000000000000         -1.2610555859281418E-003
  0.34229999999999999         -1.2876134132965178E-003
  0.34339999999999998         -1.3134841574354715E-003
  0.34449999999999997         -1.3387146173043773E-003
  0.34560000000000007         -1.3623393606393243E-003
  0.34670000000000006         -1.3836075086145288E-003
  0.34780000000000005         -1.4017581706865297E-003
  0.34890000000000004         -1.4166650362311454E-003
