 -0.20000000000000001          0.0000000000000000
 -0.19890000000000002          7.4052319831707791E-010
 -0.19780000000000000          1.6710269834518954E-009
 -0.19670000000000001          2.1602051258895472E-009
 -0.19560000000000002          2.1046908660338204E-009
 -0.19450000000000001          1.9713266574683530E-009
 -0.19340000000000002          2.2512660624585124E-009
 -0.19230000000000000          2.9173925497616437E-009
 -0.19120000000000001          3.4621903122200592E-009
 -0.19010000000000002          3.4710123664183357E-009
 -0.18900000000000000          3.1143028156321861E-009
 -0.18790000000000001          3.0246836146829992E-009
 -0.18680000000000002          3.6739549180708764E-009
 -0.18570000000000000          4.8965773657982936E-009
 -0.18460000000000001          6.0593179362911087E-009
 -0.18350000000000000          6.7042336127087765E-009
 -0.18240000000000001          6.9994334772616185E-009
 -0.18130000000000002          7.5354744666356055E-009
 -0.18020000000000000          8.6903462204190873E-009
 -0.17910000000000001          1.0234007419285263E-008
 -0.17800000000000002          1.1586413606323731E-008
 -0.17690000000000000          1.2453679865132017E-008
 -0.17580000000000001          1.3169890955566643E-008
 -0.17470000000000002          1.4382229629461563E-008
 -0.17360000000000000          1.6406554337322632E-008
 -0.17250000000000001          1.8925241818124050E-008
 -0.17140000000000000          2.1339888078841796E-008
 -0.17030000000000001          2.3407473292991199E-008
 -0.16920000000000002          2.5496895261767349E-008
 -0.16810000000000000          2.8205095148337023E-008
 -0.16700000000000001          3.1742512618393448E-008
 -0.16589999999999999          3.5733886960542804E-008
 -0.16480000000000000          3.9639790117007578E-008
 -0.16370000000000001          4.3353566070436500E-008
 -0.16260000000000002          4.7349576703936691E-008
 -0.16150000000000000          5.2232724812029119E-008
 -0.16040000000000001          5.8164239646885108E-008
 -0.15930000000000000          6.4760406814912130E-008
 -0.15820000000000001          7.1558901026946842E-008
 -0.15710000000000002          7.8554982962941722E-008
 -0.15600000000000000          8.6246707553527813E-008
 -0.15490000000000001          9.5152451251578896E-008
 -0.15379999999999999          1.0531808669611564E-007
 -0.15270000000000000          1.1633439100933174E-007
 -0.15160000000000001          1.2784187219949672E-007
 -0.15050000000000002          1.3998830183936661E-007
 -0.14940000000000001          1.5335976399910578E-007
 -0.14830000000000002          1.6846375672230351E-007
 -0.14720000000000000          1.8531130763221881E-007
 -0.14610000000000001          2.0353336083189788E-007
 -0.14500000000000002          2.2290018364401476E-007
 -0.14390000000000000          2.4369151674363820E-007
 -0.14280000000000001          2.6653069085114112E-007
 -0.14169999999999999          2.9186477945586375E-007
 -0.14060000000000000          3.1964393087946519E-007
 -0.13950000000000001          3.4953728800246608E-007
 -0.13840000000000002          3.8145421399349289E-007
 -0.13730000000000001          4.1582114818083937E-007
 -0.13619999999999999          4.5332652121032879E-007
 -0.13510000000000000          4.9440916427556658E-007
 -0.13400000000000001          5.3903136176813859E-007
 -0.13290000000000002          5.8697321492218180E-007
 -0.13180000000000000          6.3833329022600083E-007
 -0.13070000000000001          6.9370605615404202E-007
 -0.12959999999999999          7.5385156605989323E-007
 -0.12850000000000000          8.1920654793066205E-007
 -0.12740000000000001          8.8975218659470556E-007
 -0.12630000000000002          9.6537382887618151E-007
 -0.12520000000000001          1.0463353419254418E-006
 -0.12410000000000000          1.1333721658957074E-006
 -0.12300000000000001          1.2273155789443990E-006
 -0.12190000000000001          1.3286481816976448E-006
 -0.12080000000000000          1.4374575130204903E-006
 -0.11970000000000000          1.5538313391516567E-006
 -0.11860000000000001          1.6782731790954131E-006
 -0.11750000000000001          1.8117032141162781E-006
 -0.11640000000000000          1.9550479919416830E-006
 -0.11530000000000000          2.1088524135848274E-006
 -0.11420000000000001          2.2733195237378823E-006
 -0.11310000000000001          2.4487278551532654E-006
 -0.11200000000000000          2.6357922706665704E-006
 -0.11090000000000001          2.8355923404888017E-006
 -0.10980000000000001          3.0491557936329627E-006
 -0.10870000000000000          3.2771388305263827E-006
 -0.10760000000000000          3.5199357171222800E-006
 -0.10650000000000001          3.7780926049890695E-006
 -0.10540000000000001          4.0525878830521833E-006
 -0.10430000000000000          4.3446893869258929E-006
 -0.10320000000000000          4.6555455810448620E-006
 -0.10210000000000001          4.9859431783261243E-006
 -0.10100000000000001          5.3364792620413937E-006
  -9.9900000000000003E-002     5.7079610087384935E-006
  -9.8799999999999999E-002     6.1016094150545541E-006
  -9.7700000000000009E-002     6.5188582993869204E-006
  -9.6600000000000005E-002     6.9609736783604603E-006
  -9.5500000000000002E-002     7.4288873292971402E-006
  -9.4400000000000012E-002     7.9234223449020647E-006
  -9.3300000000000008E-002     8.4456578406388871E-006
  -9.2200000000000004E-002     8.9970535555039532E-006
  -9.1100000000000000E-002     9.5792102001723833E-006
  -9.0000000000000011E-002     1.0193518392043188E-005
  -8.8900000000000007E-002     1.0841067705769092E-005
  -8.7800000000000003E-002     1.1522904969751835E-005
  -8.6699999999999999E-002     1.2240354408277199E-005
  -8.5600000000000009E-002     1.2995071301702410E-005
  -8.4500000000000006E-002     1.3788770957035013E-005
  -8.3400000000000002E-002     1.4622920389228966E-005
  -8.2299999999999998E-002     1.5498721040785313E-005
  -8.1200000000000008E-002     1.6417396182077937E-005
  -8.0100000000000005E-002     1.7380447388859466E-005
  -7.9000000000000001E-002     1.8389664546702988E-005
  -7.7899999999999997E-002     1.9446822989266366E-005
  -7.6800000000000007E-002     2.0553441572701558E-005
  -7.5700000000000003E-002     2.1710806322516873E-005
  -7.4600000000000000E-002     2.2920257833902724E-005
  -7.3500000000000010E-002     2.4183400455513038E-005
  -7.2399999999999992E-002     2.5502056814730167E-005
  -7.1300000000000002E-002     2.6877971322392114E-005
  -7.0200000000000012E-002     2.8312606445979327E-005
  -6.9099999999999995E-002     2.9807233659084886E-005
  -6.8000000000000005E-002     3.1363197194878012E-005
  -6.6900000000000015E-002     3.2982068660203367E-005
  -6.5799999999999997E-002     3.4665561543079093E-005
  -6.4700000000000008E-002     3.6415272916201502E-005
  -6.3599999999999990E-002     3.8232516089919955E-005
  -6.2500000000000000E-002     4.0118444303516299E-005
  -6.1400000000000010E-002     4.2074298107763752E-005
  -6.0299999999999992E-002     4.4101499952375889E-005
  -5.9200000000000003E-002     4.6201534132706001E-005
  -5.8100000000000013E-002     4.8375703045167029E-005
  -5.6999999999999995E-002     5.0625050789676607E-005
  -5.5900000000000005E-002     5.2950468671042472E-005
  -5.4800000000000015E-002     5.5352917115669698E-005
  -5.3699999999999998E-002     5.7833465689327568E-005
  -5.2600000000000008E-002     6.0393183957785368E-005
  -5.1499999999999990E-002     6.3032937759999186E-005
  -5.0400000000000000E-002     6.5753374656196684E-005
  -4.9300000000000010E-002     6.8554996687453240E-005
  -4.8199999999999993E-002     7.1438356826547533E-005
  -4.7100000000000003E-002     7.4404037150088698E-005
  -4.6000000000000013E-002     7.7452576078940183E-005
  -4.4899999999999995E-002     8.0584322859067470E-005
  -4.3800000000000006E-002     8.3799357526004314E-005
  -4.2699999999999988E-002     8.7097629148047417E-005
  -4.1599999999999998E-002     9.0479123173281550E-005
  -4.0500000000000008E-002     9.3943803221918643E-005
  -3.9399999999999991E-002     9.7491531050764024E-005
  -3.8300000000000001E-002     1.0112197196576744E-004
  -3.7200000000000011E-002     1.0483458027010784E-004
  -3.6099999999999993E-002     1.0862866474781185E-004
  -3.5000000000000003E-002     1.1250351235503331E-004
  -3.3900000000000013E-002     1.1645843187579885E-004
  -3.2799999999999996E-002     1.2049255019519478E-004
  -3.1700000000000006E-002     1.2460480502340943E-004
  -3.0599999999999988E-002     1.2879393761977553E-004
  -2.9499999999999998E-002     1.3305856555234641E-004
  -2.8400000000000009E-002     1.3739730638917536E-004
  -2.7299999999999991E-002     1.4180867583490908E-004
  -2.6200000000000001E-002     1.4629105862695724E-004
  -2.5100000000000011E-002     1.5084257756825536E-004
  -2.3999999999999994E-002     1.5546129725407809E-004
  -2.2900000000000004E-002     1.6014516586437821E-004
  -2.1800000000000014E-002     1.6489210247527808E-004
  -2.0699999999999996E-002     1.6969992429949343E-004
  -1.9600000000000006E-002     1.7456627392675728E-004
  -1.8499999999999989E-002     1.7948866297956556E-004
  -1.7399999999999999E-002     1.8446451576892287E-004
  -1.6300000000000009E-002     1.8949121295008808E-004
  -1.5199999999999991E-002     1.9456606241874397E-004
  -1.4100000000000001E-002     1.9968622655142099E-004
  -1.3000000000000012E-002     2.0484873675741255E-004
  -1.1899999999999994E-002     2.1005056623835117E-004
  -1.0800000000000004E-002     2.1528864454012364E-004
  -9.6999999999999864E-003     2.2055987210478634E-004
  -8.5999999999999965E-003     2.2586106206290424E-004
  -7.5000000000000067E-003     2.3118896933738142E-004
  -6.3999999999999890E-003     2.3654026153963059E-004
  -5.2999999999999992E-003     2.4191159172914922E-004
  -4.2000000000000093E-003     2.4729955475777388E-004
  -3.0999999999999917E-003     2.5270076002925634E-004
  -2.0000000000000018E-003     2.5811180239543319E-004
  -9.0000000000001190E-004     2.6352924760431051E-004
   2.0000000000000573E-004     2.6894948678091168E-004
   1.2999999999999956E-003     2.7436905656941235E-004
   2.4000000000000132E-003     2.7978449361398816E-004
   3.5000000000000031E-003     2.8519236366264522E-004
   4.5999999999999930E-003     2.9058917425572872E-004
   5.7000000000000106E-003     2.9597152024507523E-004
   6.8000000000000005E-003     3.0133588006719947E-004
   7.8999999999999904E-003     3.0667896498925984E-004
   9.0000000000000080E-003     3.1199745717458427E-004
   1.0099999999999998E-002     3.1728812609799206E-004
   1.1199999999999988E-002     3.2254768302664161E-004
   1.2300000000000005E-002     3.2777289743535221E-004
   1.3399999999999995E-002     3.3296065521426499E-004
   1.4500000000000013E-002     3.3810795866884291E-004
   1.5600000000000003E-002     3.4321189741604030E-004
   1.6699999999999993E-002     3.4826959017664194E-004
   1.7800000000000010E-002     3.5327806835994124E-004
   1.8900000000000000E-002     3.5823462530970573E-004
   1.9999999999999990E-002     3.6313678720034659E-004
   2.1100000000000008E-002     3.6798205110244453E-004
   2.2199999999999998E-002     3.7276800139807165E-004
   2.3300000000000015E-002     3.7749228067696095E-004
   2.4400000000000005E-002     3.8215264794416726E-004
   2.5499999999999995E-002     3.8674694951623678E-004
   2.6600000000000013E-002     3.9127329364418983E-004
   2.7700000000000002E-002     3.9572990499436855E-004
   2.8799999999999992E-002     4.0011509554460645E-004
   2.9900000000000010E-002     4.0442711906507611E-004
   3.1000000000000000E-002     4.0866440394893289E-004
   3.2099999999999990E-002     4.1282549500465393E-004
   3.3200000000000007E-002     4.1690922807902098E-004
   3.4299999999999997E-002     4.2091461364179850E-004
   3.5400000000000015E-002     4.2484060395509005E-004
   3.6500000000000005E-002     4.2868623859249055E-004
   3.7599999999999995E-002     4.3245067354291677E-004
   3.8700000000000012E-002     4.3613326852209866E-004
   3.9800000000000002E-002     4.3973349966108799E-004
   4.0899999999999992E-002     4.4325098861008883E-004
   4.2000000000000010E-002     4.4668547343462706E-004
   4.3099999999999999E-002     4.5003680861555040E-004
   4.4200000000000017E-002     4.5330476132221520E-004
   4.5300000000000007E-002     4.5648933155462146E-004
   4.6399999999999997E-002     4.5959060662426054E-004
   4.7500000000000014E-002     4.6260893577709794E-004
   4.8600000000000004E-002     4.6554475557059050E-004
   4.9699999999999994E-002     4.6839844435453415E-004
   5.0800000000000012E-002     4.7117046779021621E-004
   5.1900000000000002E-002     4.7386132064275444E-004
   5.2999999999999992E-002     4.7647173050791025E-004
   5.4099999999999981E-002     4.7900262870825827E-004
   5.5200000000000027E-002     4.8145488835871220E-004
   5.6300000000000017E-002     4.8382929526269436E-004
   5.7400000000000007E-002     4.8612675163894892E-004
   5.8499999999999996E-002     4.8834842164069414E-004
   5.9599999999999986E-002     4.9049546942114830E-004
   6.0700000000000032E-002     4.9256900092586875E-004
   6.1800000000000022E-002     4.9457035493105650E-004
   6.2900000000000011E-002     4.9650075379759073E-004
   6.4000000000000001E-002     4.9836141988635063E-004
   6.5099999999999991E-002     5.0015375018119812E-004
   6.6199999999999981E-002     5.0187925808131695E-004
   6.7300000000000026E-002     5.0353934057056904E-004
   6.8400000000000016E-002     5.0513545284047723E-004
   6.9500000000000006E-002     5.0666899187490344E-004
   7.0599999999999996E-002     5.0814141286537051E-004
   7.1699999999999986E-002     5.0955422921106219E-004
   7.2800000000000031E-002     5.1090907072648406E-004
   7.3900000000000021E-002     5.1220768364146352E-004
   7.5000000000000011E-002     5.1345152314752340E-004
   7.6100000000000001E-002     5.1464192802086473E-004
   7.7199999999999991E-002     5.1578041166067123E-004
   7.8299999999999981E-002     5.1686854567378759E-004
   7.9400000000000026E-002     5.1790819270536304E-004
   8.0500000000000016E-002     5.1890080794692039E-004
   8.1600000000000006E-002     5.1984796300530434E-004
   8.2699999999999996E-002     5.2075093844905496E-004
   8.3799999999999986E-002     5.2161107305437326E-004
   8.4900000000000031E-002     5.2242999663576484E-004
   8.6000000000000021E-002     5.2320945542305708E-004
   8.7100000000000011E-002     5.2395084640011191E-004
   8.8200000000000001E-002     5.2465550834313035E-004
   8.9299999999999990E-002     5.2532466361299157E-004
   9.0399999999999980E-002     5.2595959277823567E-004
   9.1500000000000026E-002     5.2656180923804641E-004
   9.2600000000000016E-002     5.2713282639160752E-004
   9.3700000000000006E-002     5.2767392480745912E-004
   9.4799999999999995E-002     5.2818626863881946E-004
   9.5899999999999985E-002     5.2867078920826316E-004
   9.7000000000000031E-002     5.2912882529199123E-004
   9.8100000000000021E-002     5.2956165745854378E-004
   9.9200000000000010E-002     5.2997039165347815E-004
  0.10030000000000000          5.3035630844533443E-004
  0.10139999999999999          5.3072016453370452E-004
  0.10249999999999998          5.3106294944882393E-004
  0.10360000000000003          5.3138571092858911E-004
  0.10470000000000002          5.3168949671089649E-004
  0.10580000000000001          5.3197547094896436E-004
  0.10690000000000000          5.3224444855004549E-004
  0.10799999999999998          5.3249701159074903E-004
  0.10910000000000003          5.3273397497832775E-004
  0.11020000000000002          5.3295621182769537E-004
  0.11130000000000001          5.3316471166908741E-004
  0.11240000000000000          5.3336023120209575E-004
  0.11349999999999999          5.3354329429566860E-004
  0.11460000000000004          5.3371454123407602E-004
  0.11570000000000003          5.3387455409392715E-004
  0.11680000000000001          5.3402408957481384E-004
  0.11790000000000000          5.3416384616866708E-004
  0.11899999999999999          5.3429440595209599E-004
  0.12009999999999998          5.3441623458638787E-004
  0.12120000000000003          5.3452968131750822E-004
  0.12230000000000002          5.3463532822206616E-004
  0.12340000000000001          5.3473364096134901E-004
  0.12450000000000000          5.3482525981962681E-004
  0.12559999999999999          5.3491053404286504E-004
  0.12670000000000003          5.3498975466936827E-004
  0.12780000000000002          5.3506315452978015E-004
  0.12890000000000001          5.3513125749304891E-004
  0.13000000000000000          5.3519435459747910E-004
  0.13109999999999999          5.3525291150435805E-004
  0.13219999999999998          5.3530727745965123E-004
  0.13330000000000003          5.3535768529400229E-004
  0.13440000000000002          5.3540419321507215E-004
  0.13550000000000001          5.3544703405350447E-004
  0.13660000000000000          5.3548661526292562E-004
  0.13769999999999999          5.3552334429696202E-004
  0.13880000000000003          5.3555727936327457E-004
  0.13990000000000002          5.3558853687718511E-004
  0.14100000000000001          5.3561711683869362E-004
  0.14210000000000000          5.3564336849376559E-004
  0.14319999999999999          5.3566769929602742E-004
  0.14429999999999998          5.3569016745314002E-004
  0.14540000000000003          5.3571094758808613E-004
  0.14650000000000002          5.3572980687022209E-004
  0.14760000000000001          5.3574703633785248E-004
  0.14870000000000000          5.3576286882162094E-004
  0.14979999999999999          5.3577753715217113E-004
  0.15090000000000003          5.3579104132950306E-004
  0.15200000000000002          5.3580338135361671E-004
  0.15310000000000001          5.3581455722451210E-004
  0.15420000000000000          5.3582462714985013E-004
  0.15529999999999999          5.3583382396027446E-004
  0.15639999999999998          5.3584243869408965E-004
  0.15750000000000003          5.3585035493597388E-004
  0.15860000000000002          5.3585757268592715E-004
  0.15970000000000001          5.3586409194394946E-004
  0.16080000000000000          5.3586985450237989E-004
  0.16189999999999999          5.3587515139952302E-004
  0.16300000000000003          5.3588009905070066E-004
  0.16410000000000002          5.3588469745591283E-004
  0.16520000000000001          5.3588883019983768E-004
  0.16630000000000000          5.3589238086715341E-004
  0.16739999999999999          5.3589558228850365E-004
  0.16850000000000004          5.3589855087921023E-004
  0.16960000000000003          5.3590140305459499E-004
  0.17070000000000002          5.3590396419167519E-004
  0.17180000000000001          5.3590617608278990E-004
  0.17290000000000000          5.3590803872793913E-004
  0.17399999999999999          5.3590978495776653E-004
  0.17510000000000003          5.3591158939525485E-004
  0.17620000000000002          5.3591327741742134E-004
  0.17730000000000001          5.3591473260894418E-004
  0.17840000000000000          5.3591578034684062E-004
  0.17949999999999999          5.3591659525409341E-004
  0.18060000000000004          5.3591752657666802E-004
  0.18170000000000003          5.3591863252222538E-004
  0.18280000000000002          5.3591968026012182E-004
  0.18390000000000001          5.3592037875205278E-004
  0.18500000000000000          5.3592084441334009E-004
  0.18609999999999999          5.3592119365930557E-004
  0.18720000000000003          5.3592171752825379E-004
  0.18830000000000002          5.3592247422784567E-004
  0.18940000000000001          5.3592311451211572E-004
  0.19050000000000000          5.3592352196574211E-004
  0.19159999999999999          5.3592363838106394E-004
  0.19270000000000004          5.3592375479638577E-004
  0.19380000000000003          5.3592416225001216E-004
  0.19490000000000002          5.3592468611896038E-004
  0.19600000000000001          5.3592497715726495E-004
  0.19710000000000000          5.3592509357258677E-004
  0.19819999999999999          5.3592509357258677E-004
  0.19930000000000003          5.3592526819556952E-004
  0.20040000000000002          5.3592555923387408E-004
  0.20150000000000001          5.3592585027217865E-004
  0.20260000000000000          5.3592596668750048E-004
  0.20369999999999999          5.3592596668750048E-004
  0.20480000000000004          5.3592596668750048E-004
  0.20590000000000003          5.3592608310282230E-004
  0.20700000000000002          5.3592643234878778E-004
  0.20810000000000001          5.3592678159475327E-004
  0.20920000000000000          5.3592683980241418E-004
  0.21029999999999999          5.3592666517943144E-004
  0.21140000000000003          5.3592666517943144E-004
  0.21250000000000002          5.3592689801007509E-004
  0.21360000000000001          5.3592736367136240E-004
  0.21470000000000000          5.3592759650200605E-004
  0.21579999999999999          5.3592759650200605E-004
  0.21690000000000004          5.3592742187902331E-004
  0.21800000000000003          5.3592742187902331E-004
  0.21910000000000002          5.3592777112498879E-004
  0.22020000000000001          5.3592823678627610E-004
  0.22130000000000000          5.3592858603224158E-004
  0.22239999999999999          5.3592858603224158E-004
  0.22350000000000003          5.3592841140925884E-004
  0.22460000000000002          5.3592852782458067E-004
  0.22570000000000001          5.3592899348586798E-004
  0.22680000000000000          5.3592957556247711E-004
  0.22789999999999999          5.3592998301610351E-004
  0.22900000000000004          5.3592998301610351E-004
  0.23010000000000003          5.3592986660078168E-004
  0.23120000000000002          5.3593009943142533E-004
  0.23230000000000001          5.3593068150803447E-004
  0.23340000000000000          5.3593132179230452E-004
  0.23450000000000004          5.3593172924593091E-004
  0.23560000000000003          5.3593184566125274E-004
  0.23670000000000002          5.3593196207657456E-004
  0.23780000000000001          5.3593248594552279E-004
  0.23890000000000000          5.3593330085277557E-004
  0.23999999999999999          5.3593399934470654E-004
  0.24110000000000004          5.3593446500599384E-004
  0.24220000000000003          5.3593469783663750E-004
  0.24330000000000002          5.3593510529026389E-004
  0.24440000000000001          5.3593586198985577E-004
  0.24550000000000000          5.3593685152009130E-004
  0.24660000000000004          5.3593778284266591E-004
  0.24770000000000003          5.3593836491927505E-004
  0.24880000000000002          5.3593883058056235E-004
  0.24990000000000001          5.3593952907249331E-004
  0.25100000000000000          5.3594069322571158E-004
  0.25209999999999999          5.3594197379425168E-004
  0.25320000000000004          5.3594313794746995E-004
  0.25430000000000003          5.3594406927004457E-004
  0.25540000000000002          5.3594482596963644E-004
  0.25650000000000001          5.3594593191519380E-004
  0.25760000000000000          5.3594738710671663E-004
  0.25870000000000004          5.3594913333654404E-004
  0.25980000000000003          5.3595064673572779E-004
  0.26090000000000002          5.3595192730426788E-004
  0.26200000000000001          5.3595309145748615E-004
  0.26310000000000000          5.3595460485666990E-004
  0.26419999999999999          5.3595658391714096E-004
  0.26530000000000004          5.3595879580825567E-004
  0.26640000000000003          5.3596077486872673E-004
  0.26750000000000002          5.3596252109855413E-004
  0.26860000000000001          5.3596438374370337E-004
  0.26970000000000000          5.3596659563481808E-004
  0.27080000000000004          5.3596915677189827E-004
  0.27190000000000003          5.3597177611663938E-004
  0.27300000000000002          5.3597427904605865E-004
  0.27410000000000001          5.3597666556015611E-004
  0.27520000000000000          5.3597922669723630E-004
  0.27629999999999999          5.3598225349560380E-004
  0.27740000000000004          5.3598551312461495E-004
  0.27850000000000003          5.3598877275362611E-004
  0.27960000000000002          5.3599203238263726E-004
  0.28070000000000001          5.3599529201164842E-004
  0.28179999999999999          5.3599878447130322E-004
  0.28290000000000004          5.3600262617692351E-004
  0.28400000000000003          5.3600670071318746E-004
  0.28510000000000002          5.3601083345711231E-004
  0.28620000000000001          5.3601496620103717E-004
  0.28730000000000000          5.3601915715262294E-004
  0.28840000000000005          5.3602369735017419E-004
  0.28950000000000004          5.3602852858603001E-004
  0.29060000000000002          5.3603365086019039E-004
  0.29170000000000001          5.3603877313435078E-004
  0.29280000000000000          5.3604395361617208E-004
  0.29389999999999999          5.3604936692863703E-004
  0.29500000000000004          5.3605501307174563E-004
  0.29610000000000003          5.3606100846081972E-004
  0.29720000000000002          5.3606723668053746E-004
  0.29830000000000001          5.3607358131557703E-004
  0.29940000000000000          5.3607998415827751E-004
  0.30050000000000004          5.3608661983162165E-004
  0.30160000000000003          5.3609360475093126E-004
  0.30270000000000002          5.3610088070854545E-004
  0.30380000000000001          5.3610838949680328E-004
  0.30490000000000000          5.3611613111570477E-004
  0.30599999999999999          5.3612398914992809E-004
  0.30709999999999998          5.3613208001479506E-004
  0.30819999999999997          5.3614052012562752E-004
  0.30930000000000007          5.3614930948242545E-004
  0.31040000000000006          5.3615827346220613E-004
  0.31150000000000005          5.3616735385730863E-004
  0.31260000000000004          5.3617666708305478E-004
  0.31370000000000003          5.3618632955476642E-004
  0.31480000000000002          5.3619639948010445E-004
  0.31590000000000001          5.3620670223608613E-004
  0.31700000000000000          5.3621723782271147E-004
  0.31809999999999999          5.3622800623998046E-004
  0.31919999999999998          5.3623900748789310E-004
  0.32029999999999997          5.3625029977411032E-004
  0.32140000000000007          5.3626194130629301E-004
  0.32250000000000006          5.3627393208444118E-004
  0.32360000000000005          5.3628621390089393E-004
  0.32470000000000004          5.3629872854799032E-004
  0.32580000000000003          5.3631141781806946E-004
  0.32690000000000002          5.3632433991879225E-004
  0.32800000000000001          5.3633766947314143E-004
  0.32910000000000000          5.3635146468877792E-004
  0.33019999999999999          5.3636549273505807E-004
  0.33129999999999998          5.3637969540432096E-004
  0.33239999999999997          5.3639413090422750E-004
  0.33350000000000007          5.3640874102711678E-004
  0.33460000000000006          5.3642375860363245E-004
  0.33570000000000005          5.3643930004909635E-004
  0.33680000000000004          5.3645519074052572E-004
  0.33790000000000003          5.3647113963961601E-004
  0.33900000000000002          5.3648726316168904E-004
  0.34010000000000001          5.3650373592972755E-004
  0.34120000000000000          5.3652049973607063E-004
  0.34229999999999999          5.3653761278837919E-004
  0.34339999999999998          5.3655501687899232E-004
  0.34449999999999997          5.3657265380024910E-004
  0.34560000000000007          5.3659046534448862E-004
  0.34670000000000006          5.3660856792703271E-004
  0.34780000000000005          5.3662701975554228E-004
  0.34890000000000004          5.3664570441469550E-004
