 -0.20000000000000001          0.0000000000000000
 -0.19890000000000002          0.0000000000000000
 -0.19780000000000000          0.0000000000000000
 -0.19670000000000001          0.0000000000000000
 -0.19560000000000002          4.7818078712577826E-018
 -0.19450000000000001          2.7899352840980431E-017
 -0.19340000000000002          7.7775451954506514E-017
 -0.19230000000000000          1.2614039796801662E-016
 -0.19120000000000001          1.0128909318773079E-016
 -0.19010000000000002         -4.2928672014419758E-017
 -0.18900000000000000         -2.1085551145003881E-016
 -0.18790000000000001         -1.4881352443721352E-016
 -0.18680000000000002          3.2706202612666521E-016
 -0.18570000000000000          9.5683615754748024E-016
 -0.18460000000000001          9.4562758231470090E-016
 -0.18350000000000000         -4.1573933474281640E-016
 -0.18240000000000001         -2.6221452834967974E-015
 -0.18130000000000002         -3.4358644249355861E-015
 -0.18020000000000000         -2.5464952357302990E-016
 -0.17910000000000001          6.7897890001361594E-015
 -0.17800000000000002          1.2535945317828506E-014
 -0.17690000000000000          8.8081363763033854E-015
 -0.17580000000000001         -8.3907032933034156E-015
 -0.17470000000000002         -3.1143365203335424E-014
 -0.17360000000000000         -3.9665739768289521E-014
 -0.17250000000000001         -1.5026261146271723E-014
 -0.17140000000000000          4.1316295274363563E-014
 -0.17030000000000001          9.7240744373772864E-014
 -0.16920000000000002          1.0371190668420627E-013
 -0.16810000000000000          3.0582534524562985E-014
 -0.16700000000000001         -9.9252366308338891E-014
 -0.16589999999999999         -2.0849222684676122E-013
 -0.16480000000000000         -2.0922372450001003E-013
 -0.16370000000000001         -6.8670668652327793E-014
 -0.16260000000000002          1.5103260168122107E-013
 -0.16150000000000000          3.1662397855479474E-013
 -0.16040000000000001          3.0525481773367724E-013
 -0.15930000000000000          9.2569161158021634E-014
 -0.15820000000000001         -2.1487179440241033E-013
 -0.15710000000000002         -4.3032810930106191E-013
 -0.15600000000000000         -3.9266325108956723E-013
 -0.15490000000000001         -6.3068277542707024E-014
 -0.15379999999999999          4.4419857874421209E-013
 -0.15270000000000000          9.1329558932901067E-013
 -0.15160000000000001          1.1320202587816741E-012
 -0.15050000000000002          9.9656123197372493E-013
 -0.14940000000000001          5.5938180519923830E-013
 -0.14830000000000002         -1.8706690452859227E-014
 -0.14720000000000000         -6.1345546698010622E-013
 -0.14610000000000001         -1.3230899665803153E-012
 -0.14500000000000002         -2.5850975006458388E-012
 -0.14390000000000000         -5.1090624786365169E-012
 -0.14280000000000001         -9.5908246622311566E-012
 -0.14169999999999999         -1.6314036926923237E-011
 -0.14060000000000000         -2.4855518684918643E-011
 -0.13950000000000001         -3.4093530082435208E-011
 -0.13840000000000002         -4.2558949420179459E-011
 -0.13730000000000001         -4.8968471638710653E-011
 -0.13619999999999999         -5.2681553563971306E-011
 -0.13510000000000000         -5.3896567764333270E-011
 -0.13400000000000001         -5.3574873704054227E-011
 -0.13290000000000002         -5.3206591910104351E-011
 -0.13180000000000000         -5.4522927839251167E-011
 -0.13070000000000001         -5.9170966737465136E-011
 -0.12959999999999999         -6.8330688329787392E-011
 -0.12850000000000000         -8.2335992190873952E-011
 -0.12740000000000001         -1.0047975645965934E-010
 -0.12630000000000002         -1.2118413217354629E-010
 -0.12520000000000001         -1.4254125657586769E-010
 -0.12410000000000000         -1.6299399330232944E-010
 -0.12300000000000001         -1.8183114736114447E-010
 -0.12190000000000001         -1.9930490591235639E-010
 -0.12080000000000000         -2.1642608538652297E-010
 -0.11970000000000000         -2.3463966880576947E-010
 -0.11860000000000001         -2.5552887583657480E-010
 -0.11750000000000001         -2.8054811251898570E-010
 -0.11640000000000000         -3.1073765782707596E-010
 -0.11530000000000000         -3.4648942048853826E-010
 -0.11420000000000001         -3.8755784692590112E-010
 -0.11310000000000001         -4.3344083877627781E-010
 -0.11200000000000000         -4.8397563734425830E-010
 -0.11090000000000001         -5.3974652525212719E-010
 -0.10980000000000001         -6.0196181372873525E-010
 -0.10870000000000000         -6.7184291463462387E-010
 -0.10760000000000000         -7.4997297261347740E-010
 -0.10650000000000001         -8.3610596224303890E-010
 -0.10540000000000001         -9.2957530561932344E-010
 -0.10430000000000000         -1.0299711084016394E-009
 -0.10320000000000000         -1.1375976827210366E-009
 -0.10210000000000001         -1.2534865367896941E-009
 -0.10100000000000001         -1.3791433550736087E-009
  -9.9900000000000003E-002    -1.5163482691704644E-009
  -9.8799999999999999E-002    -1.6671105607102277E-009
  -9.7700000000000009E-002    -1.8335902796096093E-009
  -9.6600000000000005E-002    -2.0177954862532488E-009
  -9.5500000000000002E-002    -2.2211776862235411E-009
  -9.4400000000000012E-002    -2.4445254709348774E-009
  -9.3300000000000008E-002    -2.6884132697801988E-009
  -9.2200000000000004E-002    -2.9539819479396101E-009
  -9.1100000000000000E-002    -3.2434341878939676E-009
  -9.0000000000000011E-002    -3.5597893521810420E-009
  -8.8900000000000007E-002    -3.9060670253832086E-009
  -8.7800000000000003E-002    -4.2845926806478474E-009
  -8.6699999999999999E-002    -4.6970280997982172E-009
  -8.5600000000000009E-002    -5.1450661509022666E-009
  -8.4500000000000006E-002    -5.6311346696702458E-009
  -8.3400000000000002E-002    -6.1584666255498632E-009
  -8.2299999999999998E-002    -6.7305530038197503E-009
  -8.1200000000000008E-002    -7.3506098985376411E-009
  -8.0100000000000005E-002    -8.0216686626499722E-009
  -7.9000000000000001E-002    -8.7472580290182123E-009
  -7.7899999999999997E-002    -9.5320187298852943E-009
  -7.6800000000000007E-002    -1.0381621784461004E-008
  -7.5700000000000003E-002    -1.1302036639904145E-008
  -7.4600000000000000E-002    -1.2298841944868855E-008
  -7.3500000000000010E-002    -1.3377214003185145E-008
  -7.2399999999999992E-002    -1.4542572479570026E-008
  -7.1300000000000002E-002    -1.5801189690023421E-008
  -7.0200000000000012E-002    -1.7160136422944561E-008
  -6.9099999999999995E-002    -1.8626577613645168E-008
  -6.8000000000000005E-002    -2.0207139073136204E-008
  -6.6900000000000015E-002    -2.1907974101509353E-008
  -6.5799999999999997E-002    -2.3735532650448476E-008
  -6.4700000000000008E-002    -2.5697380223732580E-008
  -6.3599999999999990E-002    -2.7802421698197577E-008
  -6.2500000000000000E-002    -3.0060515854302139E-008
  -6.1400000000000010E-002    -3.2482027734204166E-008
  -6.0299999999999992E-002    -3.5077786009196643E-008
  -5.9200000000000003E-002    -3.7859397394868211E-008
  -5.8100000000000013E-002    -4.0839349679799852E-008
  -5.6999999999999995E-002    -4.4030617374346548E-008
  -5.5900000000000005E-002    -4.7446018669461409E-008
  -5.4800000000000015E-002    -5.1097931219601378E-008
  -5.3699999999999998E-002    -5.4998761100932825E-008
  -5.2600000000000008E-002    -5.9161823884323894E-008
  -5.1499999999999990E-002    -6.3601945043956221E-008
  -5.0400000000000000E-002    -6.8335353375914565E-008
  -4.9300000000000010E-002    -7.3379091247716133E-008
  -4.8199999999999993E-002    -7.8750552745532332E-008
  -4.7100000000000003E-002    -8.4467522754039237E-008
  -4.6000000000000013E-002    -9.0548454068084538E-008
  -4.4899999999999995E-002    -9.7012488708969613E-008
  -4.3800000000000006E-002    -1.0387908844222693E-007
  -4.2699999999999988E-002    -1.1116767240082481E-007
  -4.1599999999999998E-002    -1.1889774498285988E-007
  -4.0500000000000008E-002    -1.2708966323771165E-007
  -3.9399999999999991E-002    -1.3576534740877833E-007
  -3.8300000000000001E-002    -1.4494844435830601E-007
  -3.7200000000000011E-002    -1.5466379466033686E-007
  -3.6099999999999993E-002    -1.6493673626882810E-007
  -3.5000000000000003E-002    -1.7579294819825009E-007
  -3.3900000000000013E-002    -1.8725877737324481E-007
  -3.2799999999999996E-002    -1.9936159389999375E-007
  -3.1700000000000006E-002    -2.1212962053596129E-007
  -3.0599999999999988E-002    -2.2559117951459484E-007
  -2.9499999999999998E-002    -2.3977409568942676E-007
  -2.8400000000000009E-002    -2.5470586706433096E-007
  -2.7299999999999991E-002    -2.7041434691454924E-007
  -2.6200000000000001E-002    -2.8692863907053834E-007
  -2.5100000000000011E-002    -3.0427915476138878E-007
  -2.3999999999999994E-002    -3.2249712944576459E-007
  -2.2900000000000004E-002    -3.4161419648626179E-007
  -2.1800000000000014E-002    -3.6166233030598960E-007
  -2.0699999999999996E-002    -3.8267407376224583E-007
  -1.9600000000000006E-002    -4.0468262341164518E-007
  -1.8499999999999989E-002    -4.2772140318447782E-007
  -1.7399999999999999E-002    -4.5182346752881131E-007
  -1.6300000000000009E-002    -4.7702104666313971E-007
  -1.5199999999999991E-002    -5.0334597290202510E-007
  -1.4100000000000001E-002    -5.3083039119883324E-007
  -1.3000000000000012E-002    -5.5950727073650341E-007
  -1.1899999999999994E-002    -5.8940997860190691E-007
  -1.0800000000000004E-002    -6.2057188188191503E-007
  -9.6999999999999864E-003    -6.5302577922921046E-007
  -8.5999999999999965E-003    -6.8680401454912499E-007
  -7.5000000000000067E-003    -7.2193864752989612E-007
  -6.3999999999999890E-003    -7.5846139679924818E-007
  -5.2999999999999992E-003    -7.9640284411652829E-007
  -4.2000000000000093E-003    -8.3579203646877431E-007
  -3.0999999999999917E-003    -8.7665688397464692E-007
  -2.0000000000000018E-003    -9.1902467147519928E-007
  -9.0000000000001190E-004    -9.6292251328122802E-007
   2.0000000000000573E-004    -1.0083773531732731E-006
   1.2999999999999956E-003    -1.0554149412200786E-006
   2.4000000000000132E-003    -1.1040590379707282E-006
   3.5000000000000031E-003    -1.1543320397322532E-006
   4.5999999999999930E-003    -1.2062548648827942E-006
   5.7000000000000106E-003    -1.2598475223057903E-006
   6.8000000000000005E-003    -1.3151291113899788E-006
   7.8999999999999904E-003    -1.3721166851610178E-006
   9.0000000000000080E-003    -1.4308247955341358E-006
   1.0099999999999998E-002    -1.4912657206878066E-006
   1.1199999999999988E-002    -1.5534503745584516E-006
   1.2300000000000005E-002    -1.6173883068404393E-006
   1.3399999999999995E-002    -1.6830874756124103E-006
   1.4500000000000013E-002    -1.7505528830952244E-006
   1.5600000000000003E-002    -1.8197863482782850E-006
   1.6699999999999993E-002    -1.8907862795458641E-006
   1.7800000000000010E-002    -1.9635492662928300E-006
   1.8900000000000000E-002    -2.0380703062983230E-006
   1.9999999999999990E-002    -2.1143430330994306E-006
   2.1100000000000008E-002    -2.1923581243754597E-006
   2.2199999999999998E-002    -2.2721030745742610E-006
   2.3300000000000015E-002    -2.3535626496595796E-006
   2.4400000000000005E-002    -2.4367186597373802E-006
   2.5499999999999995E-002    -2.5215504138031974E-006
   2.6600000000000013E-002    -2.6080354018631624E-006
   2.7700000000000002E-002    -2.6961479306919500E-006
   2.8799999999999992E-002    -2.7858584417117527E-006
   2.9900000000000010E-002    -2.8771346478606574E-006
   3.1000000000000000E-002    -2.9699408514716197E-006
   3.2099999999999990E-002    -3.0642399906355422E-006
   3.3200000000000007E-002    -3.1599920475855470E-006
   3.4299999999999997E-002    -3.2571549581916770E-006
   3.5400000000000015E-002    -3.3556830203451682E-006
   3.6500000000000005E-002    -3.4555280308268266E-006
   3.7599999999999995E-002    -3.5566386031860020E-006
   3.8700000000000012E-002    -3.6589606224879390E-006
   3.9800000000000002E-002    -3.7624374726874521E-006
   4.0899999999999992E-002    -3.8670095818815753E-006
   4.2000000000000010E-002    -3.9726146496832371E-006
   4.3099999999999999E-002    -4.0791892388369888E-006
   4.4200000000000017E-002    -4.1866665014822502E-006
   4.5300000000000007E-002    -4.2949786802637391E-006
   4.6399999999999997E-002    -4.4040548345947172E-006
   4.7500000000000014E-002    -4.5138226596463937E-006
   4.8600000000000004E-002    -4.6242089410952758E-006
   4.9699999999999994E-002    -4.7351381908811163E-006
   5.0800000000000012E-002    -4.8465349209436681E-006
   5.1900000000000002E-002    -4.9583209147385787E-006
   5.2999999999999992E-002    -5.0704156819847412E-006
   5.4099999999999981E-002    -5.1827369134116452E-006
   5.5200000000000027E-002    -5.2952022997487802E-006
   5.6300000000000017E-002    -5.4077277127362322E-006
   5.7400000000000007E-002    -5.5202294788614381E-006
   5.8499999999999996E-002    -5.6326230151171330E-006
   5.9599999999999986E-002    -5.7448228290013503E-006
   6.0700000000000032E-002    -5.8567425185174216E-006
   6.1800000000000022E-002    -5.9682965911633801E-006
   6.2900000000000011E-002    -6.0794000091846101E-006
   6.4000000000000001E-002    -6.1899686443211976E-006
   6.5099999999999991E-002    -6.2999183683132287E-006
   6.6199999999999981E-002    -6.4091650529007893E-006
   6.7300000000000026E-002    -6.5176241150766145E-006
   6.8400000000000016E-002    -6.6252127908228431E-006
   6.9500000000000006E-002    -6.7318487708689645E-006
   7.0599999999999996E-002    -6.8374529291759245E-006
   7.1699999999999986E-002    -6.9419465944520198E-006
   7.2800000000000031E-002    -7.0452524596475996E-006
   7.3900000000000021E-002    -7.1472941272077151E-006
   7.5000000000000011E-002    -7.2479979280615225E-006
   7.6100000000000001E-002    -7.3472915573802311E-006
   7.7199999999999991E-002    -7.4451054388191551E-006
   7.8299999999999981E-002    -7.5413722697703633E-006
   7.9400000000000026E-002    -7.6360274761100300E-006
   8.0500000000000016E-002    -7.7290078479563817E-006
   8.1600000000000006E-002    -7.8202538134064525E-006
   8.2699999999999996E-002    -7.9097080742940307E-006
   8.3799999999999986E-002    -7.9973142419476062E-006
   8.4900000000000031E-002    -8.0830213846638799E-006
   8.6000000000000021E-002    -8.1667785707395524E-006
   8.7100000000000011E-002    -8.2485385064501315E-006
   8.8200000000000001E-002    -8.3282593550393358E-006
   8.9299999999999990E-002    -8.4059001892455854E-006
   9.0399999999999980E-002    -8.4814255387755111E-006
   9.1500000000000026E-002    -8.5548026618198492E-006
   9.2600000000000016E-002    -8.6260015450534411E-006
   9.3700000000000006E-002    -8.6949976321193390E-006
   9.4799999999999995E-002    -8.7617672761552967E-006
   9.5899999999999985E-002    -8.8262922872672789E-006
   9.7000000000000031E-002    -8.8885562945506535E-006
   9.8100000000000021E-002    -8.9485447460901923E-006
   9.9200000000000010E-002    -9.0062467279494740E-006
  0.10030000000000000         -9.0616522356867790E-006
  0.10139999999999999         -9.1147594503127038E-006
  0.10249999999999998         -9.1655674623325467E-006
  0.10360000000000003         -9.2140808192198165E-006
  0.10470000000000002         -9.2603058874374256E-006
  0.10580000000000001         -9.3042517619323917E-006
  0.10690000000000000         -9.3459293566411361E-006
  0.10799999999999998         -9.3853550424682908E-006
  0.10910000000000003         -9.4225479188025929E-006
  0.11020000000000002         -9.4575289040221833E-006
  0.11130000000000001         -9.4903216449893080E-006
  0.11240000000000000         -9.5209497885662131E-006
  0.11349999999999999         -9.5494406195939519E-006
  0.11460000000000004         -9.5758241513976827E-006
  0.11570000000000003         -9.6001349447760731E-006
  0.11680000000000001         -9.6224093795171939E-006
  0.11790000000000000         -9.6426847449038178E-006
  0.11899999999999999         -9.6610010587028228E-006
  0.12009999999999998         -9.6773983386810869E-006
  0.12120000000000003         -9.6919184215948917E-006
  0.12230000000000002         -9.7046067821793258E-006
  0.12340000000000001         -9.7155088951694779E-006
  0.12450000000000000         -9.7246693258057348E-006
  0.12559999999999999         -9.7321371868019924E-006
  0.12670000000000003         -9.7379597718827426E-006
  0.12780000000000002         -9.7421871032565832E-006
  0.12890000000000001         -9.7448682936374098E-006
  0.13000000000000000         -9.7460560937179253E-006
  0.13109999999999999         -9.7458023446961306E-006
  0.13219999999999998         -9.7441607067594305E-006
  0.13330000000000003         -9.7411857495899312E-006
  0.13440000000000002         -9.7369302238803357E-006
  0.13550000000000001         -9.7314477898180485E-006
  0.13660000000000000         -9.7247902886010706E-006
  0.13769999999999999         -9.7170104709221050E-006
  0.13880000000000003         -9.7081601779791526E-006
  0.13990000000000002         -9.6982930699596182E-006
  0.14100000000000001         -9.6874600785668008E-006
  0.14210000000000000         -9.6757130449987017E-006
  0.14319999999999999         -9.6631019914639182E-006
  0.14429999999999998         -9.6496751211816445E-006
  0.14540000000000003         -9.6354833658551797E-006
  0.14650000000000002         -9.6205767476931214E-006
  0.14760000000000001         -9.6050061983987689E-006
  0.14870000000000000         -9.5888190116966143E-006
  0.14979999999999999         -9.5720606623217463E-006
  0.15090000000000003         -9.5547748060198501E-006
  0.15200000000000002         -9.5370050985366106E-006
  0.15310000000000001         -9.5187933766283095E-006
  0.15420000000000000         -9.5001823865459301E-006
  0.15529999999999999         -9.4812112365616485E-006
  0.15639999999999998         -9.4619163064635359E-006
  0.15750000000000003         -9.4423367045237683E-006
  0.15860000000000002         -9.4225069915410131E-006
  0.15970000000000001         -9.4024653662927449E-006
  0.16080000000000000         -9.3822472990723327E-006
  0.16189999999999999         -9.3618882601731457E-006
  0.16300000000000003         -9.3414200819097459E-006
  0.16410000000000002         -9.3208718681125902E-006
  0.16520000000000001         -9.3002718131174333E-006
  0.16630000000000000         -9.2796462922706269E-006
  0.16739999999999999         -9.2590207714238204E-006
  0.16850000000000004         -9.2384161689551547E-006
  0.16960000000000003         -9.2178570412215777E-006
  0.17070000000000002         -9.1973652160959318E-006
  0.17180000000000001         -9.1769625214510597E-006
  0.17290000000000000         -9.1566698756651022E-006
  0.17399999999999999         -9.1365063781267963E-006
  0.17510000000000003         -9.1164911282248795E-006
  0.17620000000000002         -9.0966395873692818E-006
  0.17730000000000001         -9.0769663074752316E-006
  0.17840000000000000         -9.0574840214685537E-006
  0.17949999999999999         -9.0382054622750729E-006
  0.18060000000000004         -9.0191415438312106E-006
  0.18170000000000003         -9.0003013610839844E-006
  0.18280000000000002         -8.9816940089804120E-006
  0.18390000000000001         -8.9633276729728095E-006
  0.18500000000000000         -8.9452105385134928E-006
  0.18609999999999999         -8.9273517005494796E-006
  0.18720000000000003         -8.9097584350383841E-006
  0.18830000000000002         -8.8924352894537151E-006
  0.18940000000000001         -8.8753868112689815E-006
  0.19050000000000000         -8.8586184574523941E-006
  0.19159999999999999         -8.8421320469933562E-006
  0.19270000000000004         -8.8259312178706750E-006
  0.19380000000000003         -8.8100177890737541E-006
  0.19490000000000002         -8.7943917606025934E-006
  0.19600000000000001         -8.7790513134677894E-006
  0.19710000000000000         -8.7639964476693422E-006
  0.19819999999999999         -8.7492253442178480E-006
  0.19930000000000003         -8.7347380031133071E-006
  0.20040000000000002         -8.7205326053663157E-006
  0.20150000000000001         -8.7066091509768739E-006
  0.20260000000000000         -8.6929667304502800E-006
  0.20369999999999999         -8.6796044342918321E-006
  0.20480000000000004         -8.6665204435121268E-006
  0.20590000000000003         -8.6537129391217604E-006
  0.20700000000000002         -8.6411764641525224E-006
  0.20810000000000001         -8.6289082901203074E-006
  0.20920000000000000         -8.6169020505622029E-006
  0.21029999999999999         -8.6051550169941038E-006
  0.21140000000000003         -8.5936617324477993E-006
  0.21250000000000002         -8.5824176494497806E-006
  0.21360000000000001         -8.5714182205265388E-006
  0.21470000000000000         -8.5606588982045650E-006
  0.21579999999999999         -8.5501360445050523E-006
  0.21690000000000004         -8.5398451119544916E-006
  0.21800000000000003         -8.5297824625740759E-006
  0.21910000000000002         -8.5199435488902964E-006
  0.22020000000000001         -8.5103256424190477E-006
  0.22130000000000000         -8.5009214672027156E-006
  0.22239999999999999         -8.4917273852624930E-006
  0.22350000000000003         -8.4827370301354676E-006
  0.22460000000000002         -8.4739476733375341E-006
  0.22570000000000001         -8.4653520389110781E-006
  0.22680000000000000         -8.4569464888772927E-006
  0.22789999999999999         -8.4487246567732655E-006
  0.22900000000000004         -8.4406838141148910E-006
  0.23010000000000003         -8.4328194134286605E-006
  0.23120000000000002         -8.4251278167357668E-006
  0.23230000000000001         -8.4176053860574029E-006
  0.23340000000000000         -8.4102484834147617E-006
  0.23450000000000004         -8.4030516518396325E-006
  0.23560000000000003         -8.3960112533532083E-006
  0.23670000000000002         -8.3891200119978748E-006
  0.23780000000000001         -8.3823742897948250E-006
  0.23890000000000000         -8.3757686297758482E-006
  0.23999999999999999         -8.3692984844674356E-006
  0.24110000000000004         -8.3629611253854819E-006
  0.24220000000000003         -8.3567547335405834E-006
  0.24330000000000002         -8.3506756709539331E-006
  0.24440000000000001         -8.3447212091414258E-006
  0.24550000000000000         -8.3388868006295525E-006
  0.24660000000000004         -8.3331697169342078E-006
  0.24770000000000003         -8.3275672295712866E-006
  0.24880000000000002         -8.3220757005619816E-006
  0.24990000000000001         -8.3166905824327841E-006
  0.25100000000000000         -8.3114073277101852E-006
  0.25209999999999999         -8.3062232079100795E-006
  0.25320000000000004         -8.3011354945483617E-006
  0.25430000000000003         -8.2961414591409266E-006
  0.25540000000000002         -8.2912401921930723E-006
  0.25650000000000001         -8.2864298747153953E-006
  0.25760000000000000         -8.2817059592343867E-006
  0.25870000000000004         -8.2770638982765377E-006
  0.25980000000000003         -8.2725018728524446E-006
  0.26090000000000002         -8.2680180639727041E-006
  0.26200000000000001         -8.2636097431532107E-006
  0.26310000000000000         -8.2592760008992627E-006
  0.26419999999999999         -8.2550150182214566E-006
  0.26530000000000004         -8.2508222476462834E-006
  0.26640000000000003         -8.2466940511949360E-006
  0.26750000000000002         -8.2426267908886075E-006
  0.26860000000000001         -8.2386195572325960E-006
  0.26970000000000000         -8.2346714407321997E-006
  0.27080000000000004         -8.2307815318927169E-006
  0.27190000000000003         -8.2269452832406387E-006
  0.27300000000000002         -8.2231626947759651E-006
  0.27410000000000001         -8.2194310380145907E-006
  0.27520000000000000         -8.2157494034618139E-006
  0.27629999999999999         -8.2121150626335293E-006
  0.27740000000000004         -8.2085271060350351E-006
  0.27850000000000003         -8.2049828051822260E-006
  0.27960000000000002         -8.2014785220962949E-006
  0.28070000000000001         -8.1980106187984347E-006
  0.28179999999999999         -8.1945772762992419E-006
  0.28290000000000004         -8.1911748566199094E-006
  0.28400000000000003         -8.1878042692551389E-006
  0.28510000000000002         -8.1844618762261234E-006
  0.28620000000000001         -8.1811467680381611E-006
  0.28730000000000000         -8.1778580351965502E-006
  0.28840000000000005         -8.1745929492171854E-006
  0.28950000000000004         -8.1713506006053649E-006
  0.29060000000000002         -8.1681282608769834E-006
  0.29170000000000001         -8.1649232015479356E-006
  0.29280000000000000         -8.1617345131235197E-006
  0.29389999999999999         -8.1585585576249287E-006
  0.29500000000000004         -8.1553935160627589E-006
  0.29610000000000003         -8.1522357504582033E-006
  0.29720000000000002         -8.1490816228324547E-006
  0.29830000000000001         -8.1459302236908115E-006
  0.29940000000000000         -8.1427797340438701E-006
  0.30050000000000004         -8.1396292443969287E-006
  0.30160000000000003         -8.1364760262658820E-006
  0.30270000000000002         -8.1333173511666246E-006
  0.30380000000000001         -8.1301495811203495E-006
  0.30490000000000000         -8.1269699876429513E-006
  0.30599999999999999         -8.1237758422503248E-006
  0.30709999999999998         -8.1205653259530663E-006
  0.30819999999999997         -8.1173366197617725E-006
  0.30930000000000007         -8.1140860856976360E-006
  0.31040000000000006         -8.1108100857818499E-006
  0.31150000000000005         -8.1075058915303089E-006
  0.31260000000000004         -8.1041707744589075E-006
  0.31370000000000003         -8.1008029155782424E-006
  0.31480000000000002         -8.0973977674148045E-006
  0.31590000000000001         -8.0939544204738922E-006
  0.31700000000000000         -8.0904701462714002E-006
  0.31809999999999999         -8.0869413068285212E-006
  0.31919999999999998         -8.0833651736611500E-006
  0.32029999999999997         -8.0797399277798831E-006
  0.32140000000000007         -8.0760619312059134E-006
  0.32250000000000006         -8.0723293649498373E-006
  0.32360000000000005         -8.0685358625487424E-006
  0.32470000000000004         -8.0646786955185235E-006
  0.32580000000000003         -8.0607524068909697E-006
  0.32690000000000002         -8.0567533586872742E-006
  0.32800000000000001         -8.0526806414127350E-006
  0.32910000000000000         -8.0485306170885451E-006
  0.33019999999999999         -8.0443023762200028E-006
  0.33129999999999998         -8.0399913713335991E-006
  0.33239999999999997         -8.0355948739452288E-006
  0.33350000000000007         -8.0311092460760847E-006
  0.33460000000000006         -8.0265308497473598E-006
  0.33570000000000005         -8.0218560469802469E-006
  0.33680000000000004         -8.0170811997959390E-006
  0.33790000000000003         -8.0122026702156290E-006
  0.33900000000000002         -8.0072159107658081E-006
  0.34010000000000001         -8.0021181929623708E-006
  0.34120000000000000         -7.9969058788265102E-006
  0.34229999999999999         -7.9915780588635243E-006
  0.34339999999999998         -7.9861310950946063E-006
  0.34449999999999997         -7.9805622590356506E-006
  0.34560000000000007         -7.9748697316972539E-006
  0.34670000000000006         -7.9690516940900125E-006
  0.34780000000000005         -7.9631026892457157E-006
  0.34890000000000004         -7.9570190791855566E-006
