 -0.20000000000000001          0.0000000000000000
 -0.19890000000000002          0.0000000000000000
 -0.19780000000000000          0.0000000000000000
 -0.19670000000000001          1.0484550104191206E-014
 -0.19560000000000002         -6.9815240557030006E-014
 -0.19450000000000001         -6.0395351914044326E-013
 -0.19340000000000002         -1.5492018475352087E-012
 -0.19230000000000000         -1.0735779669771017E-012
 -0.19120000000000001          3.6040660473385389E-012
 -0.19010000000000002          1.0800008456990362E-011
 -0.18900000000000000          9.7878120539074409E-012
 -0.18790000000000001         -1.1293530347011860E-011
 -0.18680000000000002         -4.3985537434565458E-011
 -0.18570000000000000         -4.8205588826233381E-011
 -0.18460000000000001          1.7988832645698949E-011
 -0.18350000000000000          1.3527366726773238E-010
 -0.18240000000000001          1.9342502599606348E-010
 -0.18130000000000002          6.5400851401165028E-011
 -0.18020000000000000         -2.4076873827993950E-010
 -0.17910000000000001         -5.0071918833438644E-010
 -0.17800000000000002         -4.0838227244321956E-010
 -0.17690000000000000          1.2072705335430811E-010
 -0.17580000000000001          7.5377515340591117E-010
 -0.17470000000000002          9.2495944237214189E-010
 -0.17360000000000000          3.4278682670141336E-010
 -0.17250000000000001         -6.2544702750244596E-010
 -0.17140000000000000         -1.1507587105441530E-009
 -0.17030000000000001         -6.7834082795314998E-010
 -0.16920000000000002          4.4307113533648135E-010
 -0.16810000000000000          1.1371994457221035E-009
 -0.16700000000000001          5.8062366026234713E-010
 -0.16589999999999999         -8.7833179618357349E-010
 -0.16480000000000000         -1.8471363327776658E-009
 -0.16370000000000001         -1.1316760861745934E-009
 -0.16260000000000002          1.0031582231562197E-009
 -0.16150000000000000          2.8579394406591518E-009
 -0.16040000000000001          2.7707460770187708E-009
 -0.15930000000000000          7.1529565603967171E-010
 -0.15820000000000001         -1.5925931684535044E-009
 -0.15710000000000002         -2.3256609971156195E-009
 -0.15600000000000000         -1.3625904848879600E-009
 -0.15490000000000001         -3.8849898298387586E-010
 -0.15379999999999999         -1.0174567854903671E-009
 -0.15270000000000000         -2.7869286878257071E-009
 -0.15160000000000001         -3.2364149138430776E-009
 -0.15050000000000002         -2.9968855175255271E-010
 -0.14940000000000001          5.2311661669079967E-009
 -0.14830000000000002          9.7819290445499973E-009
 -0.14720000000000000          9.8730685849091060E-009
 -0.14610000000000001          5.1986943638837602E-009
 -0.14500000000000002         -1.0988611132134452E-009
 -0.14390000000000000         -5.3051842918705461E-009
 -0.14280000000000001         -6.3526934823698866E-009
 -0.14169999999999999         -6.1937952544610653E-009
 -0.14060000000000000         -7.0616961167502268E-009
 -0.13950000000000001         -8.6238616248124345E-009
 -0.13840000000000002         -8.1752267178103466E-009
 -0.13730000000000001         -3.7489451543137875E-009
 -0.13619999999999999          3.2445552911042341E-009
 -0.13510000000000000          8.8994847047274561E-009
 -0.13400000000000001          1.0482350099039195E-008
 -0.13290000000000002          8.9366736233387201E-009
 -0.13180000000000000          7.3152981450164134E-009
 -0.13070000000000001          6.7109153789601805E-009
 -0.12959999999999999          4.3780539193960522E-009
 -0.12850000000000000         -3.2470790500838120E-009
 -0.12740000000000001         -1.5364248540095105E-008
 -0.12630000000000002         -2.5300902706248962E-008
 -0.12520000000000001         -2.5395969771579985E-008
 -0.12410000000000000         -1.4281495985812853E-008
 -0.12300000000000001          7.5677769606485867E-010
 -0.12190000000000001          9.4863716881832261E-009
 -0.12080000000000000          7.5984187830613337E-009
 -0.11970000000000000          1.3817247346281647E-010
 -0.11860000000000001         -4.0914405197156611E-009
 -0.11750000000000001         -1.6091558086017699E-009
 -0.11640000000000000          2.5676687442910406E-009
 -0.11530000000000000          1.1167912150611414E-009
 -0.11420000000000001         -6.5333845000736801E-009
 -0.11310000000000001         -1.2323049247697782E-008
 -0.11200000000000000         -7.6636146317810017E-009
 -0.11090000000000001          6.5779208746619133E-009
 -0.10980000000000001          1.9235361747860225E-008
 -0.10870000000000000          1.9179463350837977E-008
 -0.10760000000000000          6.7650143265041152E-009
 -0.10650000000000001         -5.9218723258425143E-009
 -0.10540000000000001         -7.3187051974343831E-009
 -0.10430000000000000          1.0399221483936572E-009
 -0.10320000000000000          5.3097108931865478E-009
 -0.10210000000000001         -6.0860965156450675E-009
 -0.10100000000000001         -2.8646814698163325E-008
  -9.9900000000000003E-002    -4.3949828665290624E-008
  -9.8799999999999999E-002    -3.7234208605241292E-008
  -9.7700000000000009E-002    -1.3219022321209195E-008
  -9.6600000000000005E-002     6.8007168785300109E-009
  -9.5500000000000002E-002     5.1784661003750898E-009
  -9.4400000000000012E-002    -1.4358882971521325E-008
  -9.3300000000000008E-002    -3.0176490639632902E-008
  -9.2200000000000004E-002    -2.5065343578489774E-008
  -9.1100000000000000E-002    -5.0232129567007178E-009
  -9.0000000000000011E-002     5.7276219322943689E-009
  -8.8900000000000007E-002    -1.0113439863346230E-008
  -8.7800000000000003E-002    -4.2942293276837518E-008
  -8.6699999999999999E-002    -6.3226707425201312E-008
  -8.5600000000000009E-002    -5.0370520199294333E-008
  -8.4500000000000006E-002    -1.4907483247839082E-008
  -8.3400000000000002E-002     9.6585814901573031E-009
  -8.2299999999999998E-002    -9.7292163214746097E-010
  -8.1200000000000008E-002    -3.7380452511115436E-008
  -8.0100000000000005E-002    -6.5092635281871480E-008
  -7.9000000000000001E-002    -5.9004943153695422E-008
  -7.7899999999999997E-002    -2.9165068582415188E-008
  -7.6800000000000007E-002    -1.1014150480548324E-008
  -7.5700000000000003E-002    -2.8924862505164128E-008
  -7.4600000000000000E-002    -6.9987031281470991E-008
  -7.3500000000000010E-002    -9.5819196133106743E-008
  -7.2399999999999992E-002    -8.1646554406233918E-008
  -7.1300000000000002E-002    -4.2919314324763036E-008
  -7.0200000000000012E-002    -2.1042440678797902E-008
  -6.9099999999999995E-002    -4.1295773911542710E-008
  -6.8000000000000005E-002    -8.5676724381755776E-008
  -6.6900000000000015E-002    -1.0970396857601372E-007
  -6.5799999999999997E-002    -8.7618879263118288E-008
  -6.4700000000000008E-002    -4.0154208846843176E-008
  -6.3599999999999990E-002    -1.5257096919185642E-008
  -6.2500000000000000E-002    -3.9841108190330488E-008
  -6.1400000000000010E-002    -9.1402355906211596E-008
  -6.0299999999999992E-002    -1.1952617740007554E-007
  -5.9200000000000003E-002    -9.6682569505901483E-008
  -5.8100000000000013E-002    -4.6719502933001422E-008
  -5.6999999999999995E-002    -2.0991057780861411E-008
  -5.5900000000000005E-002    -4.5419746186325938E-008
  -5.4800000000000015E-002    -9.2607088220120204E-008
  -5.3699999999999998E-002    -1.0870849820321382E-007
  -5.2600000000000008E-002    -6.8782426865254820E-008
  -5.1499999999999990E-002    -3.9149927744119850E-009
  -5.0400000000000000E-002     2.8999783907579513E-008
  -4.9300000000000010E-002     5.3409894285039172E-009
  -4.8199999999999993E-002    -4.0577987192591536E-008
  -4.7100000000000003E-002    -4.8790166573553506E-008
  -4.6000000000000013E-002     5.7077782500414287E-009
  -4.4899999999999995E-002     8.6684991629226715E-008
  -4.3800000000000006E-002     1.3265690768093918E-007
  -4.2699999999999988E-002     1.1964228008309874E-007
  -4.1599999999999998E-002     8.6918056751983386E-008
  -4.0500000000000008E-002     9.8653607949472644E-008
  -3.9399999999999991E-002     1.7949508901438094E-007
  -3.8300000000000001E-002     2.8938941909473215E-007
  -3.7200000000000011E-002     3.6377267065290653E-007
  -3.6099999999999993E-002     3.7882614378759172E-007
  -3.5000000000000003E-002     3.7559507859441510E-007
  -3.3900000000000013E-002     4.1833939690150146E-007
  -3.2799999999999996E-002     5.2939668648832594E-007
  -3.1700000000000006E-002     6.6695719169729273E-007
  -3.0599999999999988E-002     7.6849897823194624E-007
  -2.9499999999999998E-002     8.1561603337831912E-007
  -2.8400000000000009E-002     8.5408794348040828E-007
  -2.7299999999999991E-002     9.4863941058065393E-007
  -2.6200000000000001E-002     1.1184677077835659E-006
  -2.5100000000000011E-002     1.3189179526307271E-006
  -2.3999999999999994E-002     1.4873720601826790E-006
  -2.2900000000000004E-002     1.6062696204244276E-006
  -2.1800000000000014E-002     1.7194655583807616E-006
  -2.0699999999999996E-002     1.8864766389015131E-006
  -1.9600000000000006E-002     2.1225280306680361E-006
  -1.8499999999999989E-002     2.3855334347899770E-006
  -1.7399999999999999E-002     2.6217810500384076E-006
  -1.6300000000000009E-002     2.8220888452779036E-006
  -1.5199999999999991E-002     3.0307942324725445E-006
  -1.4100000000000001E-002     3.2998480037349509E-006
  -1.3000000000000012E-002     3.6367871416587150E-006
  -1.1899999999999994E-002     4.0001364141062368E-006
  -1.0800000000000004E-002     4.3452610043459572E-006
  -9.6999999999999864E-003     4.6713003030163236E-006
  -8.5999999999999965E-003     5.0204939725517761E-006
  -7.5000000000000067E-003     5.4323545555234887E-006
  -6.3999999999999890E-003     5.9022913774242625E-006
  -5.2999999999999992E-003     6.3882521317282226E-006
  -4.2000000000000093E-003     6.8570975599868689E-006
  -3.0999999999999917E-003     7.3207711466238834E-006
  -2.0000000000000018E-003     7.8240209404611960E-006
  -9.0000000000001190E-004     8.3975601228303276E-006
   2.0000000000000573E-004     9.0271869339630939E-006
   1.2999999999999956E-003     9.6716603366076015E-006
   2.4000000000000132E-003     1.0309152457921300E-005
   3.5000000000000031E-003     1.0961780390061904E-005
   4.5999999999999930E-003     1.1671650099742692E-005
   5.7000000000000106E-003     1.2454247553250752E-005
   6.8000000000000005E-003     1.3280011444294360E-005
   7.8999999999999904E-003     1.4104911315371282E-005
   9.0000000000000080E-003     1.4918151464371476E-005
   1.0099999999999998E-002     1.5755686035845429E-005
   1.1199999999999988E-002     1.6663962014717981E-005
   1.2300000000000005E-002     1.7651649613981135E-005
   1.3399999999999995E-002     1.8680842913454399E-005
   1.4500000000000013E-002     1.9707711544469930E-005
   1.5600000000000003E-002     2.0729959942400455E-005
   1.6699999999999993E-002     2.1790476239402778E-005
   1.7800000000000010E-002     2.2932261344976723E-005
   1.8900000000000000E-002     2.4151704565156251E-005
   1.9999999999999990E-002     2.5400006052223034E-005
   2.1100000000000008E-002     2.6632278604665771E-005
   2.2199999999999998E-002     2.7853240680997260E-005
   2.3300000000000015E-002     2.9111759431543760E-005
   2.4400000000000005E-002     3.0449537007370964E-005
   2.5499999999999995E-002     3.1857511203270406E-005
   2.6600000000000013E-002     3.3285603421973065E-005
   2.7700000000000002E-002     3.4695240174187347E-005
   2.8799999999999992E-002     3.6099219869356602E-005
   2.9900000000000010E-002     3.7547331885434687E-005
   3.1000000000000000E-002     3.9072569052223116E-005
   3.2099999999999990E-002     4.0654573240317404E-005
   3.3200000000000007E-002     4.2238978494424373E-005
   3.4299999999999997E-002     4.3791726056952029E-005
   3.5400000000000015E-002     4.5331409637583420E-005
   3.6500000000000005E-002     4.6905803174013272E-005
   3.7599999999999995E-002     4.8538389819441363E-005
   3.8700000000000012E-002     5.0201942940475419E-005
   3.9800000000000002E-002     5.1846269343513995E-005
   4.0899999999999992E-002     5.3450869017979130E-005
   4.2000000000000010E-002     5.5045751651050523E-005
   4.3099999999999999E-002     5.6677563406992704E-005
   4.4200000000000017E-002     5.8357014495413750E-005
   4.5300000000000007E-002     6.0044054407626390E-005
   4.6399999999999997E-002     6.1686419940087944E-005
   4.7500000000000014E-002     6.3270745158661157E-005
   4.8600000000000004E-002     6.4832638599909842E-005
   4.9699999999999994E-002     6.6414264438208193E-005
   5.0800000000000012E-002     6.8014815042261034E-005
   5.1900000000000002E-002     6.9587258622050285E-005
   5.2999999999999992E-002     7.1085320087149739E-005
   5.4099999999999981E-002     7.2511043981648982E-005
   5.5200000000000027E-002     7.3911978688556701E-005
   5.6300000000000017E-002     7.5329509854782373E-005
   5.7400000000000007E-002     7.6752403401769698E-005
   5.8499999999999996E-002     7.8123834100551903E-005
   5.9599999999999986E-002     7.9396530054509640E-005
   6.0700000000000032E-002     8.0578145571053028E-005
   6.1800000000000022E-002     8.1718870205804706E-005
   6.2900000000000011E-002     8.2855105574708432E-005
   6.4000000000000001E-002     8.3967148384544998E-005
   6.5099999999999991E-002     8.4995983343105763E-005
   6.6199999999999981E-002     8.5901854617986828E-005
   6.7300000000000026E-002     8.6703526903875172E-005
   6.8400000000000016E-002     8.7456959590781480E-005
   6.9500000000000006E-002     8.8196342403534800E-005
   7.0599999999999996E-002     8.8897802925202996E-005
   7.1699999999999986E-002     8.9502878836356103E-005
   7.2800000000000031E-002     8.9977154857479036E-005
   7.3900000000000021E-002     9.0342655312269926E-005
   7.5000000000000011E-002     9.0650450147222728E-005
   7.6100000000000001E-002     9.0924084361176938E-005
   7.7199999999999991E-002     9.1133544628974050E-005
   7.8299999999999981E-002     9.1224879724904895E-005
   7.9400000000000026E-002     9.1175541456323117E-005
   8.0500000000000016E-002     9.1016510850749910E-005
   8.1600000000000006E-002     9.0799563622567803E-005
   8.2699999999999996E-002     9.0544614067766815E-005
   8.3799999999999986E-002     9.0221328719053417E-005
   8.4900000000000031E-002     8.9783410658128560E-005
   8.6000000000000021E-002     8.9217210188508034E-005
   8.7100000000000011E-002     8.8553650130052119E-005
   8.8200000000000001E-002     8.7833366706036031E-005
   8.9299999999999990E-002     8.7063621322158724E-005
   9.0399999999999980E-002     8.6211388406809419E-005
   9.1500000000000026E-002     8.5240208136383444E-005
   9.2600000000000016E-002     8.4150866314303130E-005
   9.3700000000000006E-002     8.2981590821873397E-005
   9.4799999999999995E-002     8.1769307143986225E-005
   9.5899999999999985E-002     8.0513484135735780E-005
   9.7000000000000031E-002     7.9180412285495549E-005
   9.8100000000000021E-002     7.7742864959873259E-005
   9.9200000000000010E-002     7.6212199928704649E-005
  0.10030000000000000          7.4628602305892855E-005
  0.10139999999999999          7.3020150011871010E-005
  0.10249999999999998          7.1375798142980784E-005
  0.10360000000000003          6.9660127337556332E-005
  0.10470000000000002          6.7854198277927935E-005
  0.10580000000000001          6.5978201746474952E-005
  0.10690000000000000          6.4071296947076917E-005
  0.10799999999999998          6.2153667386155576E-005
  0.10910000000000003          6.0210415540495887E-005
  0.11020000000000002          5.8212815929437056E-005
  0.11130000000000001          5.6154694902943447E-005
  0.11240000000000000          5.4063912102719769E-005
  0.11349999999999999          5.1976217946503311E-005
  0.11460000000000004          4.9901063903234899E-005
  0.11570000000000003          4.7815625293878838E-005
  0.11680000000000001          4.5692941057495773E-005
  0.11790000000000000          4.3532585550565273E-005
  0.11899999999999999          4.1363207856193185E-005
  0.12009999999999998          3.9214741264004260E-005
  0.12120000000000003          3.7090576370246708E-005
  0.12230000000000002          3.4969831176567823E-005
  0.12340000000000001          3.2834985177032650E-005
  0.12450000000000000          3.0696326575707644E-005
  0.12559999999999999          2.8584865503944457E-005
  0.12670000000000003          2.6521718609728850E-005
  0.12780000000000002          2.4498760467395186E-005
  0.12890000000000001          2.2489964976557530E-005
  0.13000000000000000          2.0482653781073168E-005
  0.13109999999999999          1.8494005416869186E-005
  0.13219999999999998          1.6553507521166466E-005
  0.13330000000000003          1.4673082660010550E-005
  0.13440000000000002          1.2836447240260895E-005
  0.13550000000000001          1.1019737939932384E-005
  0.13660000000000000          9.2202499217819422E-006
  0.13769999999999999          7.4631770985433832E-006
  0.13880000000000003          5.7778815971687436E-006
  0.13990000000000002          4.1682455957925413E-006
  0.14100000000000001          2.6106235964107327E-006
  0.14210000000000000          1.0808846582222031E-006
  0.14319999999999999         -4.1868375433296023E-007
  0.14429999999999998         -1.8621242361405166E-006
  0.14540000000000003         -3.2292307423631428E-006
  0.14650000000000002         -4.5277092795004137E-006
  0.14760000000000001         -5.7837155509332661E-006
  0.14870000000000000         -7.0127171056810766E-006
  0.14979999999999999         -8.1999942267430015E-006
  0.15090000000000003         -9.3156204457045533E-006
  0.15200000000000002         -1.0346783710701857E-005
  0.15310000000000001         -1.1311274647596292E-005
  0.15420000000000000         -1.2238676390552428E-005
  0.15529999999999999         -1.3138296708348207E-005
  0.15639999999999998         -1.3989232684252784E-005
  0.15750000000000003         -1.4763683793717064E-005
  0.15860000000000002         -1.5459800124517642E-005
  0.15970000000000001         -1.6106478142319247E-005
  0.16080000000000000         -1.6733478332753293E-005
  0.16189999999999999         -1.7339254554826766E-005
  0.16300000000000003         -1.7891808965941891E-005
  0.16410000000000002         -1.8362990886089392E-005
  0.16520000000000001         -1.8759690647129901E-005
  0.16630000000000000         -1.9118750060442835E-005
  0.16739999999999999         -1.9469383914838545E-005
  0.16850000000000004         -1.9802053429884836E-005
  0.16960000000000003         -2.0078836314496584E-005
  0.17070000000000002         -2.0275894712540321E-005
  0.17180000000000001         -2.0411112927831709E-005
  0.17290000000000000         -2.0528803361230530E-005
  0.17399999999999999         -2.0655867047025822E-005
  0.17510000000000003         -2.0773837604792789E-005
  0.17620000000000002         -2.0838795535382815E-005
  0.17730000000000001         -2.0827517801080830E-005
  0.17840000000000000         -2.0762423446285538E-005
  0.17949999999999999         -2.0689722077804618E-005
  0.18060000000000004         -2.0633136955439113E-005
  0.18170000000000003         -2.0571393179125153E-005
  0.18280000000000002         -2.0462750399019569E-005
  0.18390000000000001         -2.0290250176913105E-005
  0.18500000000000000         -2.0080322428839281E-005
  0.18609999999999999         -1.9875924408552237E-005
  0.18720000000000003         -1.9693130525411107E-005
  0.18830000000000002         -1.9505643649608828E-005
  0.18940000000000001         -1.9274049918749370E-005
  0.19050000000000000         -1.8989665477420203E-005
  0.19159999999999999         -1.8683338566916063E-005
  0.19270000000000004         -1.8392540368949994E-005
  0.19380000000000003         -1.8123191694030538E-005
  0.19490000000000002         -1.7845075490185991E-005
  0.19600000000000001         -1.7526223018649034E-005
  0.19710000000000000         -1.7167783880722709E-005
  0.19819999999999999         -1.6802965546958148E-005
  0.19930000000000003         -1.6462130588479340E-005
  0.20040000000000002         -1.6141522792167962E-005
  0.20150000000000001         -1.5809251635801047E-005
  0.20260000000000000         -1.5441180948982947E-005
  0.20369999999999999         -1.5047217857500073E-005
  0.20480000000000004         -1.4660020497103687E-005
  0.20590000000000003         -1.4299368558567949E-005
  0.20700000000000002         -1.3950423635833431E-005
  0.20810000000000001         -1.3579889127868228E-005
  0.20920000000000000         -1.3173465958971065E-005
  0.21029999999999999         -1.2753490409522783E-005
  0.21140000000000003         -1.2356565093796235E-005
  0.21250000000000002         -1.1995158274658024E-005
  0.21360000000000001         -1.1643865036603529E-005
  0.21470000000000000         -1.1265878129051998E-005
  0.21579999999999999         -1.0852064406208228E-005
  0.21690000000000004         -1.0430449037812650E-005
  0.21800000000000003         -1.0036474122898653E-005
  0.21910000000000002         -9.6749117801664397E-006
  0.22020000000000001         -9.3147327788756229E-006
  0.22130000000000000         -8.9227123680757359E-006
  0.22239999999999999         -8.4994344433653168E-006
  0.22350000000000003         -8.0792542576091364E-006
  0.22460000000000002         -7.6945088949287310E-006
  0.22570000000000001         -7.3414530561421998E-006
  0.22680000000000000         -6.9841730692132842E-006
  0.22789999999999999         -6.5926919887715485E-006
  0.22900000000000004         -6.1741770878143143E-006
  0.23010000000000003         -5.7647353060019668E-006
  0.23120000000000002         -5.3903968364465982E-006
  0.23230000000000001         -5.0391035983921029E-006
  0.23340000000000000         -4.6734467105125077E-006
  0.23450000000000004         -4.2704077714006416E-006
  0.23560000000000003         -3.8467119338747580E-006
  0.23670000000000002         -3.4413258163112914E-006
  0.23780000000000001         -3.0742871786060277E-006
  0.23890000000000000         -2.7266837605566252E-006
  0.23999999999999999         -2.3601462544320384E-006
  0.24110000000000004         -1.9571173197618918E-006
  0.24220000000000003         -1.5396818753288244E-006
  0.24330000000000002         -1.1446310281826300E-006
  0.24440000000000001         -7.8303116879396839E-007
  0.24550000000000000         -4.2869220351349213E-007
  0.24660000000000004         -4.6376822382399041E-008
  0.24770000000000003          3.7077904835314257E-007
  0.24880000000000002          7.9328412994073005E-007
  0.24990000000000001          1.1856315040859045E-006
  0.25100000000000000          1.5441112282132963E-006
  0.25209999999999999          1.8999789972440340E-006
  0.25320000000000004          2.2851788799016504E-006
  0.25430000000000003          2.6993041046807775E-006
  0.25540000000000002          3.1108929761103354E-006
  0.25650000000000001          3.4917204629891785E-006
  0.25760000000000000          3.8477155612781644E-006
  0.25870000000000004          4.2127917367906775E-006
  0.25980000000000003          4.6125501285132486E-006
  0.26090000000000002          5.0363223635940813E-006
  0.26200000000000001          5.4474376156576909E-006
  0.26310000000000000          5.8210957831761334E-006
  0.26419999999999999          6.1706728047283832E-006
  0.26530000000000004          6.5340950641257223E-006
  0.26640000000000003          6.9330508267739788E-006
  0.26750000000000002          7.3494684329489246E-006
  0.26860000000000001          7.7447430157917552E-006
  0.26970000000000000          8.1013340604840778E-006
  0.27080000000000004          8.4409439295995981E-006
  0.27190000000000003          8.8018759925034828E-006
  0.27300000000000002          9.1987712949048728E-006
  0.27410000000000001          9.6064950412255712E-006
  0.27520000000000000          9.9863036666647531E-006
  0.27629999999999999          1.0325795301469043E-005
  0.27740000000000004          1.0650393960531801E-005
  0.27850000000000003          1.0996283890563063E-005
  0.27960000000000002          1.1372685548849404E-005
  0.28070000000000001          1.1751681995519903E-005
  0.28179999999999999          1.2097626495233271E-005
  0.28290000000000004          1.2403909749991726E-005
  0.28400000000000003          1.2699509170488454E-005
  0.28510000000000002          1.3018392564845271E-005
  0.28620000000000001          1.3364160622586496E-005
  0.28730000000000000          1.3706529898627196E-005
  0.28840000000000005          1.4012608517077751E-005
  0.28950000000000004          1.4279969946073834E-005
  0.29060000000000002          1.4537588867824525E-005
  0.29170000000000001          1.4815062058914918E-005
  0.29280000000000000          1.5112164874153677E-005
  0.29389999999999999          1.5399707990582101E-005
  0.29500000000000004          1.5649189663236029E-005
  0.29610000000000003          1.5860819985391572E-005
  0.29720000000000002          1.6062303984654136E-005
  0.29830000000000001          1.6280013369396329E-005
  0.29940000000000000          1.6512325601070188E-005
  0.30050000000000004          1.6731810319470242E-005
  0.30160000000000003          1.6914025763981044E-005
  0.30270000000000002          1.7061247490346432E-005
  0.30380000000000001          1.7198104615090415E-005
  0.30490000000000000          1.7344915249850601E-005
  0.30599999999999999          1.7496517102699727E-005
  0.30709999999999998          1.7629077774472535E-005
  0.30819999999999997          1.7724805729812942E-005
  0.30930000000000007          1.7788965124054812E-005
  0.31040000000000006          1.7842987290350720E-005
  0.31150000000000005          1.7901233150041662E-005
  0.31260000000000004          1.7957336240215227E-005
  0.31370000000000003          1.7992628272622824E-005
  0.31480000000000002          1.7994707377511077E-005
  0.31590000000000001          1.7968164684134535E-005
  0.31700000000000000          1.7928570741787553E-005
  0.31809999999999999          1.7885764464153908E-005
  0.31919999999999998          1.7834625396062620E-005
  0.32029999999999997          1.7761649360181764E-005
  0.32140000000000007          1.7658539945841767E-005
  0.32250000000000006          1.7528729586047120E-005
  0.32360000000000005          1.7381542420480400E-005
  0.32470000000000004          1.7223033864866011E-005
  0.32580000000000003          1.7051754184649326E-005
  0.32690000000000002          1.6861960830283351E-005
  0.32800000000000001          1.6649566532578319E-005
  0.32910000000000000          1.6414442143286578E-005
  0.33019999999999999          1.6158335711224936E-005
  0.33129999999999998          1.5882986190263182E-005
  0.33239999999999997          1.5590090697514825E-005
  0.33350000000000007          1.5281357264029793E-005
  0.33460000000000006          1.4956482118577696E-005
  0.33570000000000005          1.4610916878154967E-005
  0.33680000000000004          1.4239141819416545E-005
  0.33790000000000003          1.3841496183886193E-005
  0.33900000000000002          1.3426347322820220E-005
  0.34010000000000001          1.3003705134906340E-005
  0.34120000000000000          1.2574862012115773E-005
  0.34229999999999999          1.2128491107432637E-005
  0.34339999999999998          1.1650586202449631E-005
  0.34449999999999997          1.1139614798594266E-005
  0.34560000000000007          1.0610465324134566E-005
  0.34670000000000006          1.0080766514874995E-005
  0.34780000000000005          9.5538971436326392E-006
  0.34890000000000004          9.0148441813653335E-006
