 -0.20000000000000001          0.0000000000000000
 -0.19890000000000002          0.0000000000000000
 -0.19780000000000000          0.0000000000000000
 -0.19670000000000001          0.0000000000000000
 -0.19560000000000002          0.0000000000000000
 -0.19450000000000001          9.8787699015378155E-018
 -0.19340000000000002          5.8609829362892266E-017
 -0.19230000000000000          9.8668465893179343E-017
 -0.19120000000000001         -2.4980711562287480E-016
 -0.19010000000000002         -1.6843260744063836E-015
 -0.18900000000000000         -4.0601410478312127E-015
 -0.18790000000000001         -4.1925009572684121E-015
 -0.18680000000000002          4.5454197758393981E-015
 -0.18570000000000000          2.6542041676493685E-014
 -0.18460000000000001          5.2371125556890065E-014
 -0.18350000000000000          5.1678859081628143E-014
 -0.18240000000000001         -1.3027324377121120E-014
 -0.18130000000000002         -1.4661695794081735E-013
 -0.18020000000000000         -2.8019874289722388E-013
 -0.17910000000000001         -2.7821749895227591E-013
 -0.17800000000000002         -2.8173728676631462E-014
 -0.17690000000000000          4.2177063707891468E-013
 -0.17580000000000001          7.9465996500118197E-013
 -0.17470000000000002          7.1365130601889323E-013
 -0.17360000000000000          2.8325389925799691E-014
 -0.17250000000000001         -8.8097888359386797E-013
 -0.17140000000000000         -1.1709473451620830E-012
 -0.17030000000000001         -1.5845271871900526E-013
 -0.16920000000000002          1.8009739749872613E-012
 -0.16810000000000000          2.9585385790530457E-012
 -0.16700000000000001          1.0712628700768226E-012
 -0.16589999999999999         -4.5683166451106284E-012
 -0.16480000000000000         -1.1326267181088574E-011
 -0.16370000000000001         -1.3546355877300614E-011
 -0.16260000000000002         -5.8480937106770923E-012
 -0.16150000000000000          1.2110507909004798E-011
 -0.16040000000000001          3.2895096369055313E-011
 -0.15930000000000000          4.3634863083891195E-011
 -0.15820000000000001          3.3217623096597429E-011
 -0.15710000000000002          1.2765446522897203E-013
 -0.15600000000000000         -4.4621587674816472E-011
 -0.15490000000000001         -8.2004750212574822E-011
 -0.15379999999999999         -9.4155870600236446E-011
 -0.15270000000000000         -7.2175619647563397E-011
 -0.15160000000000001         -1.8408526439313209E-011
 -0.15050000000000002          5.5765139034262923E-011
 -0.14940000000000001          1.3227868800314166E-010
 -0.14830000000000002          1.8685211711223446E-010
 -0.14720000000000000          1.9127345540771392E-010
 -0.14610000000000001          1.2331743959314921E-010
 -0.14500000000000002         -1.6003854491650609E-011
 -0.14390000000000000         -1.8884112329423086E-010
 -0.14280000000000001         -3.2605695921007872E-010
 -0.14169999999999999         -3.5772765305529317E-010
 -0.14060000000000000         -2.5463636754704027E-010
 -0.13950000000000001         -5.2679895168287656E-011
 -0.13840000000000002          1.6159858173826944E-010
 -0.13730000000000001          3.0007737961133210E-010
 -0.13619999999999999          3.2521096926525877E-010
 -0.13510000000000000          2.6805793695846819E-010
 -0.13400000000000001          1.9807301632202139E-010
 -0.13290000000000002          1.6625816001705902E-010
 -0.13180000000000000          1.6384008039163703E-010
 -0.13070000000000001          1.2744146016263355E-010
 -0.12959999999999999         -1.2834786185286266E-011
 -0.12850000000000000         -2.7725352569346618E-010
 -0.12740000000000001         -6.1188748512467143E-010
 -0.12630000000000002         -9.1181101558033663E-010
 -0.12520000000000001         -1.0754842572068791E-009
 -0.12410000000000000         -1.0553709017812550E-009
 -0.12300000000000001         -8.7625096067964570E-010
 -0.12190000000000001         -6.1623051106354711E-010
 -0.12080000000000000         -3.6871095066010197E-010
 -0.11970000000000000         -2.1208983180814264E-010
 -0.11860000000000001         -2.0381142606941795E-010
 -0.11750000000000001         -3.9375147586894813E-010
 -0.11640000000000000         -8.3320067512105425E-010
 -0.11530000000000000         -1.5547423348750032E-009
 -0.11420000000000001         -2.5209059284493019E-009
 -0.11310000000000001         -3.5741181125815291E-009
 -0.11200000000000000         -4.4403400956127966E-009
 -0.11090000000000001         -4.8192738688612140E-009
 -0.10980000000000001         -4.5368175882741922E-009
 -0.10870000000000000         -3.6769269851077297E-009
 -0.10760000000000000         -2.5994923991135122E-009
 -0.10650000000000001         -1.8092434217465794E-009
 -0.10540000000000001         -1.7352871362065319E-009
 -0.10430000000000000         -2.5435307193789393E-009
 -0.10320000000000000         -4.0849661431252844E-009
 -0.10210000000000001         -5.9940852281670132E-009
 -0.10100000000000001         -7.8612734100147563E-009
  -9.9900000000000003E-002    -9.3774943366043590E-009
  -9.8799999999999999E-002    -1.0398029104408251E-008
  -9.7700000000000009E-002    -1.0941577421874764E-008
  -9.6600000000000005E-002    -1.1169081659545655E-008
  -9.5500000000000002E-002    -1.1359286844481222E-008
  -9.4400000000000012E-002    -1.1858849013890466E-008
  -9.3300000000000008E-002    -1.2985670316822993E-008
  -9.2200000000000004E-002    -1.4909678824892657E-008
  -9.1100000000000000E-002    -1.7577356459241994E-008
  -9.0000000000000011E-002    -2.0734848504844383E-008
  -8.8900000000000007E-002    -2.4041577617595285E-008
  -8.7800000000000003E-002    -2.7206381147948616E-008
  -8.6699999999999999E-002    -3.0073938006580892E-008
  -8.5600000000000009E-002    -3.2638382663208421E-008
  -8.4500000000000006E-002    -3.5011538557228282E-008
  -8.3400000000000002E-002    -3.7379734862952544E-008
  -8.2299999999999998E-002    -3.9954080932602883E-008
  -8.1200000000000008E-002    -4.2902975394554438E-008
  -8.0100000000000005E-002    -4.6280963061917838E-008
  -7.9000000000000001E-002    -5.0005880325443478E-008
  -7.7899999999999997E-002    -5.3929248622353281E-008
  -7.6800000000000007E-002    -5.7976862422038142E-008
  -7.5700000000000003E-002    -6.2263104894100715E-008
  -7.4600000000000000E-002    -6.7082027044307906E-008
  -7.3500000000000010E-002    -7.2768287395775313E-008
  -7.2399999999999992E-002    -7.9528994945122276E-008
  -7.1300000000000002E-002    -8.7373514645606179E-008
  -7.0200000000000012E-002    -9.6185182485442638E-008
  -6.9099999999999995E-002    -1.0586209242546898E-007
  -6.8000000000000005E-002    -1.1641074593171738E-007
  -6.6900000000000015E-002    -1.2793876180694592E-007
  -6.5799999999999997E-002    -1.4058871045108488E-007
  -6.4700000000000008E-002    -1.5448709689280905E-007
  -6.3599999999999990E-002    -1.6972919070212911E-007
  -6.2500000000000000E-002    -1.8635873288985863E-007
  -6.1400000000000010E-002    -2.0431374991858450E-007
  -6.0299999999999992E-002    -2.2338601013416480E-007
  -5.9200000000000003E-002    -2.4328332415280022E-007
  -5.8100000000000013E-002    -2.6381547968412787E-007
  -5.6999999999999995E-002    -2.8509140292953975E-007
  -5.5900000000000005E-002    -3.0755458624298811E-007
  -5.4800000000000015E-002    -3.3178676517309431E-007
  -5.3699999999999998E-002    -3.5820329458147409E-007
  -5.2600000000000008E-002    -3.8687144865434924E-007
  -5.1499999999999990E-002    -4.1758897850741294E-007
  -5.0400000000000000E-002    -4.5014164129497912E-007
  -4.9300000000000010E-002    -4.8451664724780416E-007
  -4.8199999999999993E-002    -5.2091735369686228E-007
  -4.7100000000000003E-002    -5.5963079148569144E-007
  -4.6000000000000013E-002    -6.0093026377217389E-007
  -4.4899999999999995E-002    -6.4512175868003777E-007
  -4.3800000000000006E-002    -6.9264541480152212E-007
  -4.2699999999999988E-002    -7.4404431416042350E-007
  -4.1599999999999998E-002    -7.9973375477493878E-007
  -4.0500000000000008E-002    -8.5973283603380487E-007
  -3.9399999999999991E-002    -9.2361869974411633E-007
  -3.8300000000000001E-002    -9.9080477866664847E-007
  -3.7200000000000011E-002    -1.0609633136482503E-006
  -3.6099999999999993E-002    -1.1342754078214120E-006
  -3.5000000000000003E-002    -1.2113346201658784E-006
  -3.3900000000000013E-002    -1.2928217074659264E-006
  -3.2799999999999996E-002    -1.3792308664051314E-006
  -3.1700000000000006E-002    -1.4708199387314467E-006
  -3.0599999999999988E-002    -1.5677162537031197E-006
  -2.9499999999999998E-002    -1.6699833622624376E-006
  -2.8400000000000009E-002    -1.7775627156879736E-006
  -2.7299999999999991E-002    -1.8902107967733279E-006
  -2.6200000000000001E-002    -2.0076065538887747E-006
  -2.5100000000000011E-002    -2.1296320937835959E-006
  -2.3999999999999994E-002    -2.2566157440451329E-006
  -2.2900000000000004E-002    -2.3893019260867859E-006
  -2.1800000000000014E-002    -2.5285360152338534E-006
  -2.0699999999999996E-002    -2.6749034987006019E-006
  -1.9600000000000006E-002    -2.8285926418902971E-006
  -1.8499999999999989E-002    -2.9895318220951760E-006
  -1.7399999999999999E-002    -3.1576037144987082E-006
  -1.6300000000000009E-002    -3.3327135042782352E-006
  -1.5199999999999991E-002    -3.5146942991559817E-006
  -1.4100000000000001E-002    -3.7032318687124843E-006
  -1.3000000000000012E-002    -3.8979774217296138E-006
  -1.1899999999999994E-002    -4.0987833926920068E-006
  -1.0800000000000004E-002    -4.3058248593297550E-006
  -9.6999999999999864E-003    -4.5194597078080061E-006
  -8.5999999999999965E-003    -4.7399375944223966E-006
  -7.5000000000000067E-003    -4.9672230488795584E-006
  -6.3999999999999890E-003    -5.2010818762937840E-006
  -5.2999999999999992E-003    -5.4412994359154542E-006
  -4.2000000000000093E-003    -5.6877602219174447E-006
  -3.0999999999999917E-003    -5.9402846090961561E-006
  -2.0000000000000018E-003    -6.1984146668692450E-006
  -9.0000000000001190E-004    -6.4614337134117134E-006
   2.0000000000000573E-004    -6.7286814555700750E-006
   1.2999999999999956E-003    -6.9998882281652550E-006
   2.4000000000000132E-003    -7.2751845436869570E-006
   3.5000000000000031E-003    -7.5547386586550081E-006
   4.5999999999999930E-003    -7.8383318395936337E-006
   5.7000000000000106E-003    -8.1252574091195552E-006
   6.8000000000000005E-003    -8.4146040535415963E-006
   7.8999999999999904E-003    -8.7056105257943730E-006
   9.0000000000000080E-003    -8.9977029347210649E-006
   1.0099999999999998E-002    -9.2901791504119083E-006
   1.1199999999999988E-002    -9.5819068519631909E-006
   1.2300000000000005E-002    -9.8714044725057229E-006
   1.3399999999999995E-002    -1.0157291399082221E-005
   1.4500000000000013E-002    -1.0438687240821364E-005
   1.5600000000000003E-002    -1.0715152711782193E-005
   1.6699999999999993E-002    -1.0986193956341650E-005
   1.7800000000000010E-002    -1.1250798706896661E-005
   1.8900000000000000E-002    -1.1507435374369438E-005
   1.9999999999999990E-002    -1.1754482329706722E-005
   2.1100000000000008E-002    -1.1990644452453188E-005
   2.2199999999999998E-002    -1.2214934031362710E-005
   2.3300000000000015E-002    -1.2426266948750773E-005
   2.4400000000000005E-002    -1.2623101611097875E-005
   2.5499999999999995E-002    -1.2803512618120364E-005
   2.6600000000000013E-002    -1.2965655514563038E-005
   2.7700000000000002E-002    -1.3108138773532188E-005
   2.8799999999999992E-002    -1.3229939213488322E-005
   2.9900000000000010E-002    -1.3329963621799907E-005
   3.1000000000000000E-002    -1.3406669495452736E-005
   3.2099999999999990E-002    -1.3458104149322098E-005
   3.3200000000000007E-002    -1.3482262147590594E-005
   3.4299999999999997E-002    -1.3477330867317581E-005
   3.5400000000000015E-002    -1.3441604096442537E-005
   3.6500000000000005E-002    -1.3373197361943390E-005
   3.7599999999999995E-002    -1.3269958799355741E-005
   3.8700000000000012E-002    -1.3129747458151620E-005
   3.9800000000000002E-002    -1.2950818927493026E-005
   4.0899999999999992E-002    -1.2731941751553757E-005
   4.2000000000000010E-002    -1.2472092748794319E-005
   4.3099999999999999E-002    -1.2170036825409704E-005
   4.4200000000000017E-002    -1.1824196917587038E-005
   4.5300000000000007E-002    -1.1432889550633342E-005
   4.6399999999999997E-002    -1.0994631338690022E-005
   4.7500000000000014E-002    -1.0508130799280557E-005
   4.8600000000000004E-002    -9.9720336947940138E-006
   4.9699999999999994E-002    -9.3847629614175128E-006
   5.0800000000000012E-002    -8.7447178884759376E-006
   5.1900000000000002E-002    -8.0507270467934030E-006
   5.2999999999999992E-002    -7.3022847573157214E-006
   5.4099999999999981E-002    -6.4992677835108052E-006
   5.5200000000000027E-002    -5.6413323363813826E-006
   5.6300000000000017E-002    -4.7276066652558058E-006
   5.7400000000000007E-002    -3.7569875530608232E-006
   5.8499999999999996E-002    -2.7287276225252526E-006
   5.9599999999999986E-002    -1.6427368336736193E-006
   6.0700000000000032E-002    -4.9932361889666150E-007
   6.1800000000000022E-002     7.0134751695143755E-007
   6.2900000000000011E-002     1.9594735931604495E-006
   6.4000000000000001E-002     3.2752004699431702E-006
   6.5099999999999991E-002     4.6479967750200900E-006
   6.6199999999999981E-002     6.0764782574551112E-006
   6.7300000000000026E-002     7.5588636718748086E-006
   6.8400000000000016E-002     9.0936819105990654E-006
   6.9500000000000006E-002     1.0680027116904919E-005
   7.0599999999999996E-002     1.2317056643951176E-005
   7.1699999999999986E-002     1.4003286196384538E-005
   7.2800000000000031E-002     1.5736388377263173E-005
   7.3900000000000021E-002     1.7513690181658566E-005
   7.5000000000000011E-002     1.9332868760102395E-005
   7.6100000000000001E-002     2.1192128770053360E-005
   7.7199999999999991E-002     2.3089623937266852E-005
   7.8299999999999981E-002     2.5022716727107736E-005
   7.9400000000000026E-002     2.6987845558323877E-005
   8.0500000000000016E-002     2.8981141440453922E-005
   8.1600000000000006E-002     3.0999184673419202E-005
   8.2699999999999996E-002     3.3039174013538279E-005
   8.3799999999999986E-002     3.5098368243779980E-005
   8.4900000000000031E-002     3.7173387681832537E-005
   8.6000000000000021E-002     3.9260048652067780E-005
   8.7100000000000011E-002     4.1353861888637773E-005
   8.8200000000000001E-002     4.3450636439956731E-005
   8.9299999999999990E-002     4.5546563342213637E-005
   9.0399999999999980E-002     4.7637757234042524E-005
   9.1500000000000026E-002     4.9719794333213954E-005
   9.2600000000000016E-002     5.1787777920253595E-005
   9.3700000000000006E-002     5.3836898587178459E-005
   9.4799999999999995E-002     5.5862885346869034E-005
   9.5899999999999985E-002     5.7861885579768595E-005
   9.7000000000000031E-002     5.9829908423125771E-005
   9.8100000000000021E-002     6.1762417317368131E-005
   9.9200000000000010E-002     6.3654486439190846E-005
  0.10030000000000000          6.5501335484441410E-005
  0.10139999999999999          6.7298700741957900E-005
  0.10249999999999998          6.9042653194628683E-005
  0.10360000000000003          7.0729212893638814E-005
  0.10470000000000002          7.2354196163360084E-005
  0.10580000000000001          7.3913506639655720E-005
  0.10690000000000000          7.5403549999464357E-005
  0.10799999999999998          7.6821183029096628E-005
  0.10910000000000003          7.8163197031244676E-005
  0.11020000000000002          7.9425866715610082E-005
  0.11130000000000001          8.0605059338267947E-005
  0.11240000000000000          8.1696911365725154E-005
  0.11349999999999999          8.2698505138978403E-005
  0.11460000000000004          8.3607839769683846E-005
  0.11570000000000003          8.4423125372268314E-005
  0.11680000000000001          8.5142281022854217E-005
  0.11790000000000000          8.5763022070750648E-005
  0.11899999999999999          8.6283420387189890E-005
  0.12009999999999998          8.6702340922784114E-005
  0.12120000000000003          8.7019172497093745E-005
  0.12230000000000002          8.7233100202865953E-005
  0.12340000000000001          8.7342770711984540E-005
  0.12450000000000000          8.7346743384841884E-005
  0.12559999999999999          8.7244341557379866E-005
  0.12670000000000003          8.7036183685995693E-005
  0.12780000000000002          8.6723797721788355E-005
  0.12890000000000001          8.6308653408195878E-005
  0.13000000000000000          8.5791594756301533E-005
  0.13109999999999999          8.5173160186968784E-005
  0.13219999999999998          8.4454339230433161E-005
  0.13330000000000003          8.3637009083759080E-005
  0.13440000000000002          8.2723541709128808E-005
  0.13550000000000001          8.1716039858292829E-005
  0.13660000000000000          8.0616104241926264E-005
  0.13769999999999999          7.9425386502407532E-005
  0.13880000000000003          7.8146440500859212E-005
  0.13990000000000002          7.6783020631410209E-005
  0.14100000000000001          7.5339463364798603E-005
  0.14210000000000000          7.3819748649839339E-005
  0.14319999999999999          7.2227150667458800E-005
  0.14429999999999998          7.0564616180490729E-005
  0.14540000000000003          6.8835579440929023E-005
  0.14650000000000002          6.7044267780147520E-005
  0.14760000000000001          6.5195134084206102E-005
  0.14870000000000000          6.3292231061495854E-005
  0.14979999999999999          6.1339174862951067E-005
  0.15090000000000003          5.9339687140891342E-005
  0.15200000000000002          5.7298308092867969E-005
  0.15310000000000001          5.5220298236235983E-005
  0.15420000000000000          5.3110856242710738E-005
  0.15529999999999999          5.0974525947822265E-005
  0.15639999999999998          4.8815145419212058E-005
  0.15750000000000003          4.6636516344733543E-005
  0.15860000000000002          4.4442986109061167E-005
  0.15970000000000001          4.2239262256771326E-005
  0.16080000000000000          4.0029735828284174E-005
  0.16189999999999999          3.7818252167198807E-005
  0.16300000000000003          3.5608423786470667E-005
  0.16410000000000002          3.3404096029698849E-005
  0.16520000000000001          3.1209638109430664E-005
  0.16630000000000000          2.9029581128270359E-005
  0.16739999999999999          2.6867901397054077E-005
  0.16850000000000004          2.4727705749683075E-005
  0.16960000000000003          2.2611804524785832E-005
  0.17070000000000002          2.0523437342490059E-005
  0.17180000000000001          1.8466294932295558E-005
  0.17290000000000000          1.6444029824924642E-005
  0.17399999999999999          1.4459640624409062E-005
  0.17510000000000003          1.2515200069174157E-005
  0.17620000000000002          1.0612519872665856E-005
  0.17730000000000001          8.7538510342710499E-006
  0.17840000000000000          6.9418656494235467E-006
  0.17949999999999999          5.1790702855214307E-006
  0.18060000000000004          3.4671836601773806E-006
  0.18170000000000003          1.8071243630401847E-006
  0.18280000000000002          1.9968622666508985E-007
  0.18390000000000001         -1.3537631957660961E-006
  0.18500000000000000         -2.8513848064904050E-006
  0.18609999999999999         -4.2916249185509700E-006
  0.18720000000000003         -5.6737621889624465E-006
  0.18830000000000002         -6.9978063947928799E-006
  0.18940000000000001         -8.2638707681326382E-006
  0.19050000000000000         -9.4716178864473663E-006
  0.19159999999999999         -1.0620439752528928E-005
  0.19270000000000004         -1.1709993486874754E-005
  0.19380000000000003         -1.2740631063934434E-005
  0.19490000000000002         -1.3713239241042191E-005
  0.19600000000000001         -1.4628553799411765E-005
  0.19710000000000000         -1.5486739357584173E-005
  0.19819999999999999         -1.6287713151541555E-005
  0.19930000000000003         -1.7031681636581214E-005
  0.20040000000000002         -1.7719534298521487E-005
  0.20150000000000001         -1.8352742699789832E-005
  0.20260000000000000         -1.8932789316750148E-005
  0.20369999999999999         -1.9460941985016706E-005
  0.20480000000000004         -1.9938388504670019E-005
  0.20590000000000003         -2.0366636817925623E-005
  0.20700000000000002         -2.0747438611579141E-005
  0.20810000000000001         -2.1082340026623586E-005
  0.20920000000000000         -2.1372448827605711E-005
  0.21029999999999999         -2.1618487153318724E-005
  0.21140000000000003         -2.1821218979312121E-005
  0.21250000000000002         -2.1981872123433291E-005
  0.21360000000000001         -2.2102161892689778E-005
  0.21470000000000000         -2.2183950932230811E-005
  0.21579999999999999         -2.2228954549063942E-005
  0.21690000000000004         -2.2238746169023229E-005
  0.21800000000000003         -2.2215113858692362E-005
  0.21910000000000002         -2.2160131265991381E-005
  0.22020000000000001         -2.2075782908359556E-005
  0.22130000000000000         -2.1963369363220422E-005
  0.22239999999999999         -2.1823421775479815E-005
  0.22350000000000003         -2.1656422177329673E-005
  0.22460000000000002         -2.1463456505443911E-005
  0.22570000000000001         -2.1246441974653876E-005
  0.22680000000000000         -2.1007675968576233E-005
  0.22789999999999999         -2.0748944734805277E-005
  0.22900000000000004         -2.0471255993470560E-005
  0.23010000000000003         -2.0175370082142776E-005
  0.23120000000000002         -1.9862411136273308E-005
  0.23230000000000001         -1.9534019884304157E-005
  0.23340000000000000         -1.9191926185158095E-005
  0.23450000000000004         -1.8837241441360688E-005
  0.23560000000000003         -1.8470220311428434E-005
  0.23670000000000002         -1.8090859157382524E-005
  0.23780000000000001         -1.7699736417853287E-005
  0.23890000000000000         -1.7298210877925171E-005
  0.23999999999999999         -1.6887865058379261E-005
  0.24110000000000004         -1.6469924958073551E-005
  0.24220000000000003         -1.6044947187765518E-005
  0.24330000000000002         -1.5613108189427311E-005
  0.24440000000000001         -1.5174876352830343E-005
  0.24550000000000000         -1.4731142982782349E-005
  0.24660000000000004         -1.4282899428508265E-005
  0.24770000000000003         -1.3830821444571504E-005
  0.24880000000000002         -1.3375126400205794E-005
  0.24990000000000001         -1.2915878869534956E-005
  0.25100000000000000         -1.2453337149054298E-005
  0.25209999999999999         -1.1988058759016007E-005
  0.25320000000000004         -1.1520734005898727E-005
  0.25430000000000003         -1.1051854016841413E-005
  0.25540000000000002         -1.0581608876236738E-005
  0.25650000000000001         -1.0110076800629055E-005
  0.25760000000000000         -9.6373196356580847E-006
  0.25870000000000004         -9.1634901764337228E-006
  0.25980000000000003         -8.6887739598751339E-006
  0.26090000000000002         -8.2133738033008118E-006
  0.26200000000000001         -7.7376089393510771E-006
  0.26310000000000000         -7.2619714046595923E-006
  0.26419999999999999         -6.7868832047679766E-006
  0.26530000000000004         -6.3124293774308485E-006
  0.26640000000000003         -5.8384284784552032E-006
  0.26750000000000002         -5.3645876505470708E-006
  0.26860000000000001         -4.8908736971498340E-006
  0.26970000000000000         -4.4175912989885894E-006
  0.27080000000000004         -3.9450496842619387E-006
  0.27190000000000003         -3.4732395306491890E-006
  0.27300000000000002         -3.0019475616427748E-006
  0.27410000000000001         -2.5312394882348984E-006
  0.27520000000000000         -2.0616232632165000E-006
  0.27629999999999999         -1.5938504702717580E-006
  0.27740000000000004         -1.1284125776001428E-006
  0.27850000000000003         -6.6502764184410432E-007
  0.27960000000000002         -2.0283994217611208E-007
  0.28070000000000001          2.5890651045297324E-007
  0.28179999999999999          7.2031389208855381E-007
  0.28290000000000004          1.1808026556536341E-006
  0.28400000000000003          1.6396155615438603E-006
  0.28510000000000002          2.0963204860890525E-006
  0.28620000000000001          2.5509079932816792E-006
  0.28730000000000000          3.0034452720428347E-006
  0.28840000000000005          3.4536499242676180E-006
  0.28950000000000004          3.9009810279821494E-006
  0.29060000000000002          4.3450545490486056E-006
  0.29170000000000001          4.7860048653091744E-006
  0.29280000000000000          5.2243904065107427E-006
  0.29389999999999999          5.6606945690873045E-006
  0.29500000000000004          6.0948495956835769E-006
  0.29610000000000003          6.5262620410066513E-006
  0.29720000000000002          6.9542093115159734E-006
  0.29830000000000001          7.3782566687440906E-006
  0.29940000000000000          7.7983640949241292E-006
  0.30050000000000004          8.2144488260382278E-006
  0.30160000000000003          8.6262143668136051E-006
  0.30270000000000002          9.0332969193695519E-006
  0.30380000000000001          9.4354509201365929E-006
  0.30490000000000000          9.8326263469061289E-006
  0.30599999999999999          1.0224965990346338E-005
  0.30709999999999998          1.0612628102535329E-005
  0.30819999999999997          1.0995605407515488E-005
  0.30930000000000007          1.1373704182915337E-005
  0.31040000000000006          1.1746582458727009E-005
  0.31150000000000005          1.2113734555896319E-005
  0.31260000000000004          1.2474572031351220E-005
  0.31370000000000003          1.2828588296542823E-005
  0.31480000000000002          1.3175490494177160E-005
  0.31590000000000001          1.3515298633137665E-005
  0.31700000000000000          1.3848153685103120E-005
  0.31809999999999999          1.4174071111483447E-005
  0.31919999999999998          1.4492718037217805E-005
  0.32029999999999997          1.4803598787693723E-005
  0.32140000000000007          1.5106522369023829E-005
  0.32250000000000006          1.5401685232063705E-005
  0.32360000000000005          1.5689533029217226E-005
  0.32470000000000004          1.5970275853760490E-005
  0.32580000000000003          1.6243500795098906E-005
  0.32690000000000002          1.6508394764969078E-005
  0.32800000000000001          1.6764317479100966E-005
  0.32910000000000000          1.7011245290632312E-005
  0.33019999999999999          1.7249591110157736E-005
  0.33129999999999998          1.7479585949331478E-005
  0.33239999999999997          1.7700867829262235E-005
  0.33350000000000007          1.7912727344082628E-005
  0.33460000000000006          1.8114553313353055E-005
  0.33570000000000005          1.8306283891433806E-005
  0.33680000000000004          1.8488388377590992E-005
  0.33790000000000003          1.8661334252101329E-005
  0.33900000000000002          1.8825234292307828E-005
  0.34010000000000001          1.8979775632033084E-005
  0.34120000000000000          1.9124558093608320E-005
  0.34229999999999999          1.9259441614849456E-005
  0.34339999999999998          1.9384422557777691E-005
  0.34449999999999997          1.9499391783028811E-005
  0.34560000000000007          1.9604003682616133E-005
  0.34670000000000006          1.9697889001690752E-005
  0.34780000000000005          1.9780922229983813E-005
  0.34890000000000004          1.9853188859997287E-005
