 -0.20000000000000001          0.0000000000000000
 -0.19890000000000002          0.0000000000000000
 -0.19780000000000000          0.0000000000000000
 -0.19670000000000001          0.0000000000000000
 -0.19560000000000002          0.0000000000000000
 -0.19450000000000001          0.0000000000000000
 -0.19340000000000002          0.0000000000000000
 -0.19230000000000000          0.0000000000000000
 -0.19120000000000001          0.0000000000000000
 -0.19010000000000002          0.0000000000000000
 -0.18900000000000000         -3.5486907821367216E-024
 -0.18790000000000001         -6.2008360967799699E-023
 -0.18680000000000002         -4.2953822125904942E-022
 -0.18570000000000000         -1.4375556921378079E-021
 -0.18460000000000001         -1.0279732536436983E-021
 -0.18350000000000000          1.2059609937665507E-020
 -0.18240000000000001          5.8095324262648508E-020
 -0.18130000000000002          1.1629734189961929E-019
 -0.18020000000000000         -9.9569087426200411E-021
 -0.17910000000000001         -7.5676691460823948E-019
 -0.17800000000000002         -2.2553947940901480E-018
 -0.17690000000000000         -2.7038873659278774E-018
 -0.17580000000000001          3.0498666172712976E-018
 -0.17470000000000002          1.9989565619256437E-017
 -0.17360000000000000          3.9531282419986863E-017
 -0.17250000000000001          2.3236686274890498E-017
 -0.17140000000000000         -8.5174013433531910E-017
 -0.17030000000000001         -2.8070078948944435E-016
 -0.16920000000000002         -3.7329329614604174E-016
 -0.16810000000000000          2.0741282544526252E-017
 -0.16700000000000001          1.1363396973669668E-015
 -0.16589999999999999          2.3744936020268477E-015
 -0.16480000000000000          1.9223724022544462E-015
 -0.16370000000000001         -2.1783457589146958E-015
 -0.16260000000000002         -9.1191126644265402E-015
 -0.16150000000000000         -1.2660147452950299E-014
 -0.16040000000000001         -3.2534690087550550E-015
 -0.15930000000000000          2.2140148668949901E-014
 -0.15820000000000001          4.7826834452448924E-014
 -0.15710000000000002          3.9864897542979741E-014
 -0.15600000000000000         -2.7227147335220740E-014
 -0.15490000000000001         -1.2713091755538197E-013
 -0.15379999999999999         -1.6469781810059259E-013
 -0.15270000000000000         -3.4260741216696894E-014
 -0.15160000000000001          2.5365327243134783E-013
 -0.15050000000000002          4.8213191251866849E-013
 -0.14940000000000001          3.2305205060513542E-013
 -0.14830000000000002         -3.4877875869539221E-013
 -0.14720000000000000         -1.1418538640659004E-012
 -0.14610000000000001         -1.2239276432624013E-012
 -0.14500000000000002          1.7259238200943716E-014
 -0.14390000000000000          2.1112855387583895E-012
 -0.14280000000000001          3.3285223535739483E-012
 -0.14169999999999999          1.8351390285858971E-012
 -0.14060000000000000         -2.3507688851065467E-012
 -0.13950000000000001         -6.3857118377808053E-012
 -0.13840000000000002         -6.2496123727495689E-012
 -0.13730000000000001         -4.8179635194628423E-013
 -0.13619999999999999          7.2432940721733896E-012
 -0.13510000000000000          1.0203633077354723E-011
 -0.13400000000000001          5.0447003345499564E-012
 -0.13290000000000002         -3.2305904913015882E-012
 -0.13180000000000000         -4.5897240001646633E-012
 -0.13070000000000001          4.3928081658317630E-012
 -0.12959999999999999          1.1357638787790059E-011
 -0.12850000000000000         -4.5477627740042603E-012
 -0.12740000000000001         -4.7648402584643534E-011
 -0.12630000000000002         -8.3974237286010833E-011
 -0.12520000000000001         -5.3528511484435271E-011
 -0.12410000000000000          7.4629552537786026E-011
 -0.12300000000000001          2.4175458857023102E-010
 -0.12190000000000001          3.0024069341827442E-010
 -0.12080000000000000          1.1311812597725179E-010
 -0.11970000000000000         -2.9806709878066329E-010
 -0.11860000000000001         -6.8559535826295814E-010
 -0.11750000000000001         -6.9700573090969442E-010
 -0.11640000000000000         -1.5275203324449649E-010
 -0.11530000000000000          7.2191191913262287E-010
 -0.11420000000000001          1.3474278359737468E-009
 -0.11310000000000001          1.1736690508357128E-009
 -0.11200000000000000          1.4886229748878321E-010
 -0.11090000000000001         -1.1280588685380621E-009
 -0.10980000000000001         -1.7856303102803395E-009
 -0.10870000000000000         -1.3585308433761156E-009
 -0.10760000000000000         -2.0274157352950795E-010
 -0.10650000000000001          7.8221273902556732E-010
 -0.10540000000000001          9.6550478723145261E-010
 -0.10430000000000000          6.0915217314772008E-010
 -0.10320000000000000          6.1981947352407474E-010
 -0.10210000000000001          1.5000327646674805E-009
 -0.10100000000000001          2.4529114295290810E-009
  -9.9900000000000003E-002     1.7197865354035002E-009
  -9.8799999999999999E-002    -1.7505984439836197E-009
  -9.7700000000000009E-002    -6.6001630827372537E-009
  -9.6600000000000005E-002    -9.1311012084815957E-009
  -9.5500000000000002E-002    -5.7869238290209069E-009
  -9.4400000000000012E-002     3.4781253432925041E-009
  -9.3300000000000008E-002     1.3797802012049942E-008
  -9.2200000000000004E-002     1.7830235066185196E-008
  -9.1100000000000000E-002     1.0948832063206737E-008
  -9.0000000000000011E-002    -4.5482098087745726E-009
  -8.8900000000000007E-002    -1.9853331423291820E-008
  -8.7800000000000003E-002    -2.5093482847182713E-008
  -8.6699999999999999E-002    -1.6160020877009629E-008
  -8.5600000000000009E-002     2.1904462688127069E-009
  -8.4500000000000006E-002     1.9462540024051123E-008
  -8.3400000000000002E-002     2.6462998903298285E-008
  -8.2299999999999998E-002     2.0887188867391160E-008
  -8.1200000000000008E-002     7.4313306619444575E-009
  -8.0100000000000005E-002    -6.9216135045735427E-009
  -7.9000000000000001E-002    -1.7858532430636842E-008
  -7.7899999999999997E-002    -2.4645851581794886E-008
  -7.6800000000000007E-002    -2.6952882592468086E-008
  -7.5700000000000003E-002    -2.1804918759471548E-008
  -7.4600000000000000E-002    -5.0120254613261750E-009
  -7.3500000000000010E-002     2.3024764317369772E-008
  -7.2399999999999992E-002     5.2341302847480620E-008
  -7.1300000000000002E-002     6.5343378707893862E-008
  -7.0200000000000012E-002     4.6841890366522421E-008
  -6.9099999999999995E-002    -3.6465981345656928E-009
  -6.8000000000000005E-002    -6.6539051601921528E-008
  -6.6900000000000015E-002    -1.0944521733335932E-007
  -6.5799999999999997E-002    -1.0443027775863811E-007
  -6.4700000000000008E-002    -4.5439762175192300E-008
  -6.3599999999999990E-002     4.4992408021471419E-008
  -6.2500000000000000E-002     1.2476016308937687E-007
  -6.1400000000000010E-002     1.5291003307993378E-007
  -6.0299999999999992E-002     1.1128121002457192E-007
  -5.9200000000000003E-002     1.5410599019105575E-008
  -5.8100000000000013E-002    -9.1581043193400546E-008
  -5.6999999999999995E-002    -1.5957637344854447E-007
  -5.5900000000000005E-002    -1.5612218362548447E-007
  -5.4800000000000015E-002    -8.2195818151831190E-008
  -5.3699999999999998E-002     2.9178911731264634E-008
  -5.2600000000000008E-002     1.2988338937702792E-007
  -5.1499999999999990E-002     1.7869007251647417E-007
  -5.0400000000000000E-002     1.5601682434862596E-007
  -4.9300000000000010E-002     6.6161213396753737E-008
  -4.8199999999999993E-002    -6.8272804298885603E-008
  -4.7100000000000003E-002    -2.1101354263919347E-007
  -4.6000000000000013E-002    -3.1321232540904020E-007
  -4.4899999999999995E-002    -3.1878315098765597E-007
  -4.3800000000000006E-002    -1.8441120630541263E-007
  -4.2699999999999988E-002     8.7326370135087927E-008
  -4.1599999999999998E-002     4.2238431774421770E-007
  -4.0500000000000008E-002     6.8571875999623444E-007
  -3.9399999999999991E-002     7.3933614430643502E-007
  -3.8300000000000001E-002     5.2411348860914586E-007
  -3.7200000000000011E-002     1.1386691767256707E-007
  -3.6099999999999993E-002    -3.0365646352947806E-007
  -3.5000000000000003E-002    -5.2092798341618618E-007
  -3.3900000000000013E-002    -4.2905421082650719E-007
  -3.2799999999999996E-002    -8.6317449188300088E-008
  -3.1700000000000006E-002     3.1022585744722164E-007
  -3.0599999999999988E-002     5.3586541071126703E-007
  -2.9499999999999998E-002     4.6469341441479628E-007
  -2.8400000000000009E-002     1.3580778102095792E-007
  -2.7299999999999991E-002    -2.7561179649637779E-007
  -2.6200000000000001E-002    -5.5781885066608083E-007
  -2.5100000000000011E-002    -5.7008219300769269E-007
  -2.3999999999999994E-002    -3.0022232522242120E-007
  -2.2900000000000004E-002     1.4870980180603510E-007
  -2.1800000000000014E-002     6.2145704760041554E-007
  -2.0699999999999996E-002     9.8073417120758677E-007
  -1.9600000000000006E-002     1.1484684137030854E-006
  -1.8499999999999989E-002     1.1071706467191689E-006
  -1.7399999999999999E-002     8.7713414131940226E-007
  -1.6300000000000009E-002     4.9772717147789081E-007
  -1.5199999999999991E-002     3.2095055502168179E-008
  -1.4100000000000001E-002    -4.1134757111649378E-007
  -1.3000000000000012E-002    -6.7268820203025825E-007
  -1.1899999999999994E-002    -5.8358637033961713E-007
  -1.0800000000000004E-002    -6.0803792223396158E-008
  -9.6999999999999864E-003     7.9922182294467348E-007
  -8.5999999999999965E-003     1.7028258980644750E-006
  -7.5000000000000067E-003     2.2673586954624625E-006
  -6.3999999999999890E-003     2.2215608623810112E-006
  -5.2999999999999992E-003     1.5832398503334844E-006
  -4.2000000000000093E-003     6.8736642333533382E-007
  -3.0999999999999917E-003     2.0681788726051309E-008
  -2.0000000000000018E-003    -5.0852964506020726E-008
  -9.0000000000001190E-004     5.0843607368733501E-007
   2.0000000000000573E-004     1.3963542642159155E-006
   1.2999999999999956E-003     2.1736632334068418E-006
   2.4000000000000132E-003     2.5393255782546476E-006
   3.5000000000000031E-003     2.4984040010167519E-006
   4.5999999999999930E-003     2.3188999875856098E-006
   5.7000000000000106E-003     2.3197783320938470E-006
   6.8000000000000005E-003     2.6409431939100614E-006
   7.8999999999999904E-003     3.1502238471148303E-006
   9.0000000000000080E-003     3.5437471979093971E-006
   1.0099999999999998E-002     3.5707666938833427E-006
   1.1199999999999988E-002     3.2361804187530652E-006
   1.2300000000000005E-002     2.8454437597247306E-006
   1.3399999999999995E-002     2.8488650514191249E-006
   1.4500000000000013E-002     3.5624191241367953E-006
   1.5600000000000003E-002     4.9286818466498516E-006
   1.6699999999999993E-002     6.4813420976861380E-006
   1.7800000000000010E-002     7.5733864832727704E-006
   1.8900000000000000E-002     7.7632421380258165E-006
   1.9999999999999990E-002     7.1281342570728157E-006
   2.1100000000000008E-002     6.2810358940623701E-006
   2.2199999999999998E-002     6.0386155382730067E-006
   2.3300000000000015E-002     6.9228567554091569E-006
   2.4400000000000005E-002     8.8139495346695185E-006
   2.5499999999999995E-002     1.0998164725606330E-005
   2.6600000000000013E-002     1.2597773093148135E-005
   2.7700000000000002E-002     1.3111264706822112E-005
   2.8799999999999992E-002     1.2712486750388052E-005
   2.9900000000000010E-002     1.2123978194722440E-005
   3.1000000000000000E-002     1.2166242413513828E-005
   3.2099999999999990E-002     1.3282463442010339E-005
   3.3200000000000007E-002     1.5328050722018816E-005
   3.4299999999999997E-002     1.7719556126394309E-005
   3.5400000000000015E-002     1.9807832359219901E-005
   3.6500000000000005E-002     2.1237457985989749E-005
   3.7599999999999995E-002     2.2089987396611832E-005
   3.8700000000000012E-002     2.2769994757254608E-005
   3.9800000000000002E-002     2.3724238417344168E-005
   4.0899999999999992E-002     2.5170853405143134E-005
   4.2000000000000010E-002     2.6995223379344679E-005
   4.3099999999999999E-002     2.8878912416985258E-005
   4.4200000000000017E-002     3.0571969546144828E-005
   4.5300000000000007E-002     3.2127481972565874E-005
   4.6399999999999997E-002     3.3905685995705426E-005
   4.7500000000000014E-002     3.6303499655332416E-005
   4.8600000000000004E-002     3.9403515984304249E-005
   4.9699999999999994E-002     4.2808307625818998E-005
   5.0800000000000012E-002     4.5849286834709346E-005
   5.1900000000000002E-002     4.8054935177788138E-005
   5.2999999999999992E-002     4.9534883146407083E-005
   5.4099999999999981E-002     5.0957292842213064E-005
   5.5200000000000027E-002     5.3113239118829370E-005
   5.6300000000000017E-002     5.6382446928182617E-005
   5.7400000000000007E-002     6.0501697589643300E-005
   5.8499999999999996E-002     6.4796382503118366E-005
   5.9599999999999986E-002     6.8693603680003434E-005
   6.0700000000000032E-002     7.2083203122019768E-005
   6.1800000000000022E-002     7.5276453571859747E-005
   6.2900000000000011E-002     7.8687226050533354E-005
   6.4000000000000001E-002     8.2478734839241952E-005
   6.5099999999999991E-002     8.6507825471926481E-005
   6.6199999999999981E-002     9.0517722128424793E-005
   6.7300000000000026E-002     9.4416005595121533E-005
   6.8400000000000016E-002     9.8397205874789506E-005
   6.9500000000000006E-002     1.0283952724421397E-004
   7.0599999999999996E-002     1.0806251520989463E-004
   7.1699999999999986E-002     1.1407035344745964E-004
   7.2800000000000031E-002     1.2041176523780450E-004
   7.3900000000000021E-002     1.2625067029148340E-004
   7.5000000000000011E-002     1.3076106552034616E-004
   7.6100000000000001E-002     1.3367448991630226E-004
   7.7199999999999991E-002     1.3575005868915468E-004
   7.8299999999999981E-002     1.3867332017980516E-004
   7.9400000000000026E-002     1.4424894470721483E-004
   8.0500000000000016E-002     1.5318913210649043E-004
   8.1600000000000006E-002     1.6426236834377050E-004
   8.2699999999999996E-002     1.7470003513153642E-004
   8.3799999999999986E-002     1.8170443945564330E-004
   8.4900000000000031E-002     1.8426460155751556E-004
   8.6000000000000021E-002     1.8388095486443490E-004
   8.7100000000000011E-002     1.8382394046057016E-004
   8.8200000000000001E-002     1.8720338994171470E-004
   8.9299999999999990E-002     1.9529025303199887E-004
   9.0399999999999980E-002     2.0698888693004847E-004
   9.1500000000000026E-002     2.1966230997350067E-004
   9.2600000000000016E-002     2.3057298676576465E-004
   9.3700000000000006E-002     2.3804663214832544E-004
   9.4799999999999995E-002     2.4180786567740142E-004
   9.5899999999999985E-002     2.4285404651891440E-004
   9.7000000000000031E-002     2.4312283494509757E-004
   9.8100000000000021E-002     2.4482511798851192E-004
   9.9200000000000010E-002     2.4961202871054411E-004
  0.10030000000000000          2.5790656218305230E-004
  0.10139999999999999          2.6860521757043898E-004
  0.10249999999999998          2.7951833908446133E-004
  0.10360000000000003          2.8855979326181114E-004
  0.10470000000000002          2.9482896206900477E-004
  0.10580000000000001          2.9869499849155545E-004
  0.10690000000000000          3.0107569182291627E-004
  0.10799999999999998          3.0266740941442549E-004
  0.10910000000000003          3.0385315767489374E-004
  0.11020000000000002          3.0529391369782388E-004
  0.11130000000000001          3.0831265030428767E-004
  0.11240000000000000          3.1445425702258945E-004
  0.11349999999999999          3.2391987042501569E-004
  0.11460000000000004          3.3460609847679734E-004
  0.11570000000000003          3.4294018405489624E-004
  0.11680000000000001          3.4614824107848108E-004
  0.11790000000000000          3.4410203807055950E-004
  0.11899999999999999          3.3945697941817343E-004
  0.12009999999999998          3.3582968171685934E-004
  0.12120000000000003          3.3554548281244934E-004
  0.12230000000000002          3.3865313162095845E-004
  0.12340000000000001          3.4372418303973973E-004
  0.12450000000000000          3.4940571640618145E-004
  0.12559999999999999          3.5479635698720813E-004
  0.12670000000000003          3.5896713961847126E-004
  0.12780000000000002          3.6029604962095618E-004
  0.12890000000000001          3.5765071515925229E-004
  0.13000000000000000          3.5105698043480515E-004
  0.13109999999999999          3.4291925840079784E-004
  0.13219999999999998          3.3633329439908266E-004
  0.13330000000000003          3.3365213312208652E-004
  0.13440000000000002          3.3498179982416332E-004
  0.13550000000000001          3.3805449493229389E-004
  0.13660000000000000          3.4002258325926960E-004
  0.13769999999999999          3.3957921550609171E-004
  0.13880000000000003          3.3674784936010838E-004
  0.13990000000000002          3.3188585075549781E-004
  0.14100000000000001          3.2461172668263316E-004
  0.14210000000000000          3.1471170950680971E-004
  0.14319999999999999          3.0310614965856075E-004
  0.14429999999999998          2.9271026141941547E-004
  0.14540000000000003          2.8656577342189848E-004
  0.14650000000000002          2.8556116740219295E-004
  0.14760000000000001          2.8707890305668116E-004
  0.14870000000000000          2.8626236598938704E-004
  0.14979999999999999          2.7994450647383928E-004
  0.15090000000000003          2.6823353255167603E-004
  0.15200000000000002          2.5476844166405499E-004
  0.15310000000000001          2.4265833781100810E-004
  0.15420000000000000          2.3279638844542205E-004
  0.15529999999999999          2.2323887969832867E-004
  0.15639999999999998          2.1300678781699389E-004
  0.15750000000000003          2.0264100749045610E-004
  0.15860000000000002          1.9450415857136250E-004
  0.15970000000000001          1.8925516633316875E-004
  0.16080000000000000          1.8476042896509171E-004
  0.16189999999999999          1.7730674881022424E-004
  0.16300000000000003          1.6428293019998819E-004
  0.16410000000000002          1.4767996617592871E-004
  0.16520000000000001          1.3180956011638045E-004
  0.16630000000000000          1.1909707973245531E-004
  0.16739999999999999          1.0884184302994981E-004
  0.16850000000000004          9.8622243967838585E-005
  0.16960000000000003          8.6941814515739679E-005
  0.17070000000000002          7.5245305197313428E-005
  0.17180000000000001          6.5574779000598937E-005
  0.17290000000000000          5.8096564316656440E-005
  0.17399999999999999          4.9775400839280337E-005
  0.17510000000000003          3.6971468944102526E-005
  0.17620000000000002          1.9358463759999722E-005
  0.17730000000000001          2.2618293371579057E-007
  0.17840000000000000         -1.5520165106863715E-005
  0.17949999999999999         -2.6450807126821019E-005
  0.18060000000000004         -3.4804368624463677E-005
  0.18170000000000003         -4.4390777475200593E-005
  0.18280000000000002         -5.6789183872751892E-005
  0.18390000000000001         -7.0033551310189068E-005
  0.18500000000000000         -8.1686623161658645E-005
  0.18609999999999999         -9.1359957878012210E-005
  0.18720000000000003         -1.0233243665425107E-004
  0.18830000000000002         -1.1709004320437089E-004
  0.18940000000000001         -1.3513716112356633E-004
  0.19050000000000000         -1.5371221525128931E-004
  0.19159999999999999         -1.6904655785765499E-004
  0.19270000000000004         -1.7929586465470493E-004
  0.19380000000000003         -1.8713642202783376E-004
  0.19490000000000002         -1.9630667520686984E-004
  0.19600000000000001         -2.0838232012465596E-004
  0.19710000000000000         -2.2169189469423145E-004
  0.19819999999999999         -2.3456518829334527E-004
  0.19930000000000003         -2.4645641678944230E-004
  0.20040000000000002         -2.5867446674965322E-004
  0.20150000000000001         -2.7357658836990595E-004
  0.20260000000000000         -2.9070509481243789E-004
  0.20369999999999999         -3.0700923525728285E-004
  0.20480000000000004         -3.2060753437690437E-004
  0.20590000000000003         -3.3066474134102464E-004
  0.20700000000000002         -3.3905595773831010E-004
  0.20810000000000001         -3.4807852352969348E-004
  0.20920000000000000         -3.5915643093176186E-004
  0.21029999999999999         -3.7097543827258050E-004
  0.21140000000000003         -3.8269619108177722E-004
  0.21250000000000002         -3.9496651152148843E-004
  0.21360000000000001         -4.0865287883207202E-004
  0.21470000000000000         -4.2476336238905787E-004
  0.21579999999999999         -4.4205764424987137E-004
  0.21690000000000004         -4.5639640302397311E-004
  0.21800000000000003         -4.6536434092558920E-004
  0.21910000000000002         -4.7048242413438857E-004
  0.22020000000000001         -4.7495748731307685E-004
  0.22130000000000000         -4.8231714754365385E-004
  0.22239999999999999         -4.9382587894797325E-004
  0.22350000000000003         -5.0689978525042534E-004
  0.22460000000000002         -5.1844300469383597E-004
  0.22570000000000001         -5.2894122200086713E-004
  0.22680000000000000         -5.3960969671607018E-004
  0.22789999999999999         -5.5174430599436164E-004
  0.22900000000000004         -5.6370708625763655E-004
  0.23010000000000003         -5.7300779735669494E-004
  0.23120000000000002         -5.7815056061372161E-004
  0.23230000000000001         -5.7956413365900517E-004
  0.23340000000000000         -5.7980802375823259E-004
  0.23450000000000004         -5.8195478050038218E-004
  0.23560000000000003         -5.8816315140575171E-004
  0.23670000000000002         -5.9691292699426413E-004
  0.23780000000000001         -6.0739106265828013E-004
  0.23890000000000000         -6.1648641712963581E-004
  0.23999999999999999         -6.2286487082019448E-004
  0.24110000000000004         -6.2607933068647981E-004
  0.24220000000000003         -6.2599836383014917E-004
  0.24330000000000002         -6.2332872767001390E-004
  0.24440000000000001         -6.2032090499997139E-004
  0.24550000000000000         -6.1809469480067492E-004
  0.24660000000000004         -6.1683828243985772E-004
  0.24770000000000003         -6.1597407329827547E-004
  0.24880000000000002         -6.1545497737824917E-004
  0.24990000000000001         -6.1497755814343691E-004
  0.25100000000000000         -6.1449070926755667E-004
  0.25209999999999999         -6.1331328470259905E-004
  0.25320000000000004         -6.1007076874375343E-004
  0.25430000000000003         -6.0388876590877771E-004
  0.25540000000000002         -5.9480953495949507E-004
  0.25650000000000001         -5.8475660625845194E-004
  0.25760000000000000         -5.7531450875103474E-004
  0.25870000000000004         -5.6636624503880739E-004
  0.25980000000000003         -5.5638171033933759E-004
  0.26090000000000002         -5.4468703456223011E-004
  0.26200000000000001         -5.3324148757383227E-004
  0.26310000000000000         -5.2326667355373502E-004
  0.26419999999999999         -5.1598896970972419E-004
  0.26530000000000004         -5.0807883962988853E-004
  0.26640000000000003         -4.9641926307231188E-004
  0.26750000000000002         -4.7931127483025193E-004
  0.26860000000000001         -4.5938344555906951E-004
  0.26970000000000000         -4.3949161772616208E-004
  0.27080000000000004         -4.2299431515857577E-004
  0.27190000000000003         -4.0818972047418356E-004
  0.27300000000000002         -3.9272641879506409E-004
  0.27410000000000001         -3.7460005842149258E-004
  0.27520000000000000         -3.5540710086934268E-004
  0.27629999999999999         -3.3839343814179301E-004
  0.27740000000000004         -3.2459915382787585E-004
  0.27850000000000003         -3.1076723826117814E-004
  0.27960000000000002         -2.9295377316884696E-004
  0.28070000000000001         -2.6945356512442231E-004
  0.28179999999999999         -2.4338491493836045E-004
  0.28290000000000004         -2.1993795235175639E-004
  0.28400000000000003         -2.0127580501139164E-004
  0.28510000000000002         -1.8443528097122908E-004
  0.28620000000000001         -1.6592595784459263E-004
  0.28730000000000000         -1.4489049499388784E-004
  0.28840000000000005         -1.2297864304855466E-004
  0.28950000000000004         -1.0429157555336133E-004
  0.29060000000000002         -8.8544591562822461E-005
  0.29170000000000001         -7.2829679993446916E-005
  0.29280000000000000         -5.2574632718460634E-005
  0.29389999999999999         -2.8946176826138981E-005
  0.29500000000000004         -6.3932056946214288E-006
  0.29610000000000003          1.1887786968145519E-005
  0.29720000000000002          2.6262017854605801E-005
  0.29830000000000001          4.2182517063338310E-005
  0.29940000000000000          6.2757011619396508E-005
  0.30050000000000004          8.5820305685047060E-005
  0.30160000000000003          1.0408683738205582E-004
  0.30270000000000002          1.1389832798158750E-004
  0.30380000000000001          1.1775027815019712E-004
  0.30490000000000000          1.2485485058277845E-004
  0.30599999999999999          1.4139887935016304E-004
  0.30709999999999998          1.6576619236730039E-004
  0.30819999999999997          1.8921964510809630E-004
  0.30930000000000007          2.0384939853101969E-004
  0.31040000000000006          2.0987360039725900E-004
  0.31150000000000005          2.1417801326606423E-004
  0.31260000000000004          2.2285922023002058E-004
  0.31370000000000003          2.3535486252512783E-004
  0.31480000000000002          2.4645018856972456E-004
  0.31590000000000001          2.5144382379949093E-004
  0.31700000000000000          2.5178561918437481E-004
  0.31809999999999999          2.5405953056178987E-004
  0.31919999999999998          2.6281262398697436E-004
  0.32029999999999997          2.7613807469606400E-004
  0.32140000000000007          2.8733935323543847E-004
  0.32250000000000006          2.9273735708557069E-004
  0.32360000000000005          2.9368288232944906E-004
  0.32470000000000004          2.9367237584665418E-004
  0.32580000000000003          2.9443201492540538E-004
  0.32690000000000002          2.9443268431350589E-004
  0.32800000000000001          2.9155731317587197E-004
  0.32910000000000000          2.8655989444814622E-004
  0.33019999999999999          2.8274246142245829E-004
  0.33129999999999998          2.8426593053154647E-004
  0.33239999999999997          2.9133641510270536E-004
  0.33350000000000007          2.9780805925838649E-004
  0.33460000000000006          2.9806679231114686E-004
  0.33570000000000005          2.8979434864595532E-004
  0.33680000000000004          2.7926111943088472E-004
  0.33790000000000003          2.7223309734836221E-004
  0.33900000000000002          2.7060057618655264E-004
  0.34010000000000001          2.6955033536069095E-004
  0.34120000000000000          2.6375829475000501E-004
  0.34229999999999999          2.5324744638055563E-004
  0.34339999999999998          2.4381789262406528E-004
  0.34449999999999997          2.4008924083318561E-004
  0.34560000000000007          2.4120276793837547E-004
  0.34670000000000006          2.4073268286883831E-004
  0.34780000000000005          2.3367187532130629E-004
  0.34890000000000004          2.2132163576316088E-004
