 -0.20000000000000001          0.0000000000000000
 -0.19890000000000002          0.0000000000000000
 -0.19780000000000000          0.0000000000000000
 -0.19670000000000001          0.0000000000000000
 -0.19560000000000002          0.0000000000000000
 -0.19450000000000001          0.0000000000000000
 -0.19340000000000002          0.0000000000000000
 -0.19230000000000000          0.0000000000000000
 -0.19120000000000001          0.0000000000000000
 -0.19010000000000002          0.0000000000000000
 -0.18900000000000000          0.0000000000000000
 -0.18790000000000001          0.0000000000000000
 -0.18680000000000002          1.2483058190286050E-036
 -0.18570000000000000          3.1365753645133263E-035
 -0.18460000000000001          4.0990952789336885E-034
 -0.18350000000000000          2.3287042674888615E-033
 -0.18240000000000001          7.9630646880670491E-033
 -0.18130000000000002          2.1112848323607712E-032
 -0.18020000000000000          2.9372659213700155E-032
 -0.17910000000000001         -1.2043117123821310E-031
 -0.17800000000000002         -7.5010438627666066E-031
 -0.17690000000000000         -9.3440487932739543E-031
 -0.17580000000000001          3.9188122854153866E-030
 -0.17470000000000002          1.3304498593228235E-029
 -0.17360000000000000         -9.0182850782656025E-030
 -0.17250000000000001         -1.1255543855112189E-028
 -0.17140000000000000         -1.2030672879829719E-028
 -0.17030000000000001          5.6686040497895342E-028
 -0.16920000000000002          1.8015732256571354E-027
 -0.16810000000000000         -1.7542478546903182E-028
 -0.16700000000000001         -1.0721540296466968E-026
 -0.16589999999999999         -1.8833651977979269E-026
 -0.16480000000000000          2.0845150219423652E-026
 -0.16370000000000001          1.3112478014057933E-025
 -0.16260000000000002          1.4039055544403067E-025
 -0.16150000000000000         -3.4078625937795679E-025
 -0.16040000000000001         -1.2282852228521559E-024
 -0.15930000000000000         -7.5932161419455841E-025
 -0.15820000000000001          3.6948667078741751E-024
 -0.15710000000000002          9.6438190443005328E-024
 -0.15600000000000000          2.8046298793688900E-024
 -0.15490000000000001         -3.1790905153789523E-023
 -0.15379999999999999         -6.7574165929142927E-023
 -0.15270000000000000         -5.6652093240101276E-024
 -0.15160000000000001          2.3138852925813338E-022
 -0.15050000000000002          4.4009734535648612E-022
 -0.14940000000000001          9.3120675349143624E-024
 -0.14830000000000002         -1.4587724911478488E-021
 -0.14720000000000000         -2.7032296749459540E-021
 -0.14610000000000001         -2.7566780936094260E-022
 -0.14500000000000002          7.9905420990423728E-021
 -0.14390000000000000          1.5530086587310082E-020
 -0.14280000000000001          4.4585156185643234E-021
 -0.14169999999999999         -3.7623996738070489E-020
 -0.14060000000000000         -8.1839362800224172E-020
 -0.13950000000000001         -4.3216574553064312E-020
 -0.13840000000000002          1.4821295553693853E-019
 -0.13730000000000001          3.8754580090724578E-019
 -0.13619999999999999          3.0826545057892511E-019
 -0.13510000000000000         -4.5705554553887837E-019
 -0.13400000000000001         -1.6182036095677140E-018
 -0.13290000000000002         -1.7576363789445260E-018
 -0.13180000000000000          8.6435074885992224E-019
 -0.13070000000000001          5.8338947564609157E-018
 -0.12959999999999999          8.3178941477198938E-018
 -0.12850000000000000          9.9458025504268096E-019
 -0.12740000000000001         -1.7558139346189491E-017
 -0.12630000000000002         -3.3209716715950410E-017
 -0.12520000000000001         -1.8777165341076239E-017
 -0.12410000000000000          4.0780804909697216E-017
 -0.12300000000000001          1.1205957371576735E-016
 -0.12190000000000001          1.0673139237040298E-016
 -0.12080000000000000         -5.3180665808340728E-017
 -0.11970000000000000         -3.1485477257929345E-016
 -0.11860000000000001         -4.3058700174501664E-016
 -0.11750000000000001         -9.5412603592807070E-017
 -0.11640000000000000          7.0192513902176518E-016
 -0.11530000000000000          1.3797354617934372E-015
 -0.11420000000000001          9.5910620584612177E-016
 -0.11310000000000001         -1.0485822135919746E-015
 -0.11200000000000000         -3.5859923327487015E-015
 -0.11090000000000001         -4.0163888314899247E-015
 -0.10980000000000001         -1.7686261351267830E-017
 -0.10870000000000000          7.3438019107161488E-015
 -0.10760000000000000          1.2154258719268562E-014
 -0.10650000000000001          6.8243805551526041E-015
 -0.10540000000000001         -1.0344040890768874E-014
 -0.10430000000000000         -2.8810240055177766E-014
 -0.10320000000000000         -2.8907191446320493E-014
 -0.10210000000000001          2.4846953413217108E-015
 -0.10100000000000001          5.2843576817942703E-014
  -9.9900000000000003E-002     8.0609930080792480E-014
  -9.8799999999999999E-002     4.1476265916782010E-014
  -9.7700000000000009E-002    -6.5671372419945362E-014
  -9.6600000000000005E-002    -1.7094089815525293E-013
  -9.5500000000000002E-002    -1.6455764431221737E-013
  -9.4400000000000012E-002     1.1777534039713634E-014
  -9.3300000000000008E-002     2.7543706248092659E-013
  -9.2200000000000004E-002     4.0992006338815001E-013
  -9.1100000000000000E-002     2.1305933363066631E-013
  -9.0000000000000011E-002    -2.9199765435444780E-013
  -8.8900000000000007E-002    -7.6609432773239172E-013
  -8.7800000000000003E-002    -7.3496802177261400E-013
  -8.6699999999999999E-002     8.8935198384854607E-015
  -8.5600000000000009E-002     1.0801845529151421E-012
  -8.4500000000000006E-002     1.6076336225787080E-012
  -8.3400000000000002E-002     8.6086389752826342E-013
  -8.2299999999999998E-002    -9.9031731166238091E-013
  -8.1200000000000008E-002    -2.6655468197273047E-012
  -8.0100000000000005E-002    -2.5402533809087968E-012
  -7.9000000000000001E-002    -4.2731192661984302E-014
  -7.7899999999999997E-002     3.4071385036221757E-012
  -7.6800000000000007E-002     4.9838883020569824E-012
  -7.5700000000000003E-002     2.5777871590776380E-012
  -7.4600000000000000E-002    -2.9911852075098500E-012
  -7.3500000000000010E-002    -7.7115154539786346E-012
  -7.2399999999999992E-002    -6.9924625985262612E-012
  -7.1300000000000002E-002     3.0454648134933815E-013
  -7.0200000000000012E-002     9.6814336061901152E-012
  -6.9099999999999995E-002     1.3288981026704505E-011
  -6.8000000000000005E-002     6.0163705614679763E-012
  -6.6900000000000015E-002    -8.9954909840428421E-012
  -6.5799999999999997E-002    -2.0630313429803593E-011
  -6.4700000000000008E-002    -1.7382357705986173E-011
  -6.3599999999999990E-002     2.4155746847220883E-012
  -6.2500000000000000E-002     2.6157961213746361E-011
  -6.1400000000000010E-002     3.3993068776494439E-011
  -6.0299999999999992E-002     1.4321789414128983E-011
  -5.9200000000000003E-002    -2.3616650302038522E-011
  -5.8100000000000013E-002    -5.2012196632977847E-011
  -5.6999999999999995E-002    -4.3656789988633093E-011
  -5.5900000000000005E-002     4.2525093689460558E-012
  -5.4800000000000015E-002     6.1233539072613752E-011
  -5.3699999999999998E-002     8.1143876340394883E-011
  -5.2600000000000008E-002     3.7797698998476292E-011
  -5.1499999999999990E-002    -4.7656073531854304E-011
  -5.0400000000000000E-002    -1.1319233050866018E-010
  -4.9300000000000010E-002    -9.8906549617083783E-011
  -4.8199999999999993E-002     1.4915336760817910E-012
  -4.7100000000000003E-002     1.2271433869059933E-010
  -4.6000000000000013E-002     1.6674506220226704E-010
  -4.4899999999999995E-002     7.8692670435476231E-011
  -4.3800000000000006E-002    -9.6391804260687053E-011
  -4.2699999999999988E-002    -2.2862672865997524E-010
  -4.1599999999999998E-002    -1.9425977493270352E-010
  -4.0500000000000008E-002     1.7242471339606880E-011
  -3.9399999999999991E-002     2.6725865964749573E-010
  -3.8300000000000001E-002     3.5035965795238155E-010
  -3.7200000000000011E-002     1.5278607545798906E-010
  -3.6099999999999993E-002    -2.2911332553388064E-010
  -3.5000000000000003E-002    -5.1950960200386476E-010
  -3.3900000000000013E-002    -4.5137887871860016E-010
  -3.2799999999999996E-002     8.9720895643519150E-012
  -3.1700000000000006E-002     5.7972471267930814E-010
  -3.0599999999999988E-002     8.2315054772408303E-010
  -2.9499999999999998E-002     4.6792847374632629E-010
  -2.8400000000000009E-002    -3.3537012056328308E-010
  -2.7299999999999991E-002    -1.0474758838086018E-009
  -2.6200000000000001E-002    -1.0930386595831010E-009
  -2.5100000000000011E-002    -3.1014202317436457E-010
  -2.3999999999999994E-002     8.4578061221307621E-010
  -2.2900000000000004E-002     1.5505240424928957E-009
  -2.1800000000000014E-002     1.1926544196683153E-009
  -2.0699999999999996E-002    -1.1715522996169625E-010
  -1.9600000000000006E-002    -1.5217529458766421E-009
  -1.8499999999999989E-002    -1.9700807651901187E-009
  -1.7399999999999999E-002    -9.9692765154202334E-010
  -1.6300000000000009E-002     8.4669254940550331E-010
  -1.5199999999999991E-002     2.2901536222974528E-009
  -1.4100000000000001E-002     2.2222599316279457E-009
  -1.3000000000000012E-002     5.3825438550703097E-010
  -1.1899999999999994E-002    -1.6975173489086615E-009
  -1.0800000000000004E-002    -2.9539681811741048E-009
  -9.6999999999999864E-003    -2.3241082391933787E-009
  -8.5999999999999965E-003    -1.9290469221999729E-010
  -7.5000000000000067E-003     2.0440902304130759E-009
  -6.3999999999999890E-003     3.0115678839592874E-009
  -5.2999999999999992E-003     2.3282484828968109E-009
  -4.2000000000000093E-003     7.4352601853178157E-010
  -3.0999999999999917E-003    -6.5377669944410854E-010
  -2.0000000000000018E-003    -1.4308788598427213E-009
  -9.0000000000001190E-004    -2.0585801951966687E-009
   2.0000000000000573E-004    -3.0995923605559028E-009
   1.2999999999999956E-003    -4.0727128336470741E-009
   2.4000000000000132E-003    -3.2565965479847137E-009
   3.5000000000000031E-003     9.2291552178380698E-010
   4.5999999999999930E-003     7.7447799284868779E-009
   5.7000000000000106E-003     1.3244117802457822E-008
   6.8000000000000005E-003     1.2039493846316418E-008
   7.8999999999999904E-003     1.4781803558960860E-009
   9.0000000000000080E-003    -1.4707052464757453E-008
   1.0099999999999998E-002    -2.6681233222802803E-008
   1.1199999999999988E-002    -2.4010232024807010E-008
   1.2300000000000005E-002    -3.6743155185092746E-009
   1.3399999999999995E-002     2.5088658262006902E-008
   1.4500000000000013E-002     4.3976520203159453E-008
   1.5600000000000003E-002     3.6731378827425942E-008
   1.6699999999999993E-002     1.7906123250810424E-009
   1.7800000000000010E-002    -4.2757509532975746E-008
   1.8900000000000000E-002    -6.7558652006027842E-008
   1.9999999999999990E-002    -5.0600053924654276E-008
   2.1100000000000008E-002     5.4222351053567763E-009
   2.2199999999999998E-002     6.9935566671119886E-008
   2.3300000000000015E-002     1.0062554167689086E-007
   2.4400000000000005E-002     7.0851520206360874E-008
   2.5499999999999995E-002    -9.2948084784438834E-009
   2.6600000000000013E-002    -9.4340897760503140E-008
   2.7700000000000002E-002    -1.2975748120425123E-007
   2.8799999999999992E-002    -8.8350653015822900E-008
   2.9900000000000010E-002     7.5934583065873085E-009
   3.1000000000000000E-002     9.6113467407121789E-008
   3.2099999999999990E-002     1.1485115436471460E-007
   3.3200000000000007E-002     4.6075619763996656E-008
   3.4299999999999997E-002    -6.3698848862259183E-008
   3.5400000000000015E-002    -1.2723164388717123E-007
   3.6500000000000005E-002    -7.3382608434258145E-008
   3.7599999999999995E-002     9.6985687036976742E-008
   3.8700000000000012E-002     2.9448153782141162E-007
   3.9800000000000002E-002     3.8143608094287629E-007
   4.0899999999999992E-002     2.5138618298115034E-007
   4.2000000000000010E-002    -9.7059448478375998E-008
   4.3099999999999999E-002    -5.3823526968699298E-007
   4.4200000000000017E-002    -8.6833824752829969E-007
   4.5300000000000007E-002    -9.0357610815772205E-007
   4.6399999999999997E-002    -5.7597884506321861E-007
   4.7500000000000014E-002     2.5558909655387652E-008
   4.8600000000000004E-002     6.9228053689585067E-007
   4.9699999999999994E-002     1.1915889217561926E-006
   5.0800000000000012E-002     1.3718075706492527E-006
   5.1900000000000002E-002     1.2223179055581568E-006
   5.2999999999999992E-002     8.6122344100658665E-007
   5.4099999999999981E-002     4.6163626166162430E-007
   5.5200000000000027E-002     1.5883013304573979E-007
   5.6300000000000017E-002    -1.1740678651506187E-008
   5.7400000000000007E-002    -1.1370610764060984E-007
   5.8499999999999996E-002    -2.4852317892509745E-007
   5.9599999999999986E-002    -4.6896983008082316E-007
   6.0700000000000032E-002    -7.1870732654133462E-007
   6.1800000000000022E-002    -8.3927147898066323E-007
   6.2900000000000011E-002    -6.5179290231753839E-007
   6.4000000000000001E-002    -7.7061784509169229E-008
   6.5099999999999991E-002     7.7392081720972783E-007
   6.6199999999999981E-002     1.6040143009377061E-006
   6.7300000000000026E-002     2.0503537143667927E-006
   6.8400000000000016E-002     1.8744677845461410E-006
   6.9500000000000006E-002     1.1202342875549220E-006
   7.0599999999999996E-002     1.3499743545253295E-007
   7.1699999999999986E-002    -5.8611510667105904E-007
   7.2800000000000031E-002    -6.6695912437353400E-007
   7.3900000000000021E-002    -7.8525573599108611E-008
   7.5000000000000011E-002     8.2284003610766376E-007
   7.6100000000000001E-002     1.4987339227445773E-006
   7.7199999999999991E-002     1.5727553090982838E-006
   7.8299999999999981E-002     1.1041913694498362E-006
   7.9400000000000026E-002     5.9453196854519774E-007
   8.0500000000000016E-002     6.8264660058048321E-007
   8.1600000000000006E-002     1.6915204241740867E-006
   8.2699999999999996E-002     3.3185551728820428E-006
   8.3799999999999986E-002     4.7110547711781692E-006
   8.4900000000000031E-002     4.9419609240430873E-006
   8.6000000000000021E-002     3.6308663311501732E-006
   8.7100000000000011E-002     1.3147449635653174E-006
   8.8200000000000001E-002    -7.1930344347492792E-007
   8.9299999999999990E-002    -1.1135665545225493E-006
   9.0399999999999980E-002     7.3480947548887343E-007
   9.1500000000000026E-002     4.2105971260752995E-006
   9.2600000000000016E-002     7.7127715485403314E-006
   9.3700000000000006E-002     9.5111572591122240E-006
   9.4799999999999995E-002     8.7536409409949556E-006
   9.5899999999999985E-002     6.0187030612723902E-006
   9.7000000000000031E-002     3.0475964649667731E-006
   9.8100000000000021E-002     1.7745616105457884E-006
   9.9200000000000010E-002     3.2106572689372115E-006
  0.10030000000000000          6.8457984525593929E-006
  0.10139999999999999          1.0938858395093121E-005
  0.10249999999999998          1.3531043805414811E-005
  0.10360000000000003          1.3585300621343777E-005
  0.10470000000000002          1.1573157280508894E-005
  0.10580000000000001          9.1751408035634086E-006
  0.10690000000000000          8.2876622400362976E-006
  0.10799999999999998          9.9374474302749150E-006
  0.10910000000000003          1.3740403119300026E-005
  0.11020000000000002          1.8186439774581231E-005
  0.11130000000000001          2.1542193280765787E-005
  0.11240000000000000          2.2812177121522836E-005
  0.11349999999999999          2.2212541807675734E-005
  0.11460000000000004          2.0931043763994239E-005
  0.11570000000000003          2.0388339180499315E-005
  0.11680000000000001          2.1469197236001492E-005
  0.11790000000000000          2.4158332962542772E-005
  0.11899999999999999          2.7728607165045105E-005
  0.12009999999999998          3.1289710022974759E-005
  0.12120000000000003          3.4325021260883659E-005
  0.12230000000000002          3.6899153201375157E-005
  0.12340000000000001          3.9462527638534084E-005
  0.12450000000000000          4.2428655433468521E-005
  0.12559999999999999          4.5822136598872021E-005
  0.12670000000000003          4.9228012358071283E-005
  0.12780000000000002          5.2064817282371223E-005
  0.12890000000000001          5.4028907470637932E-005
  0.13000000000000000          5.5410873756045476E-005
  0.13109999999999999          5.7101460697595030E-005
  0.13219999999999998          6.0215752455405891E-005
  0.13330000000000003          6.5504136728122830E-005
  0.13440000000000002          7.2852883022278547E-005
  0.13550000000000001          8.1158439570572227E-005
  0.13660000000000000          8.8738546764943749E-005
  0.13769999999999999          9.4121511210687459E-005
  0.13880000000000003          9.6889853011816740E-005
  0.13990000000000002          9.8059579613618553E-005
  0.14100000000000001          9.9740420409943908E-005
  0.14210000000000000          1.0414003190817311E-004
  0.14319999999999999          1.1235671991016716E-004
  0.14429999999999998          1.2368314492050558E-004
  0.14540000000000003          1.3582648534793407E-004
  0.14650000000000002          1.4602980809286237E-004
  0.14760000000000001          1.5256459300871938E-004
  0.14870000000000000          1.5571874973829836E-004
  0.14979999999999999          1.5772634651511908E-004
  0.15090000000000003          1.6162525571417063E-004
  0.15200000000000002          1.6967262490652502E-004
  0.15310000000000001          1.8216528405901045E-004
  0.15420000000000000          1.9730979693122208E-004
  0.15529999999999999          2.1225718955975026E-004
  0.15639999999999998          2.2457758313976228E-004
  0.15750000000000003          2.3342983331531286E-004
  0.15860000000000002          2.3978257377166301E-004
  0.15970000000000001          2.4570195819251239E-004
  0.16080000000000000          2.5318330153822899E-004
  0.16189999999999999          2.6324210921302438E-004
  0.16300000000000003          2.7576155844144523E-004
  0.16410000000000002          2.8983849915675819E-004
  0.16520000000000001          3.0443517607636750E-004
  0.16630000000000000          3.1883901101537049E-004
  0.16739999999999999          3.3268745755776763E-004
  0.16850000000000004          3.4581564250402153E-004
  0.16960000000000003          3.5806428059004247E-004
  0.17070000000000002          3.6936302785761654E-004
  0.17180000000000001          3.8009931449778378E-004
  0.17290000000000000          3.9103659219108522E-004
  0.17399999999999999          4.0314800571650267E-004
  0.17510000000000003          4.1714540566317737E-004
  0.17620000000000002          4.3289337190799415E-004
  0.17730000000000001          4.4942350359633565E-004
  0.17840000000000000          4.6543910866603255E-004
  0.17949999999999999          4.7983662807382643E-004
  0.18060000000000004          4.9243652028962970E-004
  0.18170000000000003          5.0377735169604421E-004
  0.18280000000000002          5.1487941527739167E-004
  0.18390000000000001          5.2665919065475464E-004
  0.18500000000000000          5.3941144142299891E-004
  0.18609999999999999          5.5301282554864883E-004
  0.18720000000000003          5.6702783331274986E-004
  0.18830000000000002          5.8106816140934825E-004
  0.18940000000000001          5.9495749883353710E-004
  0.19050000000000000          6.0847343411296606E-004
  0.19159999999999999          6.2116689514368773E-004
  0.19270000000000004          6.3241453608497977E-004
  0.19380000000000003          6.4189353724941611E-004
  0.19490000000000002          6.4981274772435427E-004
  0.19600000000000001          6.5710529452189803E-004
  0.19710000000000000          6.6484365379437804E-004
  0.19819999999999999          6.7373306956142187E-004
  0.19930000000000003          6.8369763903319836E-004
  0.20040000000000002          6.9392443401739001E-004
  0.20150000000000001          7.0324609987437725E-004
  0.20260000000000000          7.1070773992687464E-004
  0.20369999999999999          7.1589346043765545E-004
  0.20480000000000004          7.1899947943165898E-004
  0.20590000000000003          7.2086037835106254E-004
  0.20700000000000002          7.2244729381054640E-004
  0.20810000000000001          7.2408030973747373E-004
  0.20920000000000000          7.2562292916700244E-004
  0.21029999999999999          7.2671339148655534E-004
  0.21140000000000003          7.2692951653152704E-004
  0.21250000000000002          7.2612566873431206E-004
  0.21360000000000001          7.2450441075488925E-004
  0.21470000000000000          7.2205124888569117E-004
  0.21579999999999999          7.1862147888168693E-004
  0.21690000000000004          7.1346381446346641E-004
  0.21800000000000003          7.0635479642078280E-004
  0.21910000000000002          6.9752777926623821E-004
  0.22020000000000001          6.8740587448701262E-004
  0.22130000000000000          6.7684269743040204E-004
  0.22239999999999999          6.6648214124143124E-004
  0.22350000000000003          6.5618660300970078E-004
  0.22460000000000002          6.4569216920062900E-004
  0.22570000000000001          6.3434056937694550E-004
  0.22680000000000000          6.2153494218364358E-004
  0.22789999999999999          6.0720479814335704E-004
  0.22900000000000004          5.9096311451867223E-004
  0.23010000000000003          5.7264172937721014E-004
  0.23120000000000002          5.5243045790120959E-004
  0.23230000000000001          5.3085928084328771E-004
  0.23340000000000000          5.0943822134286165E-004
  0.23450000000000004          4.8915826482698321E-004
  0.23560000000000003          4.7030340647324920E-004
  0.23670000000000002          4.5203987974673510E-004
  0.23780000000000001          4.3266956345178187E-004
  0.23890000000000000          4.1137871448881924E-004
  0.23999999999999999          3.8731005042791367E-004
  0.24110000000000004          3.6155595444142818E-004
  0.24220000000000003          3.3510013599880040E-004
  0.24330000000000002          3.0874923686496913E-004
  0.24440000000000001          2.8202217072248459E-004
  0.24550000000000000          2.5579603970982134E-004
  0.24660000000000004          2.3009437427390367E-004
  0.24770000000000003          2.0617763220798224E-004
  0.24880000000000002          1.8329714657738805E-004
  0.24990000000000001          1.6031536506488919E-004
  0.25100000000000000          1.3622321421280503E-004
  0.25209999999999999          1.1083259596489370E-004
  0.25320000000000004          8.3886705397162586E-005
  0.25430000000000003          5.6090848374878988E-005
  0.25540000000000002          2.7875430532731116E-005
  0.25650000000000001          8.4273716538518784E-007
  0.25760000000000000         -2.4549692170694470E-005
  0.25870000000000004         -4.7938363422872499E-005
  0.25980000000000003         -6.9211142545100302E-005
  0.26090000000000002         -8.9567045506555587E-005
  0.26200000000000001         -1.1023037950508296E-004
  0.26310000000000000         -1.3161529204808176E-004
  0.26419999999999999         -1.5293870819732547E-004
  0.26530000000000004         -1.7396554176229984E-004
  0.26640000000000003         -1.9403029000386596E-004
  0.26750000000000002         -2.1304974507074803E-004
  0.26860000000000001         -2.3149049957282841E-004
  0.26970000000000000         -2.4941764422692358E-004
  0.27080000000000004         -2.6725619682110846E-004
  0.27190000000000003         -2.8381615993566811E-004
  0.27300000000000002         -2.9772130073979497E-004
  0.27410000000000001         -3.0922846053726971E-004
  0.27520000000000000         -3.1846240744926035E-004
  0.27629999999999999         -3.2645394094288349E-004
  0.27740000000000004         -3.3523034653626382E-004
  0.27850000000000003         -3.4446068457327783E-004
  0.27960000000000002         -3.5474350443109870E-004
  0.28070000000000001         -3.6419808748178184E-004
  0.28179999999999999         -3.7171761505305767E-004
  0.28290000000000004         -3.7825695471838117E-004
  0.28400000000000003         -3.8330614916048944E-004
  0.28510000000000002         -3.8576565566472709E-004
  0.28620000000000001         -3.8528098957613111E-004
  0.28730000000000000         -3.8128611049614847E-004
  0.28840000000000005         -3.7680478999391198E-004
  0.28950000000000004         -3.7405593320727348E-004
  0.29060000000000002         -3.7261642864905298E-004
  0.29170000000000001         -3.7208112189546227E-004
  0.29280000000000000         -3.7115879240445793E-004
  0.29389999999999999         -3.6762870149686933E-004
  0.29500000000000004         -3.6174041451886296E-004
  0.29610000000000003         -3.5411416320130229E-004
  0.29720000000000002         -3.4623837564140558E-004
  0.29830000000000001         -3.3845481812022626E-004
  0.29940000000000000         -3.2925885170698166E-004
  0.30050000000000004         -3.1669193413108587E-004
  0.30160000000000003         -3.0336005147546530E-004
  0.30270000000000002         -2.9109153547324240E-004
  0.30380000000000001         -2.8139102505519986E-004
  0.30490000000000000         -2.7215346926823258E-004
  0.30599999999999999         -2.6169701595790684E-004
  0.30709999999999998         -2.4826929438859224E-004
  0.30819999999999997         -2.3290650278795511E-004
  0.30930000000000007         -2.1849678887519985E-004
  0.31040000000000006         -2.0609083003364503E-004
  0.31150000000000005         -1.9495801825542003E-004
  0.31260000000000004         -1.8171113333664834E-004
  0.31370000000000003         -1.6549657448194921E-004
  0.31480000000000002         -1.4842844393569976E-004
  0.31590000000000001         -1.3295897224452347E-004
  0.31700000000000000         -1.1898146476596594E-004
  0.31809999999999999         -1.0562607349129394E-004
  0.31919999999999998         -9.0843808720819652E-005
  0.32029999999999997         -7.5875279435422271E-005
  0.32140000000000007         -6.3082312408369035E-005
  0.32250000000000006         -5.3410727559821680E-005
  0.32360000000000005         -4.4023068767273799E-005
  0.32470000000000004         -3.0823201086604968E-005
  0.32580000000000003         -1.3301140825205948E-005
  0.32690000000000002          5.4434308367490303E-006
  0.32800000000000001          2.0639827198465355E-005
  0.32910000000000000          2.9893659302615561E-005
  0.33019999999999999          3.4563072404125705E-005
  0.33129999999999998          4.1509327274980024E-005
  0.33239999999999997          5.3280520660337061E-005
  0.33350000000000007          6.7552799009718001E-005
  0.33460000000000006          7.9296863987110555E-005
  0.33570000000000005          8.5505271272268146E-005
  0.33680000000000004          8.8387940195389092E-005
  0.33790000000000003          9.2778849648311734E-005
  0.33900000000000002          1.0242692223982885E-004
  0.34010000000000001          1.1370803258614615E-004
  0.34120000000000000          1.2164169311290607E-004
  0.34229999999999999          1.2375577352941036E-004
  0.34339999999999998          1.2208838597871363E-004
  0.34449999999999997          1.2145723303547129E-004
  0.34560000000000007          1.2394203804433346E-004
  0.34670000000000006          1.2926069030072540E-004
  0.34780000000000005          1.3318321725819260E-004
  0.34890000000000004          1.3287758338265121E-004
