 -0.20000000000000001          0.0000000000000000
 -0.19890000000000002          0.0000000000000000
 -0.19780000000000000          0.0000000000000000
 -0.19670000000000001          0.0000000000000000
 -0.19560000000000002          0.0000000000000000
 -0.19450000000000001          0.0000000000000000
 -0.19340000000000002          0.0000000000000000
 -0.19230000000000000          0.0000000000000000
 -0.19120000000000001          0.0000000000000000
 -0.19010000000000002          0.0000000000000000
 -0.18900000000000000          0.0000000000000000
 -0.18790000000000001          4.4274259334455585E-030
 -0.18680000000000002         -6.8831737136241159E-029
 -0.18570000000000000         -1.0123645937846644E-027
 -0.18460000000000001         -4.7552843515513694E-027
 -0.18350000000000000         -7.5071632192846709E-027
 -0.18240000000000001          2.2820784563815633E-026
 -0.18130000000000002          1.4766921477913357E-025
 -0.18020000000000000          3.0773582241807454E-025
 -0.17910000000000001         -1.3352669519663011E-026
 -0.17800000000000002         -1.7114284090658749E-024
 -0.17690000000000000         -4.3238933496447368E-024
 -0.17580000000000001         -3.0239549046952248E-024
 -0.17470000000000002          9.9933570005167213E-024
 -0.17360000000000000          3.1770378993035672E-023
 -0.17250000000000001          2.9770168525306242E-023
 -0.17140000000000000         -4.2893970933481461E-023
 -0.17030000000000001         -1.6008864269339127E-022
 -0.16920000000000002         -1.2933936210063006E-022
 -0.16810000000000000          2.8233781133031626E-022
 -0.16700000000000001          8.5025483189606572E-022
 -0.16589999999999999          4.5817753243317237E-022
 -0.16480000000000000         -2.1118999442890670E-021
 -0.16370000000000001         -5.5469520187455616E-021
 -0.16260000000000002         -3.8014333090935319E-021
 -0.16150000000000000          1.0202284924309221E-020
 -0.16040000000000001          3.2047267832860152E-020
 -0.15930000000000000          3.4019734933455399E-020
 -0.15820000000000001         -2.2568007426375467E-020
 -0.15710000000000002         -1.3590290535971265E-019
 -0.15600000000000000         -2.0516304824150737E-019
 -0.15490000000000001         -5.3866663880178058E-020
 -0.15379999999999999          3.9286415865565547E-019
 -0.15270000000000000          8.6013936556626164E-019
 -0.15160000000000001          6.9912085281578383E-019
 -0.15050000000000002         -6.1399812582100113E-019
 -0.14940000000000001         -2.5967389388711273E-018
 -0.14830000000000002         -3.3416833228756643E-018
 -0.14720000000000000         -6.1946341152571555E-019
 -0.14610000000000001          5.5016924050147194E-018
 -0.14500000000000002          1.0591804552641429E-017
 -0.14390000000000000          7.5668745357064610E-018
 -0.14280000000000001         -6.7552945495061835E-018
 -0.14169999999999999         -2.4545621839278085E-017
 -0.14060000000000000         -2.7795779902121441E-017
 -0.13950000000000001         -2.2343395319830701E-018
 -0.13840000000000002          4.2965881907094843E-017
 -0.13730000000000001          6.9522551869056749E-017
 -0.13619999999999999          3.5218667108600796E-017
 -0.13510000000000000         -5.9146444587305873E-017
 -0.13400000000000001         -1.4261235652569538E-016
 -0.13290000000000002         -1.1213932716170726E-016
 -0.13180000000000000          6.7050638413727783E-017
 -0.13070000000000001          2.7774014464099456E-016
 -0.12959999999999999          2.9239090295273776E-016
 -0.12850000000000000         -3.0929325350929522E-017
 -0.12740000000000001         -5.3165214074498237E-016
 -0.12630000000000002         -7.4572775382312682E-016
 -0.12520000000000001         -2.4861192566456045E-016
 -0.12410000000000000          8.4648237583858504E-016
 -0.12300000000000001          1.7034377846743775E-015
 -0.12190000000000001          1.2670330694800427E-015
 -0.12080000000000000         -7.2605393131548799E-016
 -0.11970000000000000         -3.0557564840310875E-015
 -0.11860000000000001         -3.5430011755108095E-015
 -0.11750000000000001         -8.2576882038819157E-016
 -0.11640000000000000          3.8809313225650170E-015
 -0.11530000000000000          6.8675127433762140E-015
 -0.11420000000000001          4.5721538297213097E-015
 -0.11310000000000001         -2.8303510641295880E-015
 -0.11200000000000000         -1.0139009789622393E-014
 -0.11090000000000001         -1.0339082359895647E-014
 -0.10980000000000001         -8.1739574088590520E-016
 -0.10870000000000000          1.2507686604642208E-014
 -0.10760000000000000          1.8003846230150132E-014
 -0.10650000000000001          7.7491537627894305E-015
 -0.10540000000000001         -1.3472201327614786E-014
 -0.10430000000000000         -2.8611661651023468E-014
 -0.10320000000000000         -2.0926521556189834E-014
 -0.10210000000000001          9.6822006860034122E-015
 -0.10100000000000001          4.1278541321838544E-014
  -9.9900000000000003E-002     4.4074617409515723E-014
  -9.8799999999999999E-002     6.4558301670551536E-015
  -9.7700000000000009E-002    -4.8601029342502933E-014
  -9.6600000000000005E-002    -7.5145205542023058E-014
  -9.5500000000000002E-002    -4.0764676925925461E-014
  -9.4400000000000012E-002     3.9620457386929306E-014
  -9.3300000000000008E-002     1.0505214319972422E-013
  -9.2200000000000004E-002     9.2696920831521895E-014
  -9.1100000000000000E-002    -5.3677701830113795E-015
  -9.0000000000000011E-002    -1.2194568000788858E-013
  -8.8900000000000007E-002    -1.5798798901067723E-013
  -8.7800000000000003E-002    -6.4087962909666063E-014
  -8.6699999999999999E-002     1.0526751996128847E-013
  -8.5600000000000009E-002     2.1895428992026872E-013
  -8.4500000000000006E-002     1.6950724407004819E-013
  -8.3400000000000002E-002    -2.9074781997132440E-014
  -8.2299999999999998E-002    -2.3294631197948168E-013
  -8.1200000000000008E-002    -2.7194872330611741E-013
  -8.0100000000000005E-002    -9.2260746297530977E-014
  -7.9000000000000001E-002     1.8060065162112116E-013
  -7.7899999999999997E-002     3.2522544228009986E-013
  -7.6800000000000007E-002     2.0253320776129208E-013
  -7.5700000000000003E-002    -1.1284248817473863E-013
  -7.4600000000000000E-002    -3.6817440372469146E-013
  -7.3500000000000010E-002    -3.2674430110353481E-013
  -7.2399999999999992E-002     2.5636712533676914E-014
  -7.1300000000000002E-002     4.3644978581745819E-013
  -7.0200000000000012E-002     5.6229603221866209E-013
  -6.9099999999999995E-002     2.4355991941164834E-013
  -6.8000000000000005E-002    -3.3902898934415338E-013
  -6.6900000000000015E-002    -7.6754222552363749E-013
  -6.5799999999999997E-002    -6.9237269997163287E-013
  -6.4700000000000008E-002    -1.1373668391649605E-013
  -6.3599999999999990E-002     5.8663469047759431E-013
  -6.2500000000000000E-002     9.0818672027204173E-013
  -6.1400000000000010E-002     6.0475929819503449E-013
  -6.0299999999999992E-002    -1.1352643678646038E-013
  -5.9200000000000003E-002    -7.1592894373279092E-013
  -5.8100000000000013E-002    -7.4049501339740198E-013
  -5.6999999999999995E-002    -1.5437674196708967E-013
  -5.5900000000000005E-002     5.9250515735062570E-013
  -5.4800000000000015E-002     8.8281286577882034E-013
  -5.3699999999999998E-002     4.0345133375634112E-013
  -5.2600000000000008E-002    -5.7346949454764595E-013
  -5.1499999999999990E-002    -1.3327875044918946E-012
  -5.0400000000000000E-002    -1.2166629466056622E-012
  -4.9300000000000010E-002    -1.4178168730206997E-013
  -4.8199999999999993E-002     1.2576867715677342E-012
  -4.7100000000000003E-002     2.0143851864329321E-012
  -4.6000000000000013E-002     1.5108318242307295E-012
  -4.4899999999999995E-002    -2.2514442363946209E-014
  -4.3800000000000006E-002    -1.5956581759027366E-012
  -4.2699999999999988E-002    -2.1322691876046740E-012
  -4.1599999999999998E-002    -1.2708875835390487E-012
  -4.0500000000000008E-002     3.1825190811678172E-013
  -3.9399999999999991E-002     1.4020127290029216E-012
  -3.8300000000000001E-002     1.1457282605292773E-012
  -3.7200000000000011E-002    -1.6086535315623651E-013
  -3.6099999999999993E-002    -1.2386447119719368E-012
  -3.5000000000000003E-002    -8.1094516952290308E-013
  -3.3900000000000013E-002     1.2598133257088473E-012
  -3.2799999999999996E-002     3.6141712452669728E-012
  -3.1700000000000006E-002     4.2179601825176327E-012
  -3.0599999999999988E-002     1.8543530426462507E-012
  -2.9499999999999998E-002    -2.8224839999924090E-012
  -2.8400000000000009E-002    -7.5436618757196428E-012
  -2.7299999999999991E-002    -9.9080058393874459E-012
  -2.6200000000000001E-002    -9.0448013662092208E-012
  -2.5100000000000011E-002    -6.2121562234562777E-012
  -2.3999999999999994E-002    -3.8532918175682163E-012
  -2.2900000000000004E-002    -3.8038838572063138E-012
  -2.1800000000000014E-002    -6.0093371251346284E-012
  -2.0699999999999996E-002    -8.7339458582080809E-012
  -1.9600000000000006E-002    -1.0096690844507705E-011
  -1.8499999999999989E-002    -9.7333746965078127E-012
  -1.7399999999999999E-002    -9.2664539236286814E-012
  -1.6300000000000009E-002    -1.1161941163018163E-011
  -1.5199999999999991E-002    -1.6787854092981114E-011
  -1.4100000000000001E-002    -2.5128751510172798E-011
  -1.3000000000000012E-002    -3.3174837876792651E-011
  -1.1899999999999994E-002    -3.7808565306329811E-011
  -1.0800000000000004E-002    -3.7919882511783243E-011
  -9.6999999999999864E-003    -3.5273509807476344E-011
  -8.5999999999999965E-003    -3.3480208189162752E-011
  -7.5000000000000067E-003    -3.5724131985936936E-011
  -6.3999999999999890E-003    -4.2778777048502192E-011
  -5.2999999999999992E-003    -5.2686452423067465E-011
  -4.2000000000000093E-003    -6.2349944651707290E-011
  -3.0999999999999917E-003    -6.9929284585157347E-011
  -2.0000000000000018E-003    -7.6298106721495174E-011
  -9.0000000000001190E-004    -8.4409319811573624E-011
   2.0000000000000573E-004    -9.6923136183590941E-011
   1.2999999999999956E-003    -1.1382535886061973E-010
   2.4000000000000132E-003    -1.3194746684153102E-010
   3.5000000000000031E-003    -1.4701148631779404E-010
   4.5999999999999930E-003    -1.5689902155280322E-010
   5.7000000000000106E-003    -1.6372928013375088E-010
   6.8000000000000005E-003    -1.7300273713605208E-010
   7.8999999999999904E-003    -1.9018089880695754E-010
   9.0000000000000080E-003    -2.1708398967312803E-010
   1.0099999999999998E-002    -2.5078752963203499E-010
   1.1199999999999988E-002    -2.8592017642381506E-010
   1.2300000000000005E-002    -3.1869426542208146E-010
   1.3399999999999995E-002    -3.4963848483116067E-010
   1.4500000000000013E-002    -3.8297454096891670E-010
   1.5600000000000003E-002    -4.2317785386991602E-010
   1.6699999999999993E-002    -4.7145098935885699E-010
   1.7800000000000010E-002    -5.2489351753948199E-010
   1.8900000000000000E-002    -5.7902760364214600E-010
   1.9999999999999990E-002    -6.3172606035166723E-010
   2.1100000000000008E-002    -6.8552385990017228E-010
   2.2199999999999998E-002    -7.4654482595803984E-010
   2.3300000000000015E-002    -8.2081574870329632E-010
   2.4400000000000005E-002    -9.1061058693497898E-010
   2.5499999999999995E-002    -1.0133575090165436E-009
   2.6600000000000013E-002    -1.1237634156557874E-009
   2.7700000000000002E-002    -1.2376160096749800E-009
   2.8799999999999992E-002    -1.3547107879929854E-009
   2.9900000000000010E-002    -1.4790733082747920E-009
   3.1000000000000000E-002    -1.6164748428693088E-009
   3.2099999999999990E-002    -1.7709762545337071E-009
   3.3200000000000007E-002    -1.9428199049542627E-009
   3.4299999999999997E-002    -2.1291148843971541E-009
   3.5400000000000015E-002    -2.3269173254902853E-009
   3.6500000000000005E-002    -2.5366193590059538E-009
   3.7599999999999995E-002    -2.7631450461029772E-009
   3.8700000000000012E-002    -3.0138118667366598E-009
   3.9800000000000002E-002    -3.2941127603436371E-009
   4.0899999999999992E-002    -3.6044487394804037E-009
   4.2000000000000010E-002    -3.9404817187005392E-009
   4.3099999999999999E-002    -4.2972332359170196E-009
   4.4200000000000017E-002    -4.6740611381324015E-009
   4.5300000000000007E-002    -5.0766728598716782E-009
   4.6399999999999997E-002    -5.5143933863632810E-009
   4.7500000000000014E-002    -5.9946287933598796E-009
   4.8600000000000004E-002    -6.5188703324281505E-009
   4.9699999999999994E-002    -7.0835071142028028E-009
   5.0800000000000012E-002    -7.6848847285759803E-009
   5.1900000000000002E-002    -8.3245819126887000E-009
   5.2999999999999992E-002    -9.0106571093429011E-009
   5.4099999999999981E-002    -9.7539381016531479E-009
   5.5200000000000027E-002    -1.0562431818073037E-008
   5.6300000000000017E-002    -1.1438300973054538E-008
   5.7400000000000007E-002    -1.2379540059725969E-008
   5.8499999999999996E-002    -1.3384620523027024E-008
   5.9599999999999986E-002    -1.4456281505204061E-008
   6.0700000000000032E-002    -1.5601786529373385E-008
   6.1800000000000022E-002    -1.6830151494673373E-008
   6.2900000000000011E-002    -1.8148972102949301E-008
   6.4000000000000001E-002    -1.9563186626214701E-008
   6.5099999999999991E-002    -2.1076091982763501E-008
   6.6199999999999981E-002    -2.2691230228133463E-008
   6.7300000000000026E-002    -2.4413782995225120E-008
   6.8400000000000016E-002    -2.6251063545146280E-008
   6.9500000000000006E-002    -2.8212289393536594E-008
   7.0599999999999996E-002    -3.0307674592222611E-008
   7.1699999999999986E-002    -3.2546708439440408E-008
   7.2800000000000031E-002    -3.4936221027237480E-008
   7.3900000000000021E-002    -3.7479811254570450E-008
   7.5000000000000011E-002    -4.0179880755886188E-008
   7.6100000000000001E-002    -4.3041556097023204E-008
   7.7199999999999991E-002    -4.6075534498868365E-008
   7.8299999999999981E-002    -4.9297010917825901E-008
   7.9400000000000026E-002    -5.2720906751346774E-008
   8.0500000000000016E-002    -5.6357212230295772E-008
   8.1600000000000006E-002    -6.0210844310404354E-008
   8.2699999999999996E-002    -6.4286723500117660E-008
   8.3799999999999986E-002    -6.8595696234297066E-008
   8.4900000000000031E-002    -7.3155867141849740E-008
   8.6000000000000021E-002    -7.7987230895359971E-008
   8.7100000000000011E-002    -8.3104232828645763E-008
   8.8200000000000001E-002    -8.8513012030944083E-008
   8.9299999999999990E-002    -9.4216183299522527E-008
   9.0399999999999980E-002    -1.0022133523079901E-007
   9.1500000000000026E-002    -1.0654573401325251E-007
   9.2600000000000016E-002    -1.1321296256028290E-007
   9.3700000000000006E-002    -1.2024487716644217E-007
   9.4799999999999995E-002    -1.2765617896093318E-007
   9.5899999999999985E-002    -1.3545643184897926E-007
   9.7000000000000031E-002    -1.4365674871896772E-007
   9.8100000000000021E-002    -1.5227418259655678E-007
   9.9200000000000010E-002    -1.6132956659475894E-007
  0.10030000000000000         -1.7084127534872096E-007
  0.10139999999999999         -1.8082185704315634E-007
  0.10249999999999998         -1.9128135875234875E-007
  0.10360000000000003         -2.0223401975272282E-007
  0.10470000000000002         -2.1370135527831735E-007
  0.10580000000000001         -2.2570802116206323E-007
  0.10690000000000000         -2.3827456629987864E-007
  0.10799999999999998         -2.5141443416032416E-007
  0.10910000000000003         -2.6513887974033423E-007
  0.11020000000000002         -2.7946450131821621E-007
  0.11130000000000001         -2.9441591209433682E-007
  0.11240000000000000         -3.1001954425846634E-007
  0.11349999999999999         -3.2629532142891549E-007
  0.11460000000000004         -3.4325404385526781E-007
  0.11570000000000003         -3.6090486332795990E-007
  0.11680000000000001         -3.7926463392068399E-007
  0.11790000000000000         -3.9836029941398010E-007
  0.11899999999999999         -4.1822079310804838E-007
  0.12009999999999998         -4.3886637968171271E-007
  0.12120000000000003         -4.6030658040763228E-007
  0.12230000000000002         -4.8254918283419101E-007
  0.12340000000000001         -5.0561129683046602E-007
  0.12450000000000000         -5.2952140094930655E-007
  0.12559999999999999         -5.5430854217775050E-007
  0.12670000000000003         -5.7998971669803723E-007
  0.12780000000000002         -6.0656770983769093E-007
  0.12890000000000001         -6.3404280581380590E-007
  0.13000000000000000         -6.6242745333511266E-007
  0.13109999999999999         -6.9174944883343414E-007
  0.13219999999999998         -7.2203914669444202E-007
  0.13330000000000003         -7.5331388416088885E-007
  0.13440000000000002         -7.8557394544986892E-007
  0.13550000000000001         -8.1881540836548083E-007
  0.13660000000000000         -8.5304594676927081E-007
  0.13769999999999999         -8.8828812749852659E-007
  0.13880000000000003         -9.2456616584968287E-007
  0.13990000000000002         -9.6188898623950081E-007
  0.14100000000000001         -1.0002477210946381E-006
  0.14210000000000000         -1.0396305469839717E-006
  0.14319999999999999         -1.0800416703204974E-006
  0.14429999999999998         -1.1215032600375707E-006
  0.14540000000000003         -1.1640387356237625E-006
  0.14650000000000002         -1.2076515076842043E-006
  0.14760000000000001         -1.2523213399617816E-006
  0.14870000000000000         -1.2980229939785204E-006
  0.14979999999999999         -1.3447482842821046E-006
  0.15090000000000003         -1.3925107396062231E-006
  0.15200000000000002         -1.4413266171686701E-006
  0.15310000000000001         -1.4911922789906384E-006
  0.15420000000000000         -1.5420788486153469E-006
  0.15529999999999999         -1.5939508557494264E-006
  0.15639999999999998         -1.6467892010041396E-006
  0.15750000000000003         -1.7005962718030787E-006
  0.15860000000000002         -1.7553762745592394E-006
  0.15970000000000001         -1.8111117014996125E-006
  0.16080000000000000         -1.8677600337468903E-006
  0.16189999999999999         -1.9252736365160672E-006
  0.16300000000000003         -1.9836245428450638E-006
  0.16410000000000002         -2.0428067273314809E-006
  0.16520000000000001         -2.1028142782597570E-006
  0.16630000000000000         -2.1636149085679790E-006
  0.16739999999999999         -2.2251488189795054E-006
  0.16850000000000004         -2.2873516627441859E-006
  0.16960000000000003         -2.3501825126004405E-006
  0.17070000000000002         -2.4136254523909884E-006
  0.17180000000000001         -2.4776634290901711E-006
  0.17290000000000000         -2.5422514227102511E-006
  0.17399999999999999         -2.6073123535752529E-006
  0.17510000000000003         -2.6727627755462890E-006
  0.17620000000000002         -2.7385433440940687E-006
  0.17730000000000001         -2.8046219995303545E-006
  0.17840000000000000         -2.8709669095405843E-006
  0.17949999999999999         -2.9375169106060639E-006
  0.18060000000000004         -3.0041787795198616E-006
  0.18170000000000003         -3.0708565645909403E-006
  0.18280000000000002         -3.1374815989693161E-006
  0.18390000000000001         -3.2040125006460585E-006
  0.18500000000000000         -3.2704053865018068E-006
  0.18609999999999999         -3.3365806757501559E-006
  0.18720000000000003         -3.4024237720586825E-006
  0.18830000000000002         -3.4678175779845333E-006
  0.18940000000000001         -3.5326770557730924E-006
  0.19050000000000000         -3.5969510463473853E-006
  0.19159999999999999         -3.6605879358830862E-006
  0.19270000000000004         -3.7235001855151495E-006
  0.19380000000000003         -3.7855634218431078E-006
  0.19490000000000002         -3.8466482692456339E-006
  0.19600000000000001         -3.9066553654265590E-006
  0.19710000000000000         -3.9655183172726538E-006
  0.19819999999999999         -4.0231707316706888E-006
  0.19930000000000003         -4.0795139284455217E-006
  0.20040000000000002         -4.1344119381392375E-006
  0.20150000000000001         -4.1877292460412718E-006
  0.20260000000000000         -4.2393635339976754E-006
  0.20369999999999999         -4.2892488636425696E-006
  0.20480000000000004         -4.3373152038839180E-006
  0.20590000000000003         -4.3834561438416131E-006
  0.20700000000000002         -4.4275266191107221E-006
  0.20810000000000001         -4.4693815652863123E-006
  0.20920000000000000         -4.5089163904776797E-006
  0.21029999999999999         -4.5460647015715949E-006
  0.21140000000000003         -4.5807641981809866E-006
  0.21250000000000002         -4.6129130168992560E-006
  0.21360000000000001         -4.6423729145317338E-006
  0.21470000000000000         -4.6690042836416978E-006
  0.21579999999999999         -4.6927043513278477E-006
  0.21690000000000004         -4.7134108172031119E-006
  0.21800000000000003         -4.7310627451224718E-006
  0.21910000000000002         -4.7455687308683991E-006
  0.22020000000000001         -4.7568032641720492E-006
  0.22130000000000000         -4.7646453822380863E-006
  0.22239999999999999         -4.7690136852907017E-006
  0.22350000000000003         -4.7698658818262629E-006
  0.22460000000000002         -4.7671596803411376E-006
  0.22570000000000001         -4.7608173190383241E-006
  0.22680000000000000         -4.7507278395642061E-006
  0.22789999999999999         -4.7367857405333780E-006
  0.22900000000000004         -4.7189319047902245E-006
  0.23010000000000003         -4.6971508709248155E-006
  0.23120000000000002         -4.6714317250007298E-006
  0.23230000000000001         -4.6417285375355277E-006
  0.23340000000000000         -4.6079635467322078E-006
  0.23450000000000004         -4.5700658120040316E-006
  0.23560000000000003         -4.5280048652784899E-006
  0.23670000000000002         -4.4817938942287583E-006
  0.23780000000000001         -4.4314519982435741E-006
  0.23890000000000000         -4.3769673538918141E-006
  0.23999999999999999         -4.3183003981539514E-006
  0.24110000000000004         -4.2554243009362835E-006
  0.24220000000000003         -4.1883545236487407E-006
  0.24330000000000002         -4.1171488192048855E-006
  0.24440000000000001         -4.0418653952656314E-006
  0.24550000000000000         -3.9625329009140842E-006
  0.24660000000000004         -3.8791540646343492E-006
  0.24770000000000003         -3.7917407098575495E-006
  0.24880000000000002         -3.7003478610131424E-006
  0.24990000000000001         -3.6050716971658403E-006
  0.25100000000000000         -3.5060159007116454E-006
  0.25209999999999999         -3.4032584608212346E-006
  0.25320000000000004         -3.2968525829346618E-006
  0.25430000000000003         -3.1868578389548929E-006
  0.25540000000000002         -3.0733706353203161E-006
  0.25650000000000001         -2.9565228487626882E-006
  0.25760000000000000         -2.8364536319713807E-006
  0.25870000000000004         -2.7132807645102730E-006
  0.25980000000000003         -2.5871033813018585E-006
  0.26090000000000002         -2.4580278932262445E-006
  0.26200000000000001         -2.3261939077201532E-006
  0.26310000000000000         -2.1917726371611934E-006
  0.26419999999999999         -2.0549384771584300E-006
  0.26530000000000004         -1.9158433133270591E-006
  0.26640000000000003         -1.7746193634593510E-006
  0.26750000000000002         -1.6314038475684356E-006
  0.26860000000000001         -1.4863643400531146E-006
  0.26970000000000000         -1.3396967233347823E-006
  0.27080000000000004         -1.1916011999346665E-006
  0.27190000000000003         -1.0422585319247446E-006
  0.27300000000000002         -8.9182947249355493E-007
  0.27410000000000001         -7.4047562748091877E-007
  0.27520000000000000         -5.8838026006924338E-007
  0.27629999999999999         -4.3574880237429170E-007
  0.27740000000000004         -2.8278901709199999E-007
  0.27850000000000003         -1.2969135809726140E-007
  0.27960000000000002          2.3372399127197241E-008
  0.28070000000000001          1.7623155201818008E-007
  0.28179999999999999          3.2869803590074298E-007
  0.28290000000000004          4.8056631385406945E-007
  0.28400000000000003          6.3163037111735321E-007
  0.28510000000000002          7.8170171491365181E-007
  0.28620000000000001          9.3061311190467677E-007
  0.28730000000000000          1.0782044910229160E-006
  0.28840000000000005          1.2243056062288815E-006
  0.28950000000000004          1.3687320006283699E-006
  0.29060000000000002          1.5112960909391404E-006
  0.29170000000000001          1.6518245047336677E-006
  0.29280000000000000          1.7901652427099179E-006
  0.29389999999999999          1.9261794932390330E-006
  0.29500000000000004          2.0597265120159136E-006
  0.29610000000000003          2.1906571419094689E-006
  0.29720000000000002          2.3188192699308274E-006
  0.29830000000000001          2.4440710149065126E-006
  0.29940000000000000          2.5662905045464868E-006
  0.30050000000000004          2.6853711005969672E-006
  0.30160000000000003          2.8012107122776797E-006
  0.30270000000000002          2.9137017918401398E-006
  0.30380000000000001          3.0227345177991083E-006
  0.30490000000000000          3.1282058898796095E-006
  0.30599999999999999          3.2300329166901065E-006
  0.30709999999999998          3.3281523883488262E-006
  0.30819999999999997          3.4225120089104166E-006
  0.30930000000000007          3.5130553897033678E-006
  0.31040000000000006          3.5997181839775294E-006
  0.31150000000000005          3.6824383187195053E-006
  0.31260000000000004          3.7611716834362596E-006
  0.31370000000000003          3.8358989513653796E-006
  0.31480000000000002          3.9066167119017337E-006
  0.31590000000000001          3.9733199628244620E-006
  0.31700000000000000          4.0359950617130380E-006
  0.31809999999999999          4.0946270019048825E-006
  0.31919999999999998          4.1492162381473463E-006
  0.32029999999999997          4.1997882362920791E-006
  0.32140000000000007          4.2463830141059589E-006
  0.32250000000000006          4.2890387703664601E-006
  0.32360000000000005          4.3277805161778815E-006
  0.32470000000000004          4.3626296246657148E-006
  0.32580000000000003          4.3936220208706800E-006
  0.32690000000000002          4.4208200051798485E-006
  0.32800000000000001          4.4443045226216782E-006
  0.32910000000000000          4.4641515160037670E-006
  0.33019999999999999          4.4804223762184847E-006
  0.33129999999999998          4.4931693992111832E-006
  0.33239999999999997          4.5024580686003901E-006
  0.33350000000000007          4.5083806980983354E-006
  0.33460000000000006          4.5110455175745301E-006
  0.33570000000000005          4.5105530261935201E-006
  0.33680000000000004          4.5069864427205175E-006
  0.33790000000000003          4.5004176172369625E-006
  0.33900000000000002          4.4909329517395236E-006
  0.34010000000000001          4.4786429498344660E-006
  0.34120000000000000          4.4636726670432836E-006
  0.34229999999999999          4.4461376091931015E-006
  0.34339999999999998          4.4261282710067462E-006
  0.34449999999999997          4.4037242332706228E-006
  0.34560000000000007          4.3790209929284174E-006
  0.34670000000000006          4.3521413317648694E-006
  0.34780000000000005          4.3232207644905429E-006
  0.34890000000000004          4.2923793444060721E-006
