 -0.20000000000000001          0.0000000000000000
 -0.19890000000000002         -3.9988243579864502
 -0.19780000000000000         -8.3111114501953125
 -0.19670000000000001         -8.9966640472412109
 -0.19560000000000002         -6.0197834968566895
 -0.19450000000000001         -3.2961564064025879
 -0.19340000000000002         -4.5744948387145996
 -0.19230000000000000         -9.4867143630981445
 -0.19120000000000001         -13.926865577697754
 -0.19010000000000002         -14.367643356323242
 -0.18900000000000000         -11.582165718078613
 -0.18790000000000001         -9.8623399734497070
 -0.18680000000000002         -12.554879188537598
 -0.18570000000000000         -18.598114013671875
 -0.18460000000000001         -23.682518005371094
 -0.18350000000000000         -24.799194335937500
 -0.18240000000000001         -23.393878936767578
 -0.18130000000000002         -23.828191757202148
 -0.18020000000000000         -28.789901733398438
 -0.17910000000000001         -36.490985870361328
 -0.17800000000000002         -42.595912933349609
 -0.17690000000000000         -44.841625213623047
 -0.17580000000000001         -45.486427307128906
 -0.17470000000000002         -49.014286041259766
 -0.17360000000000000         -57.504817962646484
 -0.17250000000000001         -68.519569396972656
 -0.17140000000000000         -77.706336975097656
 -0.17030000000000001         -83.382675170898438
 -0.16920000000000002         -88.311439514160156
 -0.16810000000000000         -96.848358154296875
 -0.16700000000000001         -110.48390960693359
 -0.16589999999999999         -126.44343566894531
 -0.16480000000000000         -140.76397705078125
 -0.16370000000000001         -152.57550048828125
 -0.16260000000000002         -165.09666442871094
 -0.16150000000000000         -182.34550476074219
 -0.16040000000000001         -205.05978393554688
 -0.15930000000000000         -230.10766601562500
 -0.15820000000000001         -253.96479797363281
 -0.15710000000000002         -276.57452392578125
 -0.15600000000000000         -301.55307006835938
 -0.15490000000000001         -332.57855224609375
 -0.15379999999999999         -369.79342651367188
 -0.15270000000000000         -409.98062133789062
 -0.15160000000000001         -450.26443481445312
 -0.15050000000000002         -491.40335083007812
 -0.14940000000000001         -537.23126220703125
 -0.14830000000000002         -590.89886474609375
 -0.14720000000000000         -651.91937255859375
 -0.14610000000000001         -717.11785888671875
 -0.14500000000000002         -784.43347167968750
 -0.14390000000000000         -855.53283691406250
 -0.14280000000000001         -934.49542236328125
 -0.14169999999999999         -1023.9981079101562
 -0.14060000000000000         -1123.0507812500000
 -0.13950000000000001         -1228.6562500000000
 -0.13840000000000002         -1339.6102294921875
 -0.13730000000000001         -1458.4191894531250
 -0.13619999999999999         -1589.3354492187500
 -0.13510000000000000         -1734.6152343750000
 -0.13400000000000001         -1892.9556884765625
 -0.13290000000000002         -2061.7438964843750
 -0.13180000000000000         -2240.7192382812500
 -0.13070000000000001         -2433.1909179687500
 -0.12959999999999999         -2643.5563964843750
 -0.12850000000000000         -2873.7570800781250
 -0.12740000000000001         -3122.4060058593750
 -0.12630000000000002         -3387.4785156250000
 -0.12520000000000001         -3669.7119140625000
 -0.12410000000000000         -3973.1457519531250
 -0.12300000000000001         -4302.2739257812500
 -0.12190000000000001         -4658.8295898437500
 -0.12080000000000000         -5041.5776367187500
 -0.11970000000000000         -5449.2993164062500
 -0.11860000000000001         -5883.8076171875000
 -0.11750000000000001         -6349.8471679687500
 -0.11640000000000000         -6852.0288085937500
 -0.11530000000000000         -7392.0429687500000
 -0.11420000000000001         -7969.0541992187500
 -0.11310000000000001         -8582.8144531250000
 -0.11200000000000000         -9236.2050781250000
 -0.11090000000000001         -9934.5771484375000
 -0.10980000000000001         -10682.635742187500
 -0.10870000000000000         -11482.183593750000
 -0.10760000000000000         -12333.040039062500
 -0.10650000000000001         -13236.137695312500
 -0.10540000000000001         -14195.500000000000
 -0.10430000000000000         -15217.059570312500
 -0.10320000000000000         -16305.635742187500
 -0.10210000000000001         -17463.236328125000
 -0.10100000000000001         -18690.458984375000
  -9.9900000000000003E-002    -19989.443359375000
  -9.8799999999999999E-002    -21365.275390625000
  -9.7700000000000009E-002    -22824.402343750000
  -9.6600000000000005E-002    -24371.792968750000
  -9.5500000000000002E-002    -26009.832031250000
  -9.4400000000000012E-002    -27740.062500000000
  -9.3300000000000008E-002    -29565.888671875000
  -9.2200000000000004E-002    -31493.367187500000
  -9.1100000000000000E-002    -33529.320312500000
  -9.0000000000000011E-002    -35678.796875000000
  -8.8900000000000007E-002    -37944.542968750000
  -8.7800000000000003E-002    -40328.996093750000
  -8.6699999999999999E-002    -42836.695312500000
  -8.5600000000000009E-002    -45474.480468750000
  -8.4500000000000006E-002    -48249.484375000000
  -8.3400000000000002E-002    -51166.820312500000
  -8.2299999999999998E-002    -54229.632812500000
  -8.1200000000000008E-002    -57441.175781250000
  -8.0100000000000005E-002    -60806.824218750000
  -7.9000000000000001E-002    -64333.921875000000
  -7.7899999999999997E-002    -68029.546875000000
  -7.6800000000000007E-002    -71898.734375000000
  -7.5700000000000003E-002    -75944.828125000000
  -7.4600000000000000E-002    -80171.718750000000
  -7.3500000000000010E-002    -84585.328125000000
  -7.2399999999999992E-002    -89193.148437500000
  -7.1300000000000002E-002    -94001.945312500000
  -7.0200000000000012E-002    -99016.382812500000
  -6.9099999999999995E-002    -104239.81250000000
  -6.8000000000000005E-002    -109676.35937500000
  -6.6900000000000015E-002    -115332.00000000000
  -6.5799999999999997E-002    -121213.75781250000
  -6.4700000000000008E-002    -127327.71093750000
  -6.3599999999999990E-002    -133677.90625000000
  -6.2500000000000000E-002    -140267.39062500000
  -6.1400000000000010E-002    -147100.04687500000
  -6.0299999999999992E-002    -154181.39062500000
  -5.9200000000000003E-002    -161517.50000000000
  -5.8100000000000013E-002    -169113.15625000000
  -5.6999999999999995E-002    -176971.39062500000
  -5.5900000000000005E-002    -185094.46875000000
  -5.4800000000000015E-002    -193485.62500000000
  -5.3699999999999998E-002    -202149.25000000000
  -5.2600000000000008E-002    -211089.81250000000
  -5.1499999999999990E-002    -220310.48437500000
  -5.0400000000000000E-002    -229812.81250000000
  -4.9300000000000010E-002    -239597.89062500000
  -4.8199999999999993E-002    -249667.59375000000
  -4.7100000000000003E-002    -260024.53125000000
  -4.6000000000000013E-002    -270671.25000000000
  -4.4899999999999995E-002    -281608.78125000000
  -4.3800000000000006E-002    -292836.84375000000
  -4.2699999999999988E-002    -304354.68750000000
  -4.1599999999999998E-002    -316162.43750000000
  -4.0500000000000008E-002    -328260.62500000000
  -3.9399999999999991E-002    -340649.18750000000
  -3.8300000000000001E-002    -353326.71875000000
  -3.7200000000000011E-002    -366290.75000000000
  -3.6099999999999993E-002    -379538.56250000000
  -3.5000000000000003E-002    -393067.93750000000
  -3.3900000000000013E-002    -406876.90625000000
  -3.2799999999999996E-002    -420962.71875000000
  -3.1700000000000006E-002    -435321.31250000000
  -3.0599999999999988E-002    -449947.84375000000
  -2.9499999999999998E-002    -464837.25000000000
  -2.8400000000000009E-002    -479985.06250000000
  -2.7299999999999991E-002    -495386.40625000000
  -2.6200000000000001E-002    -511035.90625000000
  -2.5100000000000011E-002    -526926.68750000000
  -2.3999999999999994E-002    -543051.56250000000
  -2.2900000000000004E-002    -559403.68750000000
  -2.1800000000000014E-002    -575975.87500000000
  -2.0699999999999996E-002    -592760.87500000000
  -1.9600000000000006E-002    -609750.12500000000
  -1.8499999999999989E-002    -626934.62500000000
  -1.7399999999999999E-002    -644305.37500000000
  -1.6300000000000009E-002    -661853.43750000000
  -1.5199999999999991E-002    -679569.62500000000
  -1.4100000000000001E-002    -697443.93750000000
  -1.3000000000000012E-002    -715466.06250000000
  -1.1899999999999994E-002    -733625.12500000000
  -1.0800000000000004E-002    -751910.62500000000
  -9.6999999999999864E-003    -770311.68750000000
  -8.5999999999999965E-003    -788817.62500000000
  -7.5000000000000067E-003    -807417.06250000000
  -6.3999999999999890E-003    -826098.00000000000
  -5.2999999999999992E-003    -844848.56250000000
  -4.2000000000000093E-003    -863657.12500000000
  -3.0999999999999917E-003    -882511.75000000000
  -2.0000000000000018E-003    -901400.81250000000
  -9.0000000000001190E-004    -920312.25000000000
   2.0000000000000573E-004    -939233.31250000000
   1.2999999999999956E-003    -958152.06250000000
   2.4000000000000132E-003    -977056.43750000000
   3.5000000000000031E-003    -995934.62500000000
   4.5999999999999930E-003    -1014774.0625000000
   5.7000000000000106E-003    -1033563.3750000000
   6.8000000000000005E-003    -1052289.7500000000
   7.8999999999999904E-003    -1070941.8750000000
   9.0000000000000080E-003    -1089508.3750000000
   1.0099999999999998E-002    -1107977.6250000000
   1.1199999999999988E-002    -1126338.6250000000
   1.2300000000000005E-002    -1144579.6250000000
   1.3399999999999995E-002    -1162689.7500000000
   1.4500000000000013E-002    -1180658.6250000000
   1.5600000000000003E-002    -1198476.5000000000
   1.6699999999999993E-002    -1216133.2500000000
   1.7800000000000010E-002    -1233618.5000000000
   1.8900000000000000E-002    -1250922.5000000000
   1.9999999999999990E-002    -1268036.3750000000
   2.1100000000000008E-002    -1284951.8750000000
   2.2199999999999998E-002    -1301660.7500000000
   2.3300000000000015E-002    -1318154.6250000000
   2.4400000000000005E-002    -1334425.2500000000
   2.5499999999999995E-002    -1350465.3750000000
   2.6600000000000013E-002    -1366268.0000000000
   2.7700000000000002E-002    -1381827.5000000000
   2.8799999999999992E-002    -1397138.2500000000
   2.9900000000000010E-002    -1412193.8750000000
   3.1000000000000000E-002    -1426988.8750000000
   3.2099999999999990E-002    -1441517.2500000000
   3.3200000000000007E-002    -1455775.8750000000
   3.4299999999999997E-002    -1469761.0000000000
   3.5400000000000015E-002    -1483469.6250000000
   3.6500000000000005E-002    -1496898.1250000000
   3.7599999999999995E-002    -1510043.2500000000
   3.8700000000000012E-002    -1522902.3750000000
   3.9800000000000002E-002    -1535474.2500000000
   4.0899999999999992E-002    -1547757.0000000000
   4.2000000000000010E-002    -1559750.5000000000
   4.3099999999999999E-002    -1571453.8750000000
   4.4200000000000017E-002    -1582866.5000000000
   4.5300000000000007E-002    -1593987.6250000000
   4.6399999999999997E-002    -1604818.2500000000
   4.7500000000000014E-002    -1615359.6250000000
   4.8600000000000004E-002    -1625613.2500000000
   4.9699999999999994E-002    -1635580.2500000000
   5.0800000000000012E-002    -1645262.1250000000
   5.1900000000000002E-002    -1654660.2500000000
   5.2999999999999992E-002    -1663777.3750000000
   5.4099999999999981E-002    -1672617.2500000000
   5.5200000000000027E-002    -1681183.2500000000
   5.6300000000000017E-002    -1689477.7500000000
   5.7400000000000007E-002    -1697503.3750000000
   5.8499999999999996E-002    -1705263.7500000000
   5.9599999999999986E-002    -1712763.8750000000
   6.0700000000000032E-002    -1720007.5000000000
   6.1800000000000022E-002    -1726999.8750000000
   6.2900000000000011E-002    -1733744.3750000000
   6.4000000000000001E-002    -1740245.1250000000
   6.5099999999999991E-002    -1746507.0000000000
   6.6199999999999981E-002    -1752535.2500000000
   6.7300000000000026E-002    -1758335.5000000000
   6.8400000000000016E-002    -1763912.8750000000
   6.9500000000000006E-002    -1769271.8750000000
   7.0599999999999996E-002    -1774417.6250000000
   7.1699999999999986E-002    -1779354.3750000000
   7.2800000000000031E-002    -1784088.5000000000
   7.3900000000000021E-002    -1788626.3750000000
   7.5000000000000011E-002    -1792974.2500000000
   7.6100000000000001E-002    -1797135.5000000000
   7.7199999999999991E-002    -1801114.5000000000
   7.8299999999999981E-002    -1804917.5000000000
   7.9400000000000026E-002    -1808550.8750000000
   8.0500000000000016E-002    -1812020.8750000000
   8.1600000000000006E-002    -1815332.6250000000
   8.2699999999999996E-002    -1818489.3750000000
   8.3799999999999986E-002    -1821495.8750000000
   8.4900000000000031E-002    -1824358.5000000000
   8.6000000000000021E-002    -1827083.6250000000
   8.7100000000000011E-002    -1829676.3750000000
   8.8200000000000001E-002    -1832140.8750000000
   8.9299999999999990E-002    -1834481.0000000000
   9.0399999999999980E-002    -1836700.8750000000
   9.1500000000000026E-002    -1838806.6250000000
   9.2600000000000016E-002    -1840803.5000000000
   9.3700000000000006E-002    -1842696.1250000000
   9.4799999999999995E-002    -1844488.7500000000
   9.5899999999999985E-002    -1846183.5000000000
   9.7000000000000031E-002    -1847785.3750000000
   9.8100000000000021E-002    -1849298.7500000000
   9.9200000000000010E-002    -1850728.5000000000
  0.10030000000000000         -1852079.3750000000
  0.10139999999999999         -1853353.1250000000
  0.10249999999999998         -1854552.7500000000
  0.10360000000000003         -1855681.6250000000
  0.10470000000000002         -1856744.1250000000
  0.10580000000000001         -1857744.7500000000
  0.10690000000000000         -1858686.7500000000
  0.10799999999999998         -1859571.5000000000
  0.10910000000000003         -1860400.7500000000
  0.11020000000000002         -1861177.7500000000
  0.11130000000000001         -1861906.8750000000
  0.11240000000000000         -1862591.8750000000
  0.11349999999999999         -1863233.8750000000
  0.11460000000000004         -1863834.1250000000
  0.11570000000000003         -1864394.1250000000
  0.11680000000000001         -1864916.8750000000
  0.11790000000000000         -1865406.0000000000
  0.11899999999999999         -1865863.5000000000
  0.12009999999999998         -1866291.2500000000
  0.12120000000000003         -1866689.1250000000
  0.12230000000000002         -1867058.8750000000
  0.12340000000000001         -1867402.5000000000
  0.12450000000000000         -1867722.8750000000
  0.12559999999999999         -1868022.0000000000
  0.12670000000000003         -1868300.3750000000
  0.12780000000000002         -1868558.2500000000
  0.12890000000000001         -1868796.3750000000
  0.13000000000000000         -1869016.7500000000
  0.13109999999999999         -1869221.8750000000
  0.13219999999999998         -1869413.1250000000
  0.13330000000000003         -1869590.6250000000
  0.13440000000000002         -1869753.8750000000
  0.13550000000000001         -1869903.3750000000
  0.13660000000000000         -1870041.2500000000
  0.13769999999999999         -1870170.0000000000
  0.13880000000000003         -1870290.0000000000
  0.13990000000000002         -1870400.3750000000
  0.14100000000000001         -1870500.3750000000
  0.14210000000000000         -1870591.8750000000
  0.14319999999999999         -1870676.6250000000
  0.14429999999999998         -1870756.3750000000
  0.14540000000000003         -1870830.1250000000
  0.14650000000000002         -1870896.3750000000
  0.14760000000000001         -1870956.2500000000
  0.14870000000000000         -1871011.1250000000
  0.14979999999999999         -1871062.2500000000
  0.15090000000000003         -1871110.2500000000
  0.15200000000000002         -1871154.3750000000
  0.15310000000000001         -1871194.0000000000
  0.15420000000000000         -1871229.1250000000
  0.15529999999999999         -1871260.7500000000
  0.15639999999999998         -1871290.7500000000
  0.15750000000000003         -1871318.3750000000
  0.15860000000000002         -1871344.5000000000
  0.15970000000000001         -1871368.0000000000
  0.16080000000000000         -1871388.2500000000
  0.16189999999999999         -1871405.7500000000
  0.16300000000000003         -1871422.8750000000
  0.16410000000000002         -1871439.3750000000
  0.16520000000000001         -1871454.5000000000
  0.16630000000000000         -1871467.2500000000
  0.16739999999999999         -1871477.8750000000
  0.16850000000000004         -1871487.8750000000
  0.16960000000000003         -1871497.6250000000
  0.17070000000000002         -1871507.1250000000
  0.17180000000000001         -1871515.6250000000
  0.17290000000000000         -1871522.5000000000
  0.17399999999999999         -1871528.3750000000
  0.17510000000000003         -1871534.0000000000
  0.17620000000000002         -1871539.5000000000
  0.17730000000000001         -1871544.8750000000
  0.17840000000000000         -1871549.1250000000
  0.17949999999999999         -1871552.2500000000
  0.18060000000000004         -1871555.5000000000
  0.18170000000000003         -1871558.8750000000
  0.18280000000000002         -1871562.1250000000
  0.18390000000000001         -1871564.3750000000
  0.18500000000000000         -1871566.7500000000
  0.18609999999999999         -1871568.6250000000
  0.18720000000000003         -1871570.3750000000
  0.18830000000000002         -1871572.3750000000
  0.18940000000000001         -1871573.8750000000
  0.19050000000000000         -1871575.3750000000
  0.19159999999999999         -1871576.1250000000
  0.19270000000000004         -1871577.1250000000
  0.19380000000000003         -1871578.2500000000
  0.19490000000000002         -1871579.5000000000
  0.19600000000000001         -1871579.8750000000
  0.19710000000000000         -1871580.2500000000
  0.19819999999999999         -1871580.8750000000
  0.19930000000000003         -1871581.8750000000
  0.20040000000000002         -1871582.5000000000
  0.20150000000000001         -1871582.8750000000
  0.20260000000000000         -1871582.6250000000
  0.20369999999999999         -1871582.6250000000
  0.20480000000000004         -1871583.0000000000
  0.20590000000000003         -1871583.7500000000
  0.20700000000000002         -1871584.6250000000
  0.20810000000000001         -1871584.8750000000
  0.20920000000000000         -1871584.5000000000
  0.21029999999999999         -1871583.7500000000
  0.21140000000000003         -1871584.0000000000
  0.21250000000000002         -1871584.8750000000
  0.21360000000000001         -1871585.8750000000
  0.21470000000000000         -1871585.7500000000
  0.21579999999999999         -1871585.1250000000
  0.21690000000000004         -1871584.5000000000
  0.21800000000000003         -1871584.5000000000
  0.21910000000000002         -1871585.3750000000
  0.22020000000000001         -1871586.0000000000
  0.22130000000000000         -1871586.2500000000
  0.22239999999999999         -1871585.3750000000
  0.22350000000000003         -1871584.6250000000
  0.22460000000000002         -1871585.2500000000
  0.22570000000000001         -1871586.1250000000
  0.22680000000000000         -1871586.6250000000
  0.22789999999999999         -1871586.1250000000
  0.22900000000000004         -1871585.1250000000
  0.23010000000000003         -1871584.5000000000
  0.23120000000000002         -1871585.3750000000
  0.23230000000000001         -1871586.3750000000
  0.23340000000000000         -1871586.6250000000
  0.23450000000000004         -1871585.6250000000
  0.23560000000000003         -1871584.7500000000
  0.23670000000000002         -1871584.5000000000
  0.23780000000000001         -1871585.5000000000
  0.23890000000000000         -1871586.7500000000
  0.23999999999999999         -1871586.8750000000
  0.24110000000000004         -1871585.7500000000
  0.24220000000000003         -1871584.2500000000
  0.24330000000000002         -1871584.1250000000
  0.24440000000000001         -1871585.5000000000
  0.24550000000000000         -1871587.0000000000
  0.24660000000000004         -1871587.0000000000
  0.24770000000000003         -1871585.5000000000
  0.24880000000000002         -1871584.2500000000
  0.24990000000000001         -1871584.3750000000
  0.25100000000000000         -1871586.0000000000
  0.25209999999999999         -1871586.7500000000
  0.25320000000000004         -1871586.3750000000
  0.25430000000000003         -1871585.3750000000
  0.25540000000000002         -1871584.6250000000
  0.25650000000000001         -1871584.8750000000
  0.25760000000000000         -1871585.7500000000
  0.25870000000000004         -1871586.7500000000
  0.25980000000000003         -1871586.1250000000
  0.26090000000000002         -1871585.2500000000
  0.26200000000000001         -1871584.2500000000
  0.26310000000000000         -1871584.7500000000
  0.26419999999999999         -1871586.2500000000
  0.26530000000000004         -1871587.2500000000
  0.26640000000000003         -1871586.5000000000
  0.26750000000000002         -1871584.7500000000
  0.26860000000000001         -1871584.0000000000
  0.26970000000000000         -1871584.6250000000
  0.27080000000000004         -1871586.3750000000
  0.27190000000000003         -1871587.2500000000
  0.27300000000000002         -1871586.3750000000
  0.27410000000000001         -1871584.8750000000
  0.27520000000000000         -1871584.2500000000
  0.27629999999999999         -1871585.2500000000
  0.27740000000000004         -1871586.5000000000
  0.27850000000000003         -1871586.5000000000
  0.27960000000000002         -1871585.7500000000
  0.28070000000000001         -1871584.7500000000
  0.28179999999999999         -1871584.3750000000
  0.28290000000000004         -1871585.3750000000
  0.28400000000000003         -1871586.6250000000
  0.28510000000000002         -1871586.7500000000
  0.28620000000000001         -1871585.7500000000
  0.28730000000000000         -1871584.5000000000
  0.28840000000000005         -1871584.5000000000
  0.28950000000000004         -1871585.6250000000
  0.29060000000000002         -1871586.6250000000
  0.29170000000000001         -1871586.3750000000
  0.29280000000000000         -1871585.5000000000
  0.29389999999999999         -1871585.0000000000
  0.29500000000000004         -1871585.1250000000
  0.29610000000000003         -1871585.7500000000
  0.29720000000000002         -1871586.1250000000
  0.29830000000000001         -1871586.0000000000
  0.29940000000000000         -1871585.2500000000
  0.30050000000000004         -1871584.8750000000
  0.30160000000000003         -1871585.6250000000
  0.30270000000000002         -1871586.3750000000
  0.30380000000000001         -1871586.2500000000
  0.30490000000000000         -1871585.5000000000
  0.30599999999999999         -1871584.6250000000
  0.30709999999999998         -1871584.6250000000
  0.30819999999999997         -1871585.6250000000
  0.30930000000000007         -1871586.6250000000
  0.31040000000000006         -1871586.6250000000
  0.31150000000000005         -1871585.7500000000
  0.31260000000000004         -1871584.6250000000
  0.31370000000000003         -1871584.7500000000
  0.31480000000000002         -1871585.6250000000
  0.31590000000000001         -1871586.3750000000
  0.31700000000000000         -1871586.5000000000
  0.31809999999999999         -1871585.7500000000
  0.31919999999999998         -1871584.7500000000
  0.32029999999999997         -1871584.7500000000
  0.32140000000000007         -1871585.5000000000
  0.32250000000000006         -1871586.3750000000
  0.32360000000000005         -1871586.6250000000
  0.32470000000000004         -1871586.2500000000
  0.32580000000000003         -1871584.8750000000
  0.32690000000000002         -1871584.3750000000
  0.32800000000000001         -1871585.0000000000
  0.32910000000000000         -1871586.2500000000
  0.33019999999999999         -1871586.8750000000
  0.33129999999999998         -1871586.2500000000
  0.33239999999999997         -1871585.3750000000
  0.33350000000000007         -1871584.6250000000
  0.33460000000000006         -1871584.8750000000
  0.33570000000000005         -1871585.8750000000
  0.33680000000000004         -1871586.5000000000
  0.33790000000000003         -1871585.7500000000
  0.33900000000000002         -1871585.0000000000
  0.34010000000000001         -1871585.2500000000
  0.34120000000000000         -1871585.5000000000
  0.34229999999999999         -1871586.2500000000
  0.34339999999999998         -1871586.2500000000
  0.34449999999999997         -1871585.7500000000
  0.34560000000000007         -1871585.0000000000
  0.34670000000000006         -1871585.1250000000
  0.34780000000000005         -1871586.1250000000
  0.34890000000000004         -1871586.2500000000
