 -0.20000000000000001          0.0000000000000000
 -0.19890000000000002          0.0000000000000000
 -0.19780000000000000          0.0000000000000000
 -0.19670000000000001          0.0000000000000000
 -0.19560000000000002          0.0000000000000000
 -0.19450000000000001          0.0000000000000000
 -0.19340000000000002          0.0000000000000000
 -0.19230000000000000          0.0000000000000000
 -0.19120000000000001          2.5612096847160264E-027
 -0.19010000000000002          5.1436060625270701E-026
 -0.18900000000000000          4.1749013876908706E-025
 -0.18790000000000001          1.7776375048410744E-024
 -0.18680000000000002          4.2402038850707449E-024
 -0.18570000000000000          4.7080697937787274E-024
 -0.18460000000000001         -3.1139229132138708E-024
 -0.18350000000000000         -2.2569190591515554E-023
 -0.18240000000000001         -5.2749112403655315E-023
 -0.18130000000000002         -8.3795803024015714E-023
 -0.18020000000000000          1.2884508305805540E-025
 -0.17910000000000001          5.6594658486402669E-022
 -0.17800000000000002          1.7015099141764027E-021
 -0.17690000000000000          1.2135013226223719E-021
 -0.17580000000000001         -6.1821346407196550E-021
 -0.17470000000000002         -2.0351951791254693E-020
 -0.17360000000000000         -1.6647822467958030E-020
 -0.17250000000000001          5.2295269516745925E-020
 -0.17140000000000000          1.7778941872423145E-019
 -0.17030000000000001          1.6350439728635279E-019
 -0.16920000000000002         -3.2416241438612233E-019
 -0.16810000000000000         -1.2220310386545761E-018
 -0.16700000000000001         -1.3117561468788156E-018
 -0.16589999999999999          1.4126213100026129E-018
 -0.16480000000000000          6.8255726415293012E-018
 -0.16370000000000001          8.7608286862267263E-018
 -0.16260000000000002         -3.3844272606438826E-018
 -0.16150000000000000         -3.1204637528566771E-017
 -0.16040000000000001         -4.8843747930557853E-017
 -0.15930000000000000         -6.8247065834279582E-018
 -0.15820000000000001          1.1486690560076412E-016
 -0.15710000000000002          2.2732990522744093E-016
 -0.15600000000000000          1.2802659475776414E-016
 -0.15490000000000001         -3.1984255255897999E-016
 -0.15379999999999999         -8.7855946061154619E-016
 -0.15270000000000000         -8.2948295398278327E-016
 -0.15160000000000001          5.1954597528590949E-016
 -0.15050000000000002          2.7674878786743996E-015
 -0.14940000000000001          3.7474550237037371E-015
 -0.14830000000000002          6.5330094798683605E-016
 -0.14720000000000000         -6.7385032727622796E-015
 -0.14610000000000001         -1.3088161671527369E-014
 -0.14500000000000002         -9.0330744457762374E-015
 -0.14390000000000000          1.0501544973244917E-014
 -0.14280000000000001          3.5812234525523651E-014
 -0.14169999999999999          4.1178445744395609E-014
 -0.14060000000000000          2.3679598016299649E-015
 -0.13950000000000001         -7.2987250195489378E-014
 -0.13840000000000002         -1.2830733112263737E-013
 -0.13730000000000001         -8.4745524400048344E-014
 -0.13619999999999999          8.6377709455562335E-014
 -0.13510000000000000          2.9450460082777741E-013
 -0.13400000000000001          3.4363356886564500E-013
 -0.13290000000000002          7.0074683360642209E-014
 -0.13180000000000000         -4.6312628211586659E-013
 -0.13070000000000001         -8.8537760022794343E-013
 -0.12959999999999999         -7.0510947341312358E-013
 -0.12850000000000000          2.6982883700836513E-013
 -0.12740000000000001          1.5691149551563810E-012
 -0.12630000000000002          2.1464080512956230E-012
 -0.12520000000000001          1.0686060326545177E-012
 -0.12410000000000000         -1.5487264248825738E-012
 -0.12300000000000001         -4.1264552538833321E-012
 -0.12190000000000001         -4.3606815207375416E-012
 -0.12080000000000000         -9.5698470849170381E-013
 -0.11970000000000000          4.7827462476557336E-012
 -0.11860000000000001          9.0039555672438709E-012
 -0.11750000000000001          7.5846872185647563E-012
 -0.11640000000000000         -4.7835552793168423E-013
 -0.11530000000000000         -1.1102108815608247E-011
 -0.11420000000000001         -1.6735397789791051E-011
 -0.11310000000000001         -1.1379282932599821E-011
 -0.11200000000000000          4.1171783864146771E-012
 -0.11090000000000001          2.0782736642743771E-011
 -0.10980000000000001          2.6439014172430220E-011
 -0.10870000000000000          1.4427198151423237E-011
 -0.10760000000000000         -9.9891093660597896E-012
 -0.10650000000000001         -3.1266222250136977E-011
 -0.10540000000000001         -3.3701968299437723E-011
 -0.10430000000000000         -1.3579488228332437E-011
 -0.10320000000000000          1.6184142567765569E-011
 -0.10210000000000001          3.4147337735213057E-011
 -0.10100000000000001          2.6825847099232192E-011
  -9.9900000000000003E-002     1.1015677302619875E-012
  -9.8799999999999999E-002    -1.9072654913743214E-011
  -9.7700000000000009E-002    -1.2194173622248616E-011
  -9.6600000000000005E-002     1.8830523945689848E-011
  -9.5500000000000002E-002     4.1962652103100240E-011
  -9.4400000000000012E-002     1.8319767577934520E-011
  -9.3300000000000008E-002    -6.0160196269087862E-011
  -9.2200000000000004E-002    -1.4699405581630742E-010
  -9.1100000000000000E-002    -1.5838672040580093E-010
  -9.0000000000000011E-002    -3.2214453327128467E-011
  -8.8900000000000007E-002     2.0583258708573027E-010
  -8.7800000000000003E-002     4.2177331072146274E-010
  -8.6699999999999999E-002     4.3272768701640985E-010
  -8.5600000000000009E-002     1.2892666101382844E-010
  -8.4500000000000006E-002    -4.1279613061107057E-010
  -8.3400000000000002E-002    -9.1157753567827626E-010
  -8.2299999999999998E-002    -1.0056427912630284E-009
  -8.1200000000000008E-002    -4.7372683553703610E-010
  -8.0100000000000005E-002     5.6766014111531149E-010
  -7.9000000000000001E-002     1.6307397654458100E-009
  -7.7899999999999997E-002     2.0547106238666402E-009
  -7.6800000000000007E-002     1.3708810753243483E-009
  -7.5700000000000003E-002    -3.5189134939273004E-010
  -7.4600000000000000E-002    -2.3999664477969418E-009
  -7.3500000000000010E-002    -3.6691505389541135E-009
  -7.2399999999999992E-002    -3.2139888528348592E-009
  -7.1300000000000002E-002    -8.3622841984265506E-010
  -7.0200000000000012E-002     2.6217747972623329E-009
  -6.9099999999999995E-002     5.5133431153819856E-009
  -6.8000000000000005E-002     6.1331513201423604E-009
  -6.6900000000000015E-002     3.6560774407945473E-009
  -6.5799999999999997E-002    -1.2236544000288063E-009
  -6.4700000000000008E-002    -6.3780163372939569E-009
  -6.3599999999999990E-002    -9.1540339752782529E-009
  -6.2500000000000000E-002    -7.7506436824137381E-009
  -6.1400000000000010E-002    -2.3618755840004724E-009
  -6.0299999999999992E-002     4.6247774498908711E-009
  -5.9200000000000003E-002     9.6729015908181282E-009
  -5.8100000000000013E-002     9.9949994947223786E-009
  -5.6999999999999995E-002     5.3086011142511325E-009
  -5.5900000000000005E-002    -1.6680280490177779E-009
  -5.4800000000000015E-002    -6.5418181982579426E-009
  -5.3699999999999998E-002    -5.9036282529234541E-009
  -5.2600000000000008E-002     1.4937845405071926E-010
  -5.1499999999999990E-002     7.3422321555938197E-009
  -5.0400000000000000E-002     9.2798488893208742E-009
  -4.9300000000000010E-002     1.4891102795289157E-009
  -4.8199999999999993E-002    -1.4806434300851379E-008
  -4.7100000000000003E-002    -3.1775901021546815E-008
  -4.6000000000000013E-002    -3.8214029274286077E-008
  -4.4899999999999995E-002    -2.5738025044574897E-008
  -4.3800000000000006E-002     5.4189919218572413E-009
  -4.2699999999999988E-002     4.4774516538836906E-008
  -4.1599999999999998E-002     7.5863781034968270E-008
  -4.0500000000000008E-002     8.4633313690574141E-008
  -3.9399999999999991E-002     6.7259762204230356E-008
  -3.8300000000000001E-002     3.2397860394439704E-008
  -3.7200000000000011E-002    -4.1989727250779652E-009
  -3.6099999999999993E-002    -3.0040506970863134E-008
  -3.5000000000000003E-002    -4.5007038096400720E-008
  -3.3900000000000013E-002    -6.3000037187066482E-008
  -3.2799999999999996E-002    -1.0403064010233720E-007
  -3.1700000000000006E-002    -1.8059219542010396E-007
  -3.0599999999999988E-002    -2.8628394943552848E-007
  -2.9499999999999998E-002    -3.9407615304298815E-007
  -2.8400000000000009E-002    -4.6627565097878687E-007
  -2.7299999999999991E-002    -4.7123651825131674E-007
  -2.6200000000000001E-002    -3.9759558490004565E-007
  -2.5100000000000011E-002    -2.5822802740549378E-007
  -2.3999999999999994E-002    -8.2558997860360250E-008
  -2.2900000000000004E-002     9.6780425451470364E-008
  -2.1800000000000014E-002     2.5370843559358036E-007
  -2.0699999999999996E-002     3.6894272170684417E-007
  -1.9600000000000006E-002     4.2273541112081148E-007
  -1.8499999999999989E-002     3.8902339838386979E-007
  -1.7399999999999999E-002     2.4043487201197422E-007
  -1.6300000000000009E-002    -3.3770959362300346E-008
  -1.5199999999999991E-002    -4.0574559534434229E-007
  -1.4100000000000001E-002    -7.9906948258212651E-007
  -1.3000000000000012E-002    -1.1037365084121120E-006
  -1.1899999999999994E-002    -1.2160583082732046E-006
  -1.0800000000000004E-002    -1.0872500979530741E-006
  -9.6999999999999864E-003    -7.5531505672188359E-007
  -8.5999999999999965E-003    -3.3980634839281265E-007
  -7.5000000000000067E-003     2.9647742039173863E-009
  -6.3999999999999890E-003     1.4504232126455463E-007
  -5.2999999999999992E-003     4.0326916916910704E-008
  -4.2000000000000093E-003    -2.6106022232852411E-007
  -3.0999999999999917E-003    -6.4493690388189862E-007
  -2.0000000000000018E-003    -9.9409589893184602E-007
  -9.0000000000001190E-004    -1.2448554116417654E-006
   2.0000000000000573E-004    -1.4086220971876173E-006
   1.2999999999999956E-003    -1.5481275568163255E-006
   2.4000000000000132E-003    -1.7241895875486080E-006
   3.5000000000000031E-003    -1.9460740077192895E-006
   4.5999999999999930E-003    -2.1566318082477665E-006
   5.7000000000000106E-003    -2.2632600575889228E-006
   6.8000000000000005E-003    -2.1985313196637435E-006
   7.8999999999999904E-003    -1.9757494555960875E-006
   9.0000000000000080E-003    -1.7055153875844553E-006
   1.0099999999999998E-002    -1.5597494211760932E-006
   1.1199999999999988E-002    -1.6980104646791006E-006
   1.2300000000000005E-002    -2.1921621282672277E-006
   1.3399999999999995E-002    -2.9872835511923768E-006
   1.4500000000000013E-002    -3.9185397326946259E-006
   1.5600000000000003E-002    -4.7760295274201781E-006
   1.6699999999999993E-002    -5.3865678637521341E-006
   1.7800000000000010E-002    -5.6760727602522820E-006
   1.8900000000000000E-002    -5.6883445722633041E-006
   1.9999999999999990E-002    -5.5588338909728918E-006
   2.1100000000000008E-002    -5.4616107263427693E-006
   2.2199999999999998E-002    -5.5547852753079496E-006
   2.3300000000000015E-002    -5.9430444707686547E-006
   2.4400000000000005E-002    -6.6616753429116216E-006
   2.5499999999999995E-002    -7.6760888987337239E-006
   2.6600000000000013E-002    -8.8889873950392939E-006
   2.7700000000000002E-002    -1.0154459232580848E-005
   2.8799999999999992E-002    -1.1304414329060819E-005
   2.9900000000000010E-002    -1.2193151633255184E-005
   3.1000000000000000E-002    -1.2753574083035346E-005
   3.2099999999999990E-002    -1.3044001207163092E-005
   3.3200000000000007E-002    -1.3256621059554163E-005
   3.4299999999999997E-002    -1.3668376595887821E-005
   3.5400000000000015E-002    -1.4540926713380031E-005
   3.6500000000000005E-002    -1.6007632439141162E-005
   3.7599999999999995E-002    -1.8001290300162509E-005
   3.8700000000000012E-002    -2.0265217244741507E-005
   3.9800000000000002E-002    -2.2452552002505399E-005
   4.0899999999999992E-002    -2.4273778763017617E-005
   4.2000000000000010E-002    -2.5623256078688428E-005
   4.3099999999999999E-002    -2.6623172743711621E-005
   4.4200000000000017E-002    -2.7564343326957896E-005
   4.5300000000000007E-002    -2.8773658414138481E-005
   4.6399999999999997E-002    -3.0475008315988816E-005
   4.7500000000000014E-002    -3.2710890081943944E-005
   4.8600000000000004E-002    -3.5354863939573988E-005
   4.9699999999999994E-002    -3.8199043046915904E-005
   5.0800000000000012E-002    -4.1060746298171580E-005
   5.1900000000000002E-002    -4.3854848627233878E-005
   5.2999999999999992E-002    -4.6600107452832162E-005
   5.4099999999999981E-002    -4.9372705689165741E-005
   5.5200000000000027E-002    -5.2244391554268077E-005
   5.6300000000000017E-002    -5.5243563110707328E-005
   5.7400000000000007E-002    -5.8360230468679219E-005
   5.8499999999999996E-002    -6.1580642068292946E-005
   5.9599999999999986E-002    -6.4922482124529779E-005
   6.0700000000000032E-002    -6.8441768235061318E-005
   6.1800000000000022E-002    -7.2212162194773555E-005
   6.2900000000000011E-002    -7.6284864917397499E-005
   6.4000000000000001E-002    -8.0660647654440254E-005
   6.5099999999999991E-002    -8.5287305410020053E-005
   6.6199999999999981E-002    -9.0085035481024534E-005
   6.7300000000000026E-002    -9.4979084678925574E-005
   6.8400000000000016E-002    -9.9926408438477665E-005
   6.9500000000000006E-002    -1.0491964349057525E-004
   7.0599999999999996E-002    -1.0998167999787256E-004
   7.1699999999999986E-002    -1.1515234655234963E-004
   7.2800000000000031E-002    -1.2047499330947176E-004
   7.3900000000000021E-002    -1.2598912871908396E-004
   7.5000000000000011E-002    -1.3172440230846405E-004
   7.6100000000000001E-002    -1.3769284123554826E-004
   7.7199999999999991E-002    -1.4388386625796556E-004
   7.8299999999999981E-002    -1.5026734035927802E-004
   7.9400000000000026E-002    -1.5681174409110099E-004
   8.0500000000000016E-002    -1.6349679208360612E-004
   8.1600000000000006E-002    -1.7032686446327716E-004
   8.2699999999999996E-002    -1.7732568085193634E-004
   8.3799999999999986E-002    -1.8451739742886275E-004
   8.4900000000000031E-002    -1.9189753220416605E-004
   8.6000000000000021E-002    -1.9942327344324440E-004
   8.7100000000000011E-002    -2.0701452740468085E-004
   8.8200000000000001E-002    -2.1458503033500165E-004
   8.9299999999999990E-002    -2.2207625443115830E-004
   9.0399999999999980E-002    -2.2948562400415540E-004
   9.1500000000000026E-002    -2.3687240900471807E-004
   9.2600000000000016E-002    -2.4433390353806317E-004
   9.3700000000000006E-002    -2.5196990463882685E-004
   9.4799999999999995E-002    -2.5983960949815810E-004
   9.5899999999999985E-002    -2.6792637072503567E-004
   9.7000000000000031E-002    -2.7614730061031878E-004
   9.8100000000000021E-002    -2.8437483706511557E-004
   9.9200000000000010E-002    -2.9247335623949766E-004
  0.10030000000000000         -3.0035327654331923E-004
  0.10139999999999999         -3.0797603540122509E-004
  0.10249999999999998         -3.1538022449240088E-004
  0.10360000000000003         -3.2265955815091729E-004
  0.10470000000000002         -3.2991846092045307E-004
  0.10580000000000001         -3.3724581589922309E-004
  0.10690000000000000         -3.4465210046619177E-004
  0.10799999999999998         -3.5205617314204574E-004
  0.10910000000000003         -3.5931047750636935E-004
  0.11020000000000002         -3.6622857442125678E-004
  0.11130000000000001         -3.7267015432007611E-004
  0.11240000000000000         -3.7857636925764382E-004
  0.11349999999999999         -3.8398659671656787E-004
  0.11460000000000004         -3.8900028448551893E-004
  0.11570000000000003         -3.9374537300318480E-004
  0.11680000000000001         -3.9831720641814172E-004
  0.11790000000000000         -4.0277148946188390E-004
  0.11899999999999999         -4.0708499727770686E-004
  0.12009999999999998         -4.1120688547380269E-004
  0.12120000000000003         -4.1503173997625709E-004
  0.12230000000000002         -4.1845932719297707E-004
  0.12340000000000001         -4.2138749267905951E-004
  0.12450000000000000         -4.2373847099952400E-004
  0.12559999999999999         -4.2542503797449172E-004
  0.12670000000000003         -4.2641273466870189E-004
  0.12780000000000002         -4.2671518167480826E-004
  0.12890000000000001         -4.2635903810150921E-004
  0.13000000000000000         -4.2545262840576470E-004
  0.13109999999999999         -4.2411242611706257E-004
  0.13219999999999998         -4.2244498035870492E-004
  0.13330000000000003         -4.2051443597301841E-004
  0.13440000000000002         -4.1828965186141431E-004
  0.13550000000000001         -4.1566192521713674E-004
  0.13660000000000000         -4.1246539331041276E-004
  0.13769999999999999         -4.0853445534594357E-004
  0.13880000000000003         -4.0376017568632960E-004
  0.13990000000000002         -3.9812660543248057E-004
  0.14100000000000001         -3.9173950790427625E-004
  0.14210000000000000         -3.8478217902593315E-004
  0.14319999999999999         -3.7743445136584342E-004
  0.14429999999999998         -3.6982839810661972E-004
  0.14540000000000003         -3.6201920011080801E-004
  0.14650000000000002         -3.5393601865507662E-004
  0.14760000000000001         -3.4543717629276216E-004
  0.14870000000000000         -3.3638454624451697E-004
  0.14979999999999999         -3.2668112544342875E-004
  0.15090000000000003         -3.1627566204406321E-004
  0.15200000000000002         -3.0518250423483551E-004
  0.15310000000000001         -2.9348011594265699E-004
  0.15420000000000000         -2.8125193784944713E-004
  0.15529999999999999         -2.6868356508202851E-004
  0.15639999999999998         -2.5597054627723992E-004
  0.15750000000000003         -2.4320294323842973E-004
  0.15860000000000002         -2.3038180370349437E-004
  0.15970000000000001         -2.1746521815657616E-004
  0.16080000000000000         -2.0439928630366921E-004
  0.16189999999999999         -1.9109818094875664E-004
  0.16300000000000003         -1.7750437837094069E-004
  0.16410000000000002         -1.6362557653337717E-004
  0.16520000000000001         -1.4945933071430773E-004
  0.16630000000000000         -1.3510348799172789E-004
  0.16739999999999999         -1.2059837899869308E-004
  0.16850000000000004         -1.0602943802950904E-004
  0.16960000000000003         -9.1525667812675238E-005
  0.17070000000000002         -7.7159966167528182E-005
  0.17180000000000001         -6.2915692979004234E-005
  0.17290000000000000         -4.8834681365406141E-005
  0.17399999999999999         -3.4872169635491446E-005
  0.17510000000000003         -2.1050145733170211E-005
  0.17620000000000002         -7.4062745625269599E-006
  0.17730000000000001          6.0832990129711106E-006
  0.17840000000000000          1.9405175407882780E-005
  0.17949999999999999          3.2554278732277453E-005
  0.18060000000000004          4.5459200919140130E-005
  0.18170000000000003          5.8050678489962593E-005
  0.18280000000000002          7.0231071731541306E-005
  0.18390000000000001          8.1872109149117023E-005
  0.18500000000000000          9.3030947027727962E-005
  0.18609999999999999          1.0375113924965262E-004
  0.18720000000000003          1.1420482769608498E-004
  0.18830000000000002          1.2441002763807774E-004
  0.18940000000000001          1.3438574387691915E-004
  0.19050000000000000          1.4399323845282197E-004
  0.19159999999999999          1.5325967979151756E-004
  0.19270000000000004          1.6214905190281570E-004
  0.19380000000000003          1.7056506476365030E-004
  0.19490000000000002          1.7842657689470798E-004
  0.19600000000000001          1.8567556980997324E-004
  0.19710000000000000          1.9239139510318637E-004
  0.19819999999999999          1.9858770247083157E-004
  0.19930000000000003          2.0433783356565982E-004
  0.20040000000000002          2.0978346583433449E-004
  0.20150000000000001          2.1494533575605601E-004
  0.20260000000000000          2.1969809313304722E-004
  0.20369999999999999          2.2394879488274455E-004
  0.20480000000000004          2.2772864031139761E-004
  0.20590000000000003          2.3113407951314002E-004
  0.20700000000000002          2.3417659394908696E-004
  0.20810000000000001          2.3692569811828434E-004
  0.20920000000000000          2.3938497179187834E-004
  0.21029999999999999          2.4141820904333144E-004
  0.21140000000000003          2.4313083849847317E-004
  0.21250000000000002          2.4459604173898697E-004
  0.21360000000000001          2.4594948627054691E-004
  0.21470000000000000          2.4714914616197348E-004
  0.21579999999999999          2.4806766305118799E-004
  0.21690000000000004          2.4866015883162618E-004
  0.21800000000000003          2.4890867643989623E-004
  0.21910000000000002          2.4909290368668735E-004
  0.22020000000000001          2.4924243916757405E-004
  0.22130000000000000          2.4940731236711144E-004
  0.22239999999999999          2.4944369215518236E-004
  0.22350000000000003          2.4917002883739769E-004
  0.22460000000000002          2.4869371554814279E-004
  0.22570000000000001          2.4813963682390749E-004
  0.22680000000000000          2.4778861552476883E-004
  0.22789999999999999          2.4764734553173184E-004
  0.22900000000000004          2.4759845109656453E-004
  0.23010000000000003          2.4742117966525257E-004
  0.23120000000000002          2.4709419813007116E-004
  0.23230000000000001          2.4679853231646121E-004
  0.23340000000000000          2.4667941033840179E-004
  0.23450000000000004          2.4694271269254386E-004
  0.23560000000000003          2.4742528330534697E-004
  0.23670000000000002          2.4802720872685313E-004
  0.23780000000000001          2.4869843036867678E-004
  0.23890000000000000          2.4949040380306542E-004
  0.23999999999999999          2.5055537116713822E-004
  0.24110000000000004          2.5181172532029450E-004
  0.24220000000000003          2.5314340018667281E-004
  0.24330000000000002          2.5442239711992443E-004
  0.24440000000000001          2.5564141105860472E-004
  0.24550000000000000          2.5699051911942661E-004
  0.24660000000000004          2.5863182963803411E-004
  0.24770000000000003          2.6072398759424686E-004
  0.24880000000000002          2.6311998954042792E-004
  0.24990000000000001          2.6580636040307581E-004
  0.25100000000000000          2.6862294180318713E-004
  0.25209999999999999          2.7153603150509298E-004
  0.25320000000000004          2.7462607249617577E-004
  0.25430000000000003          2.7787894941866398E-004
  0.25540000000000002          2.8126937104389071E-004
  0.25650000000000001          2.8476523584686220E-004
  0.25760000000000000          2.8832277166657150E-004
  0.25870000000000004          2.9203182202763855E-004
  0.25980000000000003          2.9592306236736476E-004
  0.26090000000000002          2.9998552054166794E-004
  0.26200000000000001          3.0400080140680075E-004
  0.26310000000000000          3.0788109870627522E-004
  0.26419999999999999          3.1160254729911685E-004
  0.26530000000000004          3.1528968247584999E-004
  0.26640000000000003          3.1922876951284707E-004
  0.26750000000000002          3.2339847530238330E-004
  0.26860000000000001          3.2757889130152762E-004
  0.26970000000000000          3.3158005680888891E-004
  0.27080000000000004          3.3533948590047657E-004
  0.27190000000000003          3.3896332024596632E-004
  0.27300000000000002          3.4259553649462759E-004
  0.27410000000000001          3.4624952240847051E-004
  0.27520000000000000          3.4989646519534290E-004
  0.27629999999999999          3.5327996010892093E-004
  0.27740000000000004          3.5645975731313229E-004
  0.27850000000000003          3.5938760265707970E-004
  0.27960000000000002          3.6215613363310695E-004
  0.28070000000000001          3.6487399484030902E-004
  0.28179999999999999          3.6746525438502431E-004
  0.28290000000000004          3.6961110890842974E-004
  0.28400000000000003          3.7123760557733476E-004
  0.28510000000000002          3.7246194551698864E-004
  0.28620000000000001          3.7326404708437622E-004
  0.28730000000000000          3.7384388269856572E-004
  0.28840000000000005          3.7425063783302903E-004
  0.28950000000000004          3.7443166365846992E-004
  0.29060000000000002          3.7441204767674208E-004
  0.29170000000000001          3.7406769115477800E-004
  0.29280000000000000          3.7354094092734158E-004
  0.29389999999999999          3.7263327976688743E-004
  0.29500000000000004          3.7130209966562688E-004
  0.29610000000000003          3.6961102159693837E-004
  0.29720000000000002          3.6743655800819397E-004
  0.29830000000000001          3.6497134715318680E-004
  0.29940000000000000          3.6230855039320886E-004
  0.30050000000000004          3.5929834120906889E-004
  0.30160000000000003          3.5588070750236511E-004
  0.30270000000000002          3.5202689468860626E-004
  0.30380000000000001          3.4769350895658135E-004
  0.30490000000000000          3.4296585363335907E-004
  0.30599999999999999          3.3795108902268112E-004
  0.30709999999999998          3.3242988865822554E-004
  0.30819999999999997          3.2646956969983876E-004
  0.30930000000000007          3.2018672209233046E-004
  0.31040000000000006          3.1366600887849927E-004
  0.31150000000000005          3.0717387562617660E-004
  0.31260000000000004          3.0072193476371467E-004
  0.31370000000000003          2.9425320099107921E-004
  0.31480000000000002          2.8738021501339972E-004
  0.31590000000000001          2.7992433751933277E-004
  0.31700000000000000          2.7199106989428401E-004
  0.31809999999999999          2.6384682860225439E-004
  0.31919999999999998          2.5558142806403339E-004
  0.32029999999999997          2.4724550894461572E-004
  0.32140000000000007          2.3865171533543617E-004
  0.32250000000000006          2.2978795459493995E-004
  0.32360000000000005          2.2097033797763288E-004
  0.32470000000000004          2.1214588196016848E-004
  0.32580000000000003          2.0347288227640092E-004
  0.32690000000000002          1.9466914818622172E-004
  0.32800000000000001          1.8564418132882565E-004
  0.32910000000000000          1.7640482110437006E-004
  0.33019999999999999          1.6695799422450364E-004
  0.33129999999999998          1.5741442621219903E-004
  0.33239999999999997          1.4775543240830302E-004
  0.33350000000000007          1.3797046267427504E-004
  0.33460000000000006          1.2835736561100930E-004
  0.33570000000000005          1.1910225293831900E-004
  0.33680000000000004          1.1031873145839199E-004
  0.33790000000000003          1.0186230065301061E-004
  0.33900000000000002          9.3500260845758021E-005
  0.34010000000000001          8.4925777628086507E-005
  0.34120000000000000          7.6042801083531231E-005
  0.34229999999999999          6.6963191784452647E-005
  0.34339999999999998          5.8153324062004685E-005
  0.34449999999999997          4.9619131459621713E-005
  0.34560000000000007          4.1231029172195122E-005
  0.34670000000000006          3.2935378840193152E-005
  0.34780000000000005          2.4748853320488706E-005
  0.34890000000000004          1.6884085198398679E-005
