 -0.20000000000000001          0.0000000000000000
 -0.19890000000000002          0.0000000000000000
 -0.19780000000000000          0.0000000000000000
 -0.19670000000000001          0.0000000000000000
 -0.19560000000000002          0.0000000000000000
 -0.19450000000000001          0.0000000000000000
 -0.19340000000000002          0.0000000000000000
 -0.19230000000000000          0.0000000000000000
 -0.19120000000000001          0.0000000000000000
 -0.19010000000000002          0.0000000000000000
 -0.18900000000000000          0.0000000000000000
 -0.18790000000000001          0.0000000000000000
 -0.18680000000000002          1.1580745741941237E-036
 -0.18570000000000000          3.6818362825566029E-035
 -0.18460000000000001          3.5652931923207104E-034
 -0.18350000000000000          2.4560791823050337E-033
 -0.18240000000000001          1.0271134621595164E-032
 -0.18130000000000002          1.8177779988926559E-032
 -0.18020000000000000         -1.7215348397294626E-032
 -0.17910000000000001         -1.0035156481656291E-031
 -0.17800000000000002         -9.2322224287628565E-033
 -0.17690000000000000         -9.7495078279234230E-032
 -0.17580000000000001         -3.2148420087079339E-030
 -0.17470000000000002         -7.6195130046289187E-030
 -0.17360000000000000          1.8842144522550852E-029
 -0.17250000000000001          1.1419010770260701E-028
 -0.17140000000000000          9.3218800982920228E-029
 -0.17030000000000001         -6.3021290753459935E-028
 -0.16920000000000002         -1.8711520671299908E-027
 -0.16810000000000000          2.0328075007210611E-028
 -0.16700000000000001          1.1125778354726271E-026
 -0.16589999999999999          1.9996175648034470E-026
 -0.16480000000000000         -1.9685726526206936E-026
 -0.16370000000000001         -1.3446485419114002E-025
 -0.16260000000000002         -1.5460819553882897E-025
 -0.16150000000000000          3.2527222499304092E-025
 -0.16040000000000001          1.2626264088163028E-024
 -0.15930000000000000          9.0104294100784199E-025
 -0.15820000000000001         -3.5614202361338205E-024
 -0.15710000000000002         -9.9855117788142984E-024
 -0.15600000000000000         -4.0231862778921815E-024
 -0.15490000000000001          3.0815866764049110E-023
 -0.15379999999999999          7.0487820527133113E-023
 -0.15270000000000000          1.4968481059831276E-023
 -0.15160000000000001         -2.2452993273442672E-022
 -0.15050000000000002         -4.6094013594503084E-022
 -0.14940000000000001         -7.3250032763982590E-023
 -0.14830000000000002          1.4100920235261795E-021
 -0.14720000000000000          2.8282777346963776E-021
 -0.14610000000000001          6.7310736873897043E-022
 -0.14500000000000002         -7.6486725524007546E-021
 -0.14390000000000000         -1.6151819446394519E-020
 -0.14280000000000001         -6.6887500502689231E-021
 -0.14169999999999999          3.5350878565380626E-020
 -0.14060000000000000          8.4273567934860200E-020
 -0.13950000000000001          5.4425259594069971E-020
 -0.13840000000000002         -1.3440268407187703E-019
 -0.13730000000000001         -3.9366616195831391E-019
 -0.13619999999999999         -3.5798019446549262E-019
 -0.13510000000000000          3.8203088436577817E-019
 -0.13400000000000001          1.6135831854611459E-018
 -0.13290000000000002          1.9472704295044515E-018
 -0.13180000000000000         -5.0489098677251368E-019
 -0.13070000000000001         -5.6615810407472380E-018
 -0.12959999999999999         -8.9080205131468622E-018
 -0.12850000000000000         -2.4945525615139296E-018
 -0.12740000000000001          1.6276743933116245E-017
 -0.12630000000000002          3.4495439937988533E-017
 -0.12520000000000001          2.4130805651333767E-017
 -0.12410000000000000         -3.4146012377466532E-017
 -0.12300000000000001         -1.1246523632305316E-016
 -0.12190000000000001         -1.2250510461196858E-016
 -0.12080000000000000          2.5929711725399789E-017
 -0.11970000000000000          3.0114546491864379E-016
 -0.11860000000000001          4.6557483583187838E-016
 -0.11750000000000001          1.8681252094689490E-016
 -0.11640000000000000         -6.1474787281564215E-016
 -0.11530000000000000         -1.4175966698654020E-015
 -0.11420000000000001         -1.2058021165142134E-015
 -0.11310000000000001          6.9393783008739394E-016
 -0.11200000000000000          3.4642633220746547E-015
 -0.11090000000000001          4.5109764515893942E-015
 -0.10980000000000001          1.1160563287746601E-015
 -0.10870000000000000         -6.4041814860633754E-015
 -0.10760000000000000         -1.2643710778608829E-014
 -0.10650000000000001         -9.4528292460846312E-015
 -0.10540000000000001          6.7509792210423882E-015
 -0.10430000000000000          2.7541791276005506E-014
 -0.10320000000000000          3.3342232241221487E-014
 -0.10210000000000001          7.3695102076982641E-015
 -0.10100000000000001         -4.4085821961342003E-014
  -9.9900000000000003E-002    -8.3301550065414259E-014
  -9.8799999999999999E-002    -6.1416969871375821E-014
  -9.7700000000000009E-002     3.6798943205780185E-014
  -9.6600000000000005E-002     1.5681859565248868E-013
  -9.5500000000000002E-002     1.9010025487358612E-013
  -9.4400000000000012E-002     5.4614485541426214E-014
  -9.3300000000000008E-002    -2.0764798572010107E-013
  -9.2200000000000004E-002    -4.0711986733221739E-013
  -9.1100000000000000E-002    -3.1912382350389457E-013
  -9.0000000000000011E-002     1.1282698408367209E-013
  -8.8900000000000007E-002     6.4167551480642793E-013
  -8.7800000000000003E-002     8.1503852061501347E-013
  -8.6699999999999999E-002     3.1643681815476943E-013
  -8.5600000000000009E-002    -6.7607491870472214E-013
  -8.4500000000000006E-002    -1.4529224177939337E-012
  -8.3400000000000002E-002    -1.2247658399619499E-012
  -8.2299999999999998E-002     1.7433358359339457E-013
  -8.1200000000000008E-002     1.9026768008356676E-012
  -8.0100000000000005E-002     2.5259343228167808E-012
  -7.9000000000000001E-002     1.1281426097117797E-012
  -7.7899999999999997E-002    -1.6784322412824459E-012
  -7.6800000000000007E-002    -3.8195969824517118E-012
  -7.5700000000000003E-002    -3.1925748936872944E-012
  -7.4600000000000000E-002     4.2620114794160446E-013
  -7.3500000000000010E-002     4.6164391753755751E-012
  -7.2399999999999992E-002     5.7483119826617912E-012
  -7.1300000000000002E-002     1.9521240093162140E-012
  -7.0200000000000012E-002    -4.6596454993108605E-012
  -6.9099999999999995E-002    -8.7817886643137832E-012
  -6.8000000000000005E-002    -5.8650610409993753E-012
  -6.6900000000000015E-002     3.4853799533995922E-012
  -6.5799999999999997E-002     1.2550374801911790E-011
  -6.4700000000000008E-002     1.2825528833415589E-011
  -6.3599999999999990E-002     1.2143007953324680E-012
  -6.2500000000000000E-002    -1.5577391807020113E-011
  -6.1400000000000010E-002    -2.4136236412286571E-011
  -6.0299999999999992E-002    -1.4226871417055698E-011
  -5.9200000000000003E-002     1.1375876803054741E-011
  -5.8100000000000013E-002     3.5643817758446161E-011
  -5.6999999999999995E-002     3.7886901949057972E-011
  -5.5900000000000005E-002     1.0103310549292033E-011
  -5.4800000000000015E-002    -3.3270868698975775E-011
  -5.3699999999999998E-002    -6.1819327434875504E-011
  -5.2600000000000008E-002    -5.0033987369912936E-011
  -5.1499999999999990E-002     1.4037981931405707E-012
  -5.0400000000000000E-002     6.1109776960943663E-011
  -4.9300000000000010E-002     8.6041389291136028E-011
  -4.8199999999999993E-002     5.3030878299775708E-011
  -4.7100000000000003E-002    -2.0324528518522733E-011
  -4.6000000000000013E-002    -8.3875864587135140E-011
  -4.4899999999999995E-002    -9.0155459486762624E-011
  -4.3800000000000006E-002    -3.2203288646837080E-011
  -4.2699999999999988E-002     4.6507731693568033E-011
  -4.1599999999999998E-002     8.2449387595051604E-011
  -4.0500000000000008E-002     4.3567552343581895E-011
  -3.9399999999999991E-002    -3.8319843825851407E-011
  -3.8300000000000001E-002    -8.5565346474858472E-011
  -3.7200000000000011E-002    -3.7196724866905839E-011
  -3.6099999999999993E-002     8.9704306482918383E-011
  -3.5000000000000003E-002     1.9408039064749971E-010
  -3.3900000000000013E-002     1.5881654324978456E-010
  -3.2799999999999996E-002    -4.8552446785254944E-011
  -3.1700000000000006E-002    -3.2080854639460199E-010
  -3.0599999999999988E-002    -4.5928943981365933E-010
  -2.9499999999999998E-002    -3.0945301876528220E-010
  -2.8400000000000009E-002     1.0731537186670081E-010
  -2.7299999999999991E-002     5.7122351293514839E-010
  -2.6200000000000001E-002     7.8736966946379994E-010
  -2.5100000000000011E-002     5.8153082349576835E-010
  -2.3999999999999994E-002     2.8890828965288939E-011
  -2.2900000000000004E-002    -5.8576388184405914E-010
  -2.1800000000000014E-002    -9.5345431549986870E-010
  -2.0699999999999996E-002    -9.3227803255047093E-010
  -1.9600000000000006E-002    -5.9597854429327413E-010
  -1.8499999999999989E-002    -1.1061011828683576E-010
  -1.7399999999999999E-002     4.3350745215775532E-010
  -1.6300000000000009E-002     1.0535323724525369E-009
  -1.5199999999999991E-002     1.7075667546606610E-009
  -1.4100000000000001E-002     2.0815045242983388E-009
  -1.3000000000000012E-002     1.6015980763839366E-009
  -1.1899999999999994E-002    -1.7727216916618715E-010
  -1.0800000000000004E-002    -2.9868274520339355E-009
  -9.6999999999999864E-003    -5.5385642738770002E-009
  -8.5999999999999965E-003    -5.9427334164752210E-009
  -7.5000000000000067E-003    -2.8584568045886272E-009
  -6.3999999999999890E-003     3.2412246220303587E-009
  -5.2999999999999992E-003     9.6436201246774544E-009
  -4.2000000000000093E-003     1.2449786979118471E-008
  -3.0999999999999917E-003     8.8299483280707136E-009
  -2.0000000000000018E-003    -7.7669576326044876E-010
  -9.0000000000001190E-004    -1.2088774425933480E-008
   2.0000000000000573E-004    -1.8846471050437685E-008
   1.2999999999999956E-003    -1.6390643509112124E-008
   2.4000000000000132E-003    -4.8775143923762698E-009
   3.5000000000000031E-003     1.0112619186486427E-008
   4.5999999999999930E-003     2.0419399504589819E-008
   5.7000000000000106E-003     2.0196093686308814E-008
   6.8000000000000005E-003     9.8029984130221237E-009
   7.8999999999999904E-003    -4.1041148257647819E-009
   9.0000000000000080E-003    -1.2807908511547339E-008
   1.0099999999999998E-002    -1.1583610515231157E-008
   1.1199999999999988E-002    -3.3887943562405098E-009
   1.2300000000000005E-002     2.8892384040801744E-009
   1.3399999999999995E-002    -8.5450946318843535E-010
   1.4500000000000013E-002    -1.4583219964947602E-008
   1.5600000000000003E-002    -2.7753385367645933E-008
   1.6699999999999993E-002    -2.4980092661053277E-008
   1.7800000000000010E-002     2.6199014069305804E-009
   1.8900000000000000E-002     4.7561332650047916E-008
   1.9999999999999990E-002     8.5405993388576462E-008
   2.1100000000000008E-002     8.6480476113592886E-008
   2.2199999999999998E-002     3.4953338001741940E-008
   2.3300000000000015E-002    -5.5959347378120583E-008
   2.4400000000000005E-002    -1.4391549996162212E-007
   2.5499999999999995E-002    -1.7628434534344706E-007
   2.6600000000000013E-002    -1.2020078088426089E-007
   2.7700000000000002E-002     1.2693441853173226E-008
   2.8799999999999992E-002     1.6341363107130746E-007
   2.9900000000000010E-002     2.5094712441386946E-007
   3.1000000000000000E-002     2.1581010400950618E-007
   3.2099999999999990E-002     5.8928613100306393E-008
   3.3200000000000007E-002    -1.4839798723187414E-007
   3.4299999999999997E-002    -2.9450563943100860E-007
   3.5400000000000015E-002    -2.8625109393942694E-007
   3.6500000000000005E-002    -1.0649315385080627E-007
   3.7599999999999995E-002     1.6420004556039203E-007
   3.8700000000000012E-002     3.8002858104846382E-007
   3.9800000000000002E-002     4.0546004242969502E-007
   4.0899999999999992E-002     1.9520844318776653E-007
   4.2000000000000010E-002    -1.6804206381948461E-007
   4.3099999999999999E-002    -5.0598504230947583E-007
   4.4200000000000017E-002    -6.3644210968050174E-007
   4.5300000000000007E-002    -4.7659548840783827E-007
   4.6399999999999997E-002    -9.6920302894432098E-008
   4.7500000000000014E-002     3.1200059424918436E-007
   4.8600000000000004E-002     5.4809873972772039E-007
   4.9699999999999994E-002     5.2160208952045650E-007
   5.0800000000000012E-002     3.1687793011769827E-007
   5.1900000000000002E-002     1.4544063731136703E-007
   5.2999999999999992E-002     2.0780474585535558E-007
   5.4099999999999981E-002     5.4409997574111912E-007
   5.5200000000000027E-002     9.7242104857286904E-007
   5.6300000000000017E-002     1.1707853673215141E-006
   5.7400000000000007E-002     8.7196110598597443E-007
   5.8499999999999996E-002     6.0616258679146995E-008
   5.9599999999999986E-002    -9.5733821581234224E-007
   6.0700000000000032E-002    -1.6804273172965623E-006
   6.1800000000000022E-002    -1.6829596916068112E-006
   6.2900000000000011E-002    -8.8106878592952853E-007
   6.4000000000000001E-002     3.7552467802015599E-007
   6.5099999999999991E-002     1.4660026863566600E-006
   6.6199999999999981E-002     1.8427328996040160E-006
   6.7300000000000026E-002     1.3605379081127467E-006
   6.8400000000000016E-002     3.8228824905672809E-007
   6.9500000000000006E-002    -4.2613146433723159E-007
   7.0599999999999996E-002    -5.0699060238912352E-007
   7.1699999999999986E-002     2.1971891328576021E-007
   7.2800000000000031E-002     1.2731774177154875E-006
   7.3900000000000021E-002     1.8960375882670633E-006
   7.5000000000000011E-002     1.5534867543465225E-006
   7.6100000000000001E-002     3.3657073572612717E-007
   7.7199999999999991E-002    -1.0110447874467354E-006
   7.8299999999999981E-002    -1.5057249811434303E-006
   7.9400000000000026E-002    -5.5579079116796493E-007
   8.0500000000000016E-002     1.5782062519065221E-006
   8.1600000000000006E-002     3.8198327274585608E-006
   8.2699999999999996E-002     4.8501497076358646E-006
   8.3799999999999986E-002     3.9153605939645786E-006
   8.4900000000000031E-002     1.3810363270749804E-006
   8.6000000000000021E-002    -1.3491352319761063E-006
   8.7100000000000011E-002    -2.5706642645673128E-006
   8.8200000000000001E-002    -1.2829628985855379E-006
   8.9299999999999990E-002     2.1326354726625141E-006
   9.0399999999999980E-002     6.0077773014199920E-006
   9.1500000000000026E-002     8.2644801295828074E-006
   9.2600000000000016E-002     7.6071569310443010E-006
   9.3700000000000006E-002     4.3361083044146653E-006
   9.4799999999999995E-002     2.7207275365981332E-007
   9.5899999999999985E-002    -2.2134072423796169E-006
   9.7000000000000031E-002    -1.5335212992795277E-006
   9.8100000000000021E-002     2.1854261831322219E-006
   9.9200000000000010E-002     7.1414601734431926E-006
  0.10030000000000000          1.0864867363125086E-005
  0.10139999999999999          1.1625384104263503E-005
  0.10249999999999998          9.4169290605350398E-006
  0.10360000000000003          5.9356402744015213E-006
  0.10470000000000002          3.5582879718276672E-006
  0.10580000000000001          3.9262286009034142E-006
  0.10690000000000000          6.9844913923589047E-006
  0.10799999999999998          1.1055524737457745E-005
  0.10910000000000003          1.3908184882893693E-005
  0.11020000000000002          1.4167279005050659E-005
  0.11130000000000001          1.2196485840831883E-005
  0.11240000000000000          9.8953014457947575E-006
  0.11349999999999999          9.5132800197461620E-006
  0.11460000000000004          1.2205433449707925E-005
  0.11570000000000003          1.7228487195097841E-005
  0.11680000000000001          2.2311833163257688E-005
  0.11790000000000000          2.5008164811879396E-005
  0.11899999999999999          2.4224969820352271E-005
  0.12009999999999998          2.0984754883102141E-005
  0.12120000000000003          1.7913236661115661E-005
  0.12230000000000002          1.7724263670970686E-005
  0.12340000000000001          2.1597894374281168E-005
  0.12450000000000000          2.8426828066585585E-005
  0.12559999999999999          3.5425637179287151E-005
  0.12670000000000003          3.9749458665028214E-005
  0.12780000000000002          4.0173628804041073E-005
  0.12890000000000001          3.7825786421308294E-005
  0.13000000000000000          3.5509183362592012E-005
  0.13109999999999999          3.6026929592480883E-005
  0.13219999999999998          4.0507624362362549E-005
  0.13330000000000003          4.7742800234118477E-005
  0.13440000000000002          5.4945223382674158E-005
  0.13550000000000001          5.9464651712914929E-005
  0.13660000000000000          6.0419526562327519E-005
  0.13769999999999999          5.9252597566228360E-005
  0.13880000000000003          5.8842713769990951E-005
  0.13990000000000002          6.1750273744110018E-005
  0.14100000000000001          6.8627312430180609E-005
  0.14210000000000000          7.7812946983613074E-005
  0.14319999999999999          8.6319683759938926E-005
  0.14429999999999998          9.1647161752916873E-005
  0.14540000000000003          9.3258880951907486E-005
  0.14650000000000002          9.2895694251637906E-005
  0.14760000000000001          9.3515525804832578E-005
  0.14870000000000000          9.7519667178858072E-005
  0.14979999999999999          1.0540783114265651E-004
  0.15090000000000003          1.1556601384654641E-004
  0.15200000000000002          1.2528349179774523E-004
  0.15310000000000001          1.3235943333711475E-004
  0.15420000000000000          1.3630678586196154E-004
  0.15529999999999999          1.3850700634066015E-004
  0.15639999999999998          1.4127344184089452E-004
  0.15750000000000003          1.4650091179646552E-004
  0.15860000000000002          1.5464254829566926E-004
  0.15970000000000001          1.6464489453937858E-004
  0.16080000000000000          1.7471588216722012E-004
  0.16189999999999999          1.8343309056945145E-004
  0.16300000000000003          1.9040949700865895E-004
  0.16410000000000002          1.9629903545137495E-004
  0.16520000000000001          2.0215768017806113E-004
  0.16630000000000000          2.0870483422186226E-004
  0.16739999999999999          2.1598284365609288E-004
  0.16850000000000004          2.2361193259712309E-004
  0.16960000000000003          2.3119628895074129E-004
  0.17070000000000002          2.3879605578258634E-004
  0.17180000000000001          2.4686602409929037E-004
  0.17290000000000000          2.5587333948351443E-004
  0.17399999999999999          2.6584320585243404E-004
  0.17510000000000003          2.7610323741100729E-004
  0.17620000000000002          2.8567816480062902E-004
  0.17730000000000001          2.9376655584201217E-004
  0.17840000000000000          3.0022946884855628E-004
  0.17949999999999999          3.0569970840588212E-004
  0.18060000000000004          3.1121156644076109E-004
  0.18170000000000003          3.1761350692249835E-004
  0.18280000000000002          3.2523905974812806E-004
  0.18390000000000001          3.3387239091098309E-004
  0.18500000000000000          3.4286308800801635E-004
  0.18609999999999999          3.5162875428795815E-004
  0.18720000000000003          3.5969036980532110E-004
  0.18830000000000002          3.6686961539089680E-004
  0.18940000000000001          3.7310775951482356E-004
  0.19050000000000000          3.7826781044714153E-004
  0.19159999999999999          3.8233801024034619E-004
  0.19270000000000004          3.8563567795790732E-004
  0.19380000000000003          3.8879399653524160E-004
  0.19490000000000002          3.9251381531357765E-004
  0.19600000000000001          3.9730090065859258E-004
  0.19710000000000000          4.0311500197276473E-004
  0.19819999999999999          4.0920358151197433E-004
  0.19930000000000003          4.1438933112658560E-004
  0.20040000000000002          4.1761496686376631E-004
  0.20150000000000001          4.1824011714197695E-004
  0.20260000000000000          4.1659208363853395E-004
  0.20369999999999999          4.1362104821018875E-004
  0.20480000000000004          4.1076279012486339E-004
  0.20590000000000003          4.0881175664253533E-004
  0.20700000000000002          4.0794699452817440E-004
  0.20810000000000001          4.0776593959890306E-004
  0.20920000000000000          4.0721197728998959E-004
  0.21029999999999999          4.0546883246861398E-004
  0.21140000000000003          4.0214826003648341E-004
  0.21250000000000002          3.9766466943547130E-004
  0.21360000000000001          3.9212321280501783E-004
  0.21470000000000000          3.8535657222382724E-004
  0.21579999999999999          3.7716838414780796E-004
  0.21690000000000004          3.6756545887328684E-004
  0.21800000000000003          3.5709704388864338E-004
  0.21910000000000002          3.4640854573808610E-004
  0.22020000000000001          3.3593768603168428E-004
  0.22130000000000000          3.2585172448307276E-004
  0.22239999999999999          3.1597682391293347E-004
  0.22350000000000003          3.0583192710764706E-004
  0.22460000000000002          2.9470503795892000E-004
  0.22570000000000001          2.8204655973240733E-004
  0.22680000000000000          2.6741606416180730E-004
  0.22789999999999999          2.5102950166910887E-004
  0.22900000000000004          2.3314844293054193E-004
  0.23010000000000003          2.1532890968956053E-004
  0.23120000000000002          1.9797787535935640E-004
  0.23230000000000001          1.8145551439374685E-004
  0.23340000000000000          1.6508273256476969E-004
  0.23450000000000004          1.4828912389930338E-004
  0.23560000000000003          1.3096623297315091E-004
  0.23670000000000002          1.1311444541206583E-004
  0.23780000000000001          9.4883733254391700E-005
  0.23890000000000000          7.5650605140253901E-005
  0.23999999999999999          5.4923770221648738E-005
  0.24110000000000004          3.2537624065298587E-005
  0.24220000000000003          9.3575163191417232E-006
  0.24330000000000002         -1.3806808965455275E-005
  0.24440000000000001         -3.5280278098070994E-005
  0.24550000000000000         -5.4462259868159890E-005
  0.24660000000000004         -7.2076305514201522E-005
  0.24770000000000003         -8.9768742327578366E-005
  0.24880000000000002         -1.0872774873860180E-004
  0.24990000000000001         -1.2959679588675499E-004
  0.25100000000000000         -1.5154300490394235E-004
  0.25209999999999999         -1.7344047955702990E-004
  0.25320000000000004         -1.9492537830956280E-004
  0.25430000000000003         -2.1542287140619010E-004
  0.25540000000000002         -2.3485069687012583E-004
  0.25650000000000001         -2.5309823104180396E-004
  0.25760000000000000         -2.7064696769230068E-004
  0.25870000000000004         -2.8749610646627843E-004
  0.25980000000000003         -3.0375327332876623E-004
  0.26090000000000002         -3.2052877941168845E-004
  0.26200000000000001         -3.3713984885253012E-004
  0.26310000000000000         -3.5346968797966838E-004
  0.26419999999999999         -3.6879573599435389E-004
  0.26530000000000004         -3.8343027699738741E-004
  0.26640000000000003         -3.9769790600985289E-004
  0.26750000000000002         -4.1101689566858113E-004
  0.26860000000000001         -4.2332365410402417E-004
  0.26970000000000000         -4.3420874862931669E-004
  0.27080000000000004         -4.4398655882105231E-004
  0.27190000000000003         -4.5266342931427062E-004
  0.27300000000000002         -4.6078499872237444E-004
  0.27410000000000001         -4.6805132296867669E-004
  0.27520000000000000         -4.7397729940712452E-004
  0.27629999999999999         -4.7966145211830735E-004
  0.27740000000000004         -4.8564825556240976E-004
  0.27850000000000003         -4.9168389523401856E-004
  0.27960000000000002         -4.9681524978950620E-004
  0.28070000000000001         -4.9974193098023534E-004
  0.28179999999999999         -5.0100509542971849E-004
  0.28290000000000004         -5.0122628454118967E-004
  0.28400000000000003         -5.0036481115967035E-004
  0.28510000000000002         -4.9840711290016770E-004
  0.28620000000000001         -4.9476395361125469E-004
  0.28730000000000000         -4.8998644342646003E-004
  0.28840000000000005         -4.8581146984361112E-004
  0.28950000000000004         -4.8268371028825641E-004
  0.29060000000000002         -4.8058410175144672E-004
  0.29170000000000001         -4.7750654630362988E-004
  0.29280000000000000         -4.7133100451901555E-004
  0.29389999999999999         -4.6208771527744830E-004
  0.29500000000000004         -4.5074254740029573E-004
  0.29610000000000003         -4.3970230035483837E-004
  0.29720000000000002         -4.2943452717736363E-004
  0.29830000000000001         -4.2033760109916329E-004
  0.29940000000000000         -4.1048505227081478E-004
  0.30050000000000004         -3.9954329258762300E-004
  0.30160000000000003         -3.8754835259169340E-004
  0.30270000000000002         -3.7591849104501307E-004
  0.30380000000000001         -3.6531055229716003E-004
  0.30490000000000000         -3.5343159106560051E-004
  0.30599999999999999         -3.3957921550609171E-004
  0.30709999999999998         -3.2287702197209001E-004
  0.30819999999999997         -3.0574234551750124E-004
  0.30930000000000007         -2.8975374880246818E-004
  0.31040000000000006         -2.7534284163266420E-004
  0.31150000000000005         -2.6155961677432060E-004
  0.31260000000000004         -2.4743276298977435E-004
  0.31370000000000003         -2.3211099323816597E-004
  0.31480000000000002         -2.1557438594754785E-004
  0.31590000000000001         -1.9906331726815552E-004
  0.31700000000000000         -1.8301152158528566E-004
  0.31809999999999999         -1.6841385513544083E-004
  0.31919999999999998         -1.5266526315826923E-004
  0.32029999999999997         -1.3622242840938270E-004
  0.32140000000000007         -1.1862420069519430E-004
  0.32250000000000006         -1.0098097845911980E-004
  0.32360000000000005         -8.4166989836376160E-005
  0.32470000000000004         -6.8236906372476369E-005
  0.32580000000000003         -5.2144205255899578E-005
  0.32690000000000002         -3.5529337765183300E-005
  0.32800000000000001         -1.9011949916603044E-005
  0.32910000000000000         -3.8336775105562992E-006
  0.33019999999999999          9.7161546364077367E-006
  0.33129999999999998          2.3693650291534141E-005
  0.33239999999999997          3.9954094972927123E-005
  0.33350000000000007          5.8611403801478446E-005
  0.33460000000000006          7.7728436735924333E-005
  0.33570000000000005          9.5094954303931445E-005
  0.33680000000000004          1.0966225818265229E-004
  0.33790000000000003          1.2178447650512680E-004
  0.33900000000000002          1.3359890726860613E-004
  0.34010000000000001          1.4739234757144004E-004
  0.34120000000000000          1.6292386862915009E-004
  0.34229999999999999          1.7902547551784664E-004
  0.34339999999999998          1.9525537209119648E-004
  0.34449999999999997          2.1054039825685322E-004
  0.34560000000000007          2.2451378754340112E-004
  0.34670000000000006          2.3723751655779779E-004
  0.34780000000000005          2.4869953631423414E-004
  0.34890000000000004          2.6056295610032976E-004
