 -0.20000000000000001          3.3660145959402143E-007
 -0.19890000000000002          7.5955773581881658E-007
 -0.19780000000000000          6.4530996723988210E-007
 -0.19670000000000001          1.9711990262294421E-007
 -0.19560000000000002         -8.5853827158643981E-008
 -0.19450000000000001          6.6625105432649434E-008
 -0.19340000000000002          4.3002987126783410E-007
 -0.19230000000000000          5.5041982705006376E-007
 -0.19120000000000001          2.5164507633235189E-007
 -0.19010000000000002         -1.5813067477665754E-007
 -0.18900000000000000         -2.0287663460294425E-007
 -0.18790000000000001          2.5438731654503499E-007
 -0.18680000000000002          8.5086088574826135E-007
 -0.18570000000000000          1.0842561550816754E-006
 -0.18460000000000001          8.2166201309519238E-007
 -0.18350000000000000          4.2732503402476141E-007
 -0.18240000000000001          3.7783638617838733E-007
 -0.18130000000000002          7.6859720365973772E-007
 -0.18020000000000000          1.2266068551980425E-006
 -0.17910000000000001          1.3163944458938204E-006
 -0.17800000000000002          1.0089421493830741E-006
 -0.17690000000000000          7.1976194249145919E-007
 -0.17580000000000001          8.7661288716844865E-007
 -0.17470000000000002          1.4712103393321740E-006
 -0.17360000000000000          2.0650054466386791E-006
 -0.17250000000000001          2.2424253529607086E-006
 -0.17140000000000000          2.0373784082039492E-006
 -0.17030000000000001          1.8895492530646152E-006
 -0.16920000000000002          2.1807375105709070E-006
 -0.16810000000000000          2.8389144972607028E-006
 -0.16700000000000001          3.4221775422338396E-006
 -0.16589999999999999          3.5896723602490965E-006
 -0.16480000000000000          3.4634913390618749E-006
 -0.16370000000000001          3.5044527066929732E-006
 -0.16260000000000002          4.0359832382819150E-006
 -0.16150000000000000          4.9157547437062021E-006
 -0.16040000000000001          5.6943999879877083E-006
 -0.15930000000000000          6.0884831327712163E-006
 -0.15820000000000001          6.2702638388145715E-006
 -0.15710000000000002          6.6762745518644806E-006
 -0.15600000000000000          7.5442981142259669E-006
 -0.15490000000000001          8.6688041847082786E-006
 -0.15379999999999999          9.6281546575482935E-006
 -0.15270000000000000          1.0238086360914167E-005
 -0.15160000000000001          1.0751779882411938E-005
 -0.15050000000000002          1.1599040590226650E-005
 -0.14940000000000001          1.2943379260832444E-005
 -0.14830000000000002          1.4523419849865604E-005
 -0.14720000000000000          1.5940742741804570E-005
 -0.14610000000000001          1.7085878425859846E-005
 -0.14500000000000002          1.8253720554639585E-005
 -0.14390000000000000          1.9832044927170500E-005
 -0.14280000000000001          2.1896901671425439E-005
 -0.14169999999999999          2.4142340407706797E-005
 -0.14060000000000000          2.6214769604848698E-005
 -0.13950000000000001          2.8095622838009149E-005
 -0.13840000000000002          3.0129069273243658E-005
 -0.13730000000000001          3.2669224310666323E-005
 -0.13619999999999999          3.5721775930142030E-005
 -0.13510000000000000          3.8956670323386788E-005
 -0.13400000000000001          4.2074534576386213E-005
 -0.13290000000000002          4.5137283450458199E-005
 -0.13180000000000000          4.8515015805605799E-005
 -0.13070000000000001          5.2508356020553038E-005
 -0.12959999999999999          5.7045657740673050E-005
 -0.12850000000000000          6.1772945628035814E-005
 -0.12740000000000001          6.6439642978366464E-005
 -0.12630000000000002          7.1174174081534147E-005
 -0.12520000000000001          7.6362855907063931E-005
 -0.12410000000000000          8.2263737567700446E-005
 -0.12300000000000001          8.8761851657181978E-005
 -0.12190000000000001          9.5519135356880724E-005
 -0.12080000000000000          1.0235611262032762E-004
 -0.11970000000000000          1.0946173279080540E-004
 -0.11860000000000001          1.1721442569978535E-004
 -0.11750000000000001          1.2580658949445933E-004
 -0.11640000000000000          1.3506774848792702E-004
 -0.11530000000000000          1.4466878201346844E-004
 -0.11420000000000001          1.5448867634404451E-004
 -0.11310000000000001          1.6476039309054613E-004
 -0.11200000000000000          1.7584771558176726E-004
 -0.11090000000000001          1.8789259775076061E-004
 -0.10980000000000001          2.0070293976459652E-004
 -0.10870000000000000          2.1399093384388834E-004
 -0.10760000000000000          2.2770639043301344E-004
 -0.10650000000000001          2.4211466370616108E-004
 -0.10540000000000001          2.5754387024790049E-004
 -0.10430000000000000          2.7407173183746636E-004
 -0.10320000000000000          2.9147931491024792E-004
 -0.10210000000000001          3.0951580265536904E-004
 -0.10100000000000001          3.2819015905261040E-004
  -9.9900000000000003E-002     3.4778562257997692E-004
  -9.8799999999999999E-002     3.6858848761767149E-004
  -9.7700000000000009E-002     3.9061959250830114E-004
  -9.6600000000000005E-002     4.1365012293681502E-004
  -9.5500000000000002E-002     4.3747789459303021E-004
  -9.4400000000000012E-002     4.6216900227591395E-004
  -9.3300000000000008E-002     4.8801378579810262E-004
  -9.2200000000000004E-002     5.1524996524676681E-004
  -9.1100000000000000E-002     5.4384605027735233E-004
  -9.0000000000000011E-002     5.7357107289135456E-004
  -8.8900000000000007E-002     6.0426763957366347E-004
  -8.7800000000000003E-002     6.3604075694456697E-004
  -8.6699999999999999E-002     6.6916714422404766E-004
  -8.5600000000000009E-002     7.0382439298555255E-004
  -8.4500000000000006E-002     7.3992909165099263E-004
  -8.3400000000000002E-002     7.7725038863718510E-004
  -8.2299999999999998E-002     8.1567210145294666E-004
  -8.1200000000000008E-002     8.5532938828691840E-004
  -8.0100000000000005E-002     8.9648284483700991E-004
  -7.9000000000000001E-002     9.3925918918102980E-004
  -7.7899999999999997E-002     9.8353624343872070E-004
  -7.6800000000000007E-002     1.0290871141478419E-003
  -7.5700000000000003E-002     1.0758271673694253E-003
  -7.4600000000000000E-002     1.1239043669775128E-003
  -7.3500000000000010E-002     1.1735419975593686E-003
  -7.2399999999999992E-002     1.2248026905581355E-003
  -7.1300000000000002E-002     1.2775242794305086E-003
  -7.0200000000000012E-002     1.3314872048795223E-003
  -6.9099999999999995E-002     1.3866330264136195E-003
  -6.8000000000000005E-002     1.4431031886488199E-003
  -6.6900000000000015E-002     1.5010703355073929E-003
  -6.5799999999999997E-002     1.5605443622916937E-003
  -6.4700000000000008E-002     1.6213435446843505E-003
  -6.3599999999999990E-002     1.6832654364407063E-003
  -6.2500000000000000E-002     1.7462676623836160E-003
  -6.1400000000000010E-002     1.8104760674759746E-003
  -6.0299999999999992E-002     1.8760118400678039E-003
  -5.9200000000000003E-002     1.9428194500505924E-003
  -5.8100000000000013E-002     2.0106930751353502E-003
  -5.6999999999999995E-002     2.0794409792870283E-003
  -5.5900000000000005E-002     2.1490256767719984E-003
  -5.4800000000000015E-002     2.2195361088961363E-003
  -5.3699999999999998E-002     2.2910279221832752E-003
  -5.2600000000000008E-002     2.3634058889001608E-003
  -5.1499999999999990E-002     2.4364616256207228E-003
  -5.0400000000000000E-002     2.5100242346525192E-003
  -4.9300000000000010E-002     2.5840669404715300E-003
  -4.8199999999999993E-002     2.6586432941257954E-003
  -4.7100000000000003E-002     2.7337479405105114E-003
  -4.6000000000000013E-002     2.8092421125620604E-003
  -4.4899999999999995E-002     2.8849088121205568E-003
  -4.3800000000000006E-002     2.9605845920741558E-003
  -4.2699999999999988E-002     3.0362324323505163E-003
  -4.1599999999999998E-002     3.1118798069655895E-003
  -4.0500000000000008E-002     3.1874736305326223E-003
  -3.9399999999999991E-002     3.2628383487462997E-003
  -3.8300000000000001E-002     3.3377616200596094E-003
  -3.7200000000000011E-002     3.4121114294975996E-003
  -3.6099999999999993E-002     3.4858572762459517E-003
  -3.5000000000000003E-002     3.5589807666838169E-003
  -3.3900000000000013E-002     3.6313892342150211E-003
  -3.2799999999999996E-002     3.7029096856713295E-003
  -3.1700000000000006E-002     3.7733565550297499E-003
  -3.0599999999999988E-002     3.8426087703555822E-003
  -2.9499999999999998E-002     3.9106165058910847E-003
  -2.8400000000000009E-002     3.9773243479430676E-003
  -2.7299999999999991E-002     4.0426161140203476E-003
  -2.6200000000000001E-002     4.1063181124627590E-003
  -2.5100000000000011E-002     4.1682827286422253E-003
  -2.3999999999999994E-002     4.2284466326236725E-003
  -2.2900000000000004E-002     4.2867455631494522E-003
  -2.1800000000000014E-002     4.3430877849459648E-003
  -2.0699999999999996E-002     4.3973494321107864E-003
  -1.9600000000000006E-002     4.4494089670479298E-003
  -1.8499999999999989E-002     4.4991909526288509E-003
  -1.7399999999999999E-002     4.5466297306120396E-003
  -1.6300000000000009E-002     4.5916312374174595E-003
  -1.5199999999999991E-002     4.6340911649167538E-003
  -1.4100000000000001E-002     4.6739252284169197E-003
  -1.3000000000000012E-002     4.7110561281442642E-003
  -1.1899999999999994E-002     4.7454168088734150E-003
  -1.0800000000000004E-002     4.7769583761692047E-003
  -9.6999999999999864E-003     4.8056459054350853E-003
  -8.5999999999999965E-003     4.8314044252038002E-003
  -7.5000000000000067E-003     4.8541687428951263E-003
  -6.3999999999999890E-003     4.8739016056060791E-003
  -5.2999999999999992E-003     4.8905848525464535E-003
  -4.2000000000000093E-003     4.9041882157325745E-003
  -3.0999999999999917E-003     4.9146730452775955E-003
  -2.0000000000000018E-003     4.9220104701817036E-003
  -9.0000000000001190E-004     4.9261697567999363E-003
   2.0000000000000573E-004     4.9271616153419018E-003
   1.2999999999999956E-003     4.9250167794525623E-003
   2.4000000000000132E-003     4.9197147600352764E-003
   3.5000000000000031E-003     4.9112224951386452E-003
   4.5999999999999930E-003     4.8995744436979294E-003
   5.7000000000000106E-003     4.8848278820514679E-003
   6.8000000000000005E-003     4.8670340329408646E-003
   7.8999999999999904E-003     4.8462115228176117E-003
   9.0000000000000080E-003     4.8223803751170635E-003
   1.0099999999999998E-002     4.7955689951777458E-003
   1.1199999999999988E-002     4.7657997347414494E-003
   1.2300000000000005E-002     4.7331480309367180E-003
   1.3399999999999995E-002     4.6977340243756771E-003
   1.4500000000000013E-002     4.6596471220254898E-003
   1.5600000000000003E-002     4.6189040876924992E-003
   1.6699999999999993E-002     4.5755296014249325E-003
   1.7800000000000010E-002     4.5296167954802513E-003
   1.8900000000000000E-002     4.4812615960836411E-003
   1.9999999999999990E-002     4.4306130148470402E-003
   2.1100000000000008E-002     4.3778028339147568E-003
   2.2199999999999998E-002     4.3228394351899624E-003
   2.3300000000000015E-002     4.2657554149627686E-003
   2.4400000000000005E-002     4.2066895402967930E-003
   2.5499999999999995E-002     4.1457703337073326E-003
   2.6600000000000013E-002     4.0831477381289005E-003
   2.7700000000000002E-002     4.0189726278185844E-003
   2.8799999999999992E-002     3.9532538503408432E-003
   2.9900000000000010E-002     3.8860440254211426E-003
   3.1000000000000000E-002     3.8174528162926435E-003
   3.2099999999999990E-002     3.7476597353816032E-003
   3.3200000000000007E-002     3.6768848076462746E-003
   3.4299999999999997E-002     3.6051769275218248E-003
   3.5400000000000015E-002     3.5325565841048956E-003
   3.6500000000000005E-002     3.4591255243867636E-003
   3.7599999999999995E-002     3.3850222826004028E-003
   3.8700000000000012E-002     3.3104056492447853E-003
   3.9800000000000002E-002     3.2353734131902456E-003
   4.0899999999999992E-002     3.1600396614521742E-003
   4.2000000000000010E-002     3.0844858847558498E-003
   4.3099999999999999E-002     3.0087283812463284E-003
   4.4200000000000017E-002     2.9328933451324701E-003
   4.5300000000000007E-002     2.8571684379130602E-003
   4.6399999999999997E-002     2.7816961519420147E-003
   4.7500000000000014E-002     2.7064967434853315E-003
   4.8600000000000004E-002     2.6315948925912380E-003
   4.9699999999999994E-002     2.5570965372025967E-003
   5.0800000000000012E-002     2.4830787442624569E-003
   5.1900000000000002E-002     2.4096556007862091E-003
   5.2999999999999992E-002     2.3369700647890568E-003
   5.4099999999999981E-002     2.2650870960205793E-003
   5.5200000000000027E-002     2.1939740981906652E-003
   5.6300000000000017E-002     2.1236150059849024E-003
   5.7400000000000007E-002     2.0541113335639238E-003
   5.8499999999999996E-002     1.9856586586683989E-003
   5.9599999999999986E-002     1.9183753756806254E-003
   6.0700000000000032E-002     1.8522572936490178E-003
   6.1800000000000022E-002     1.7872228054329753E-003
   6.2900000000000011E-002     1.7232435056939721E-003
   6.4000000000000001E-002     1.6604457050561905E-003
   6.5099999999999991E-002     1.5989271923899651E-003
   6.6199999999999981E-002     1.5388020547106862E-003
   6.7300000000000026E-002     1.4800538774579763E-003
   6.8400000000000016E-002     1.4225890627130866E-003
   6.9500000000000006E-002     1.3664279831573367E-003
   7.0599999999999996E-002     1.3115095207467675E-003
   7.1699999999999986E-002     1.2579518370330334E-003
   7.2800000000000031E-002     1.2059789150953293E-003
   7.3900000000000021E-002     1.1555622331798077E-003
   7.5000000000000011E-002     1.1065022554248571E-003
   7.6100000000000001E-002     1.0586563730612397E-003
   7.7199999999999991E-002     1.0121548548340797E-003
   7.8299999999999981E-002     9.6715666586533189E-004
   7.9400000000000026E-002     9.2370260972529650E-004
   8.0500000000000016E-002     8.8170706294476986E-004
   8.1600000000000006E-002     8.4095407510176301E-004
   8.2699999999999996E-002     8.0141110811382532E-004
   8.3799999999999986E-002     7.6326553244143724E-004
   8.4900000000000031E-002     7.2659476427361369E-004
   8.6000000000000021E-002     6.9129699841141701E-004
   8.7100000000000011E-002     6.5725407330319285E-004
   8.8200000000000001E-002     6.2438857275992632E-004
   8.9299999999999990E-002     5.9272896032780409E-004
   9.0399999999999980E-002     5.6237302487716079E-004
   9.1500000000000026E-002     5.3332897368818521E-004
   9.2600000000000016E-002     5.0548679428175092E-004
   9.3700000000000006E-002     4.7876904136501253E-004
   9.4799999999999995E-002     4.5309014967642725E-004
   9.5899999999999985E-002     4.2846237192861736E-004
   9.7000000000000031E-002     4.0492645348422229E-004
   9.8100000000000021E-002     3.8249461795203388E-004
   9.9200000000000010E-002     3.6119131254963577E-004
  0.10030000000000000          3.4082910860888660E-004
  0.10139999999999999          3.2125317375175655E-004
  0.10249999999999998          3.0253280419856310E-004
  0.10360000000000003          2.8475763974711299E-004
  0.10470000000000002          2.6800099294632673E-004
  0.10580000000000001          2.5221396936103702E-004
  0.10690000000000000          2.3711952962912619E-004
  0.10799999999999998          2.2259546676650643E-004
  0.10910000000000003          2.0872733148280531E-004
  0.11020000000000002          1.9568622519727796E-004
  0.11130000000000001          1.8354956409893930E-004
  0.11240000000000000          1.7212993407156318E-004
  0.11349999999999999          1.6118289204314351E-004
  0.11460000000000004          1.5063511091284454E-004
  0.11570000000000003          1.4064140850678086E-004
  0.11680000000000001          1.3137697533238679E-004
  0.11790000000000000          1.2281734962016344E-004
  0.11899999999999999          1.1477104999357834E-004
  0.12009999999999998          1.0705067688832060E-004
  0.12120000000000003          9.9652155768126249E-005
  0.12230000000000002          9.2689559096470475E-005
  0.12340000000000001          8.6248444858938456E-005
  0.12450000000000000          8.0316596722695976E-005
  0.12559999999999999          7.4751413194462657E-005
  0.12670000000000003          6.9426598201971501E-005
  0.12780000000000002          6.4309562731068581E-005
  0.12890000000000001          5.9534748288569972E-005
  0.13000000000000000          5.5256972700590268E-005
  0.13109999999999999          5.1398827054072171E-005
  0.13219999999999998          4.7744382754899561E-005
  0.13330000000000003          4.4130676542408764E-005
  0.13440000000000002          4.0594379242975265E-005
  0.13550000000000001          3.7371788494056091E-005
  0.13660000000000000          3.4605494874995202E-005
  0.13769999999999999          3.2144755095941946E-005
  0.13880000000000003          2.9720680686295964E-005
  0.13990000000000002          2.7251791834714822E-005
  0.14100000000000001          2.4892902729334310E-005
  0.14210000000000000          2.2880309188622050E-005
  0.14319999999999999          2.1234382074908353E-005
  0.14429999999999998          1.9710678316187114E-005
  0.14540000000000003          1.8121789253200404E-005
  0.14650000000000002          1.6504382074344903E-005
  0.14760000000000001          1.5005123714217916E-005
  0.14870000000000000          1.3754382962360978E-005
  0.14979999999999999          1.2727716239169240E-005
  0.15090000000000003          1.1762161193473730E-005
  0.15200000000000002          1.0764013495645486E-005
  0.15310000000000001          9.7291986094205640E-006
  0.15420000000000000          8.7636426542303525E-006
  0.15529999999999999          7.9773462857701816E-006
  0.15639999999999998          7.3703095040400513E-006
  0.15750000000000003          6.8651243054773659E-006
  0.15860000000000002          6.3314205362985376E-006
  0.15970000000000001          5.6917911024356727E-006
  0.16080000000000000          5.0440135055396240E-006
  0.16189999999999999          4.5714209591096733E-006
  0.16300000000000003          4.2821620809263550E-006
  0.16410000000000002          4.0132736103259958E-006
  0.16520000000000001          3.6180886127112899E-006
  0.16630000000000000          3.1251256586983800E-006
  0.16739999999999999          2.7299404337099986E-006
  0.16850000000000004          2.5099404865613906E-006
  0.16960000000000003          2.3999405129870865E-006
  0.17070000000000002          2.2817923763795989E-006
  0.17180000000000001          2.0454961031646235E-006
  0.17290000000000000          1.7358665900246706E-006
  0.17399999999999999          1.4710518598803901E-006
  0.17510000000000003          1.3447555602397188E-006
  0.17620000000000002          1.3488296417563106E-006
  0.17730000000000001          1.3366075108933728E-006
  0.17840000000000000          1.2062372434229474E-006
  0.17949999999999999          9.7808913324115565E-007
  0.18060000000000004          7.3771883535300731E-007
  0.18170000000000003          5.9105218497279566E-007
  0.18280000000000002          6.0734845419574413E-007
  0.18390000000000001          6.9290399551391602E-007
  0.18500000000000000          7.0920032158028334E-007
  0.18609999999999999          5.7475591574984719E-007
  0.18720000000000003          3.6697815630759578E-007
  0.18830000000000002          2.7327445195624023E-007
  0.18940000000000001          3.2623739798509632E-007
  0.19050000000000000          4.3216331846451794E-007
  0.19159999999999999          4.5660777914235950E-007
  0.19270000000000004          3.1808929179533152E-007
  0.19380000000000003          1.2660784420859272E-007
  0.19490000000000002          4.1052299337707154E-008
  0.19600000000000001          7.7718965485473746E-008
  0.19710000000000000          1.9179303478722431E-007
  0.19819999999999999          2.5290415806011879E-007
  0.19930000000000003          1.7957084708086768E-007
  0.20040000000000002          4.5126416381435774E-008
  0.20150000000000001         -7.8365420819181963E-009
  0.20260000000000000          6.5496784884544468E-008
  0.20369999999999999          1.7142269825853873E-007
  0.20480000000000004          1.8771899590319663E-007
  0.20590000000000003          8.5867164045794198E-008
  0.20700000000000002         -4.4503192242473233E-008
  0.20810000000000001         -7.7095783979075350E-008
  0.20920000000000000          2.0681982348946804E-008
  0.21029999999999999          1.4697826600240660E-007
  0.21140000000000003          1.5920048213047266E-007
  0.21250000000000002          3.2904200253369709E-008
  0.21360000000000001         -1.0154022334063484E-007
  0.21470000000000000         -9.7466156034897722E-008
  0.21579999999999999          4.5126419934149453E-008
  0.21690000000000004          1.4290418448581477E-007
  0.21800000000000003          9.8089373068432906E-008
  0.21910000000000002         -3.6355057630998999E-008
  0.22020000000000001         -1.2598466980762169E-007
  0.22130000000000000         -8.1169858390239824E-008
  0.22239999999999999          6.1422717578807351E-008
  0.22350000000000003          1.8771899590319663E-007
  0.22460000000000002          1.4290418448581477E-007
  0.22570000000000001         -5.6725422581394014E-008
  0.22680000000000000         -2.0746614382005646E-007
  0.22789999999999999         -1.5450319779120036E-007
  0.22900000000000004          4.5126405723294738E-008
  0.23010000000000003          1.9179306320893375E-007
  0.23120000000000002          1.1845973801882792E-007
  0.23230000000000001         -9.7466156034897722E-008
  0.23340000000000000         -2.0746612960920174E-007
  0.23450000000000004         -1.0968836505753643E-007
  0.23560000000000003          1.0623752899618921E-007
  0.23670000000000002          2.2031159119251242E-007
  0.23780000000000001          1.2660790105201158E-007
  0.23890000000000000         -6.4873553640154569E-008
  0.23999999999999999         -1.7487353431988595E-007
  0.24110000000000004         -1.1376242525784619E-007
  0.24220000000000003          3.6978299533529935E-008
  0.24330000000000002          1.3475606408519525E-007
  0.24440000000000001          8.9941252667813387E-008
  0.24550000000000000         -7.7095755557365919E-008
  0.24660000000000004         -1.9116980354283442E-007
  0.24770000000000003         -1.0561425511923517E-007
  0.24880000000000002          9.8089415700997051E-008
  0.24990000000000001          1.9586717314723501E-007
  0.25100000000000000          6.9570887717418373E-008
  0.25209999999999999         -1.4228093903057015E-007
  0.25320000000000004         -1.7894760162562307E-007
  0.25430000000000003         -2.4132811304866664E-008
  0.25540000000000002          1.2660790105201158E-007
  0.25650000000000001          1.3475604987434053E-007
  0.25760000000000000         -7.8365234301713826E-009
  0.25870000000000004         -1.6265131819181988E-007
  0.25980000000000003         -1.7487353431988595E-007
  0.26090000000000002         -4.0429107173167722E-008
  0.26200000000000001          1.1031161051278104E-007
  0.26310000000000000          1.6734864516365633E-007
  0.26419999999999999          7.7719036539747322E-008
  0.26530000000000004         -7.3021681146201445E-008
  0.26640000000000003         -1.3413279020824120E-007
  0.26750000000000002         -3.2280961903552452E-008
  0.26860000000000001          1.3068196835774870E-007
  0.26970000000000000          1.8364492859745951E-007
  0.27080000000000004          7.3644947917728132E-008
  0.27190000000000003         -1.0561428354094460E-007
  0.27300000000000002         -1.6672538549755700E-007
  0.27410000000000001         -5.2651330406661145E-008
  0.27520000000000000          1.0216346169045210E-007
  0.27629999999999999          1.5512641482473555E-007
  0.27740000000000004          6.5496791989971825E-008
  0.27850000000000003         -7.3021709567910875E-008
  0.27960000000000002         -1.2598466980762169E-007
  0.28070000000000001         -4.4503202900614269E-008
  0.28179999999999999          1.0623752189076185E-007
  0.28290000000000004          1.6327454943620978E-007
  0.28400000000000003          5.3274561651051044E-008
  0.28510000000000002         -1.0968837926839115E-007
  0.28620000000000001         -1.6672541391926643E-007
  0.28730000000000000         -6.8947656473028474E-008
  0.28840000000000005          8.9941217140676599E-008
  0.28950000000000004          1.2660788684115687E-007
  0.29060000000000002          1.2533825533012077E-008
  0.29170000000000001         -8.5243939906831656E-008
  0.29280000000000000         -7.3021716673338233E-008
  0.29389999999999999          2.0681975243519446E-008
  0.29500000000000004          1.0216344037417002E-007
  0.29610000000000003          7.7718993907183176E-008
  0.29720000000000002         -2.0058767091768459E-008
  0.29830000000000001         -1.0154023755148955E-007
  0.29940000000000000         -8.5243939906831656E-008
  0.30050000000000004          4.1052338417557621E-008
  0.30160000000000003          1.1031158209107161E-007
  0.30270000000000002          3.2904182489801315E-008
  0.30380000000000001         -9.7466170245752437E-008
  0.30490000000000000         -1.5450319779120036E-007
  0.30599999999999999         -4.0429142700304510E-008
  0.30709999999999998          1.3883008875836822E-007
  0.30819999999999997          1.7957083287001296E-007
  0.30930000000000007          6.5496777779117110E-008
  0.31040000000000006         -7.7095798189930065E-008
  0.31150000000000005         -1.3413283284080535E-007
  0.31260000000000004         -4.8577295075347138E-008
  0.31370000000000003          8.5867128518657410E-008
  0.31480000000000002          1.2253379111371032E-007
  0.31590000000000001          3.2904175384373957E-008
  0.31700000000000000         -1.1783654940700217E-007
  0.31809999999999999         -1.9931800920858223E-007
  0.31919999999999998         -1.0968838637381850E-007
  0.32029999999999997          7.7718993907183176E-008
  0.32140000000000007          1.7957083287001296E-007
  0.32250000000000006          1.2660787263030215E-007
  0.32360000000000005         -7.8365554045944918E-009
  0.32470000000000004         -1.3413283284080535E-007
  0.32580000000000003         -1.0968839347924586E-007
  0.32690000000000002          6.9570837979426869E-008
  0.32800000000000001          1.8364488596489537E-007
  0.32910000000000000          1.2253377690285561E-007
  0.33019999999999999         -4.8577309286201853E-008
  0.33129999999999998         -1.5857729351864691E-007
  0.33239999999999997         -1.1376248210126505E-007
  0.33350000000000007          3.2904164726232921E-008
  0.33460000000000006          1.2253377690285561E-007
  0.33570000000000005          6.9570823768572154E-008
  0.33680000000000004         -4.0429160463872904E-008
  0.33790000000000003         -8.1169901022803970E-008
  0.33900000000000002         -1.1910656461111557E-008
  0.34010000000000001          6.5496735146552965E-008
  0.34120000000000000          9.4015248919276928E-008
  0.34229999999999999          4.5126370196157950E-008
  0.34339999999999998         -5.2651390802793685E-008
  0.34449999999999997         -8.9318049845132919E-008
  0.34560000000000007         -2.0058797289834729E-008
  0.34670000000000006          8.1793039896638220E-008
  0.34780000000000005          7.7718965485473746E-008
  0.34890000000000004         -2.0058795513477889E-008
