 -0.20000000000000001          0.0000000000000000
 -0.19890000000000002          0.0000000000000000
 -0.19780000000000000          0.0000000000000000
 -0.19670000000000001          0.0000000000000000
 -0.19560000000000002          0.0000000000000000
 -0.19450000000000001          0.0000000000000000
 -0.19340000000000002          0.0000000000000000
 -0.19230000000000000          0.0000000000000000
 -0.19120000000000001         -7.5716831020436422E-016
 -0.19010000000000002         -4.7409221798464649E-015
 -0.18900000000000000         -2.5434622754432792E-015
 -0.18790000000000001          7.3673848326273367E-014
 -0.18680000000000002          3.2561380349828493E-013
 -0.18570000000000000          4.5346408919507807E-013
 -0.18460000000000001         -1.0708631247372990E-012
 -0.18350000000000000         -6.2677914074161115E-012
 -0.18240000000000001         -1.1727746378197858E-011
 -0.18130000000000002          4.4324434530885389E-013
 -0.18020000000000000          5.5861145570325526E-011
 -0.17910000000000001          1.3816554844669626E-010
 -0.17800000000000002          1.1490149803837205E-010
 -0.17690000000000000         -2.3598095699741826E-010
 -0.17580000000000001         -9.3391161470889611E-010
 -0.17470000000000002         -1.3221221895064575E-009
 -0.17360000000000000         -3.4108715851548998E-011
 -0.17250000000000001          3.7522371876265152E-009
 -0.17140000000000000          7.9436874855783785E-009
 -0.17030000000000001          6.4604614991016102E-009
 -0.16920000000000002         -6.8898713401222305E-009
 -0.16810000000000000         -2.9146919544586731E-008
 -0.16700000000000001         -4.0952510715893631E-008
 -0.16589999999999999         -1.4290606920036368E-008
 -0.16480000000000000          5.9496855442379093E-008
 -0.16370000000000001          1.3915932584040359E-007
 -0.16260000000000002          1.3829243528105471E-007
 -0.16150000000000000         -1.0199551425691629E-008
 -0.16040000000000001         -2.6232902428091562E-007
 -0.15930000000000000         -4.3484084244478905E-007
 -0.15820000000000001         -3.1621163998345667E-007
 -0.15710000000000002          1.2824696682404678E-007
 -0.15600000000000000          6.4228237306447052E-007
 -0.15490000000000001          8.3206947465428039E-007
 -0.15379999999999999          5.2717825838030998E-007
 -0.15270000000000000         -1.7980285038522312E-009
 -0.15160000000000001         -3.1237900088832117E-007
 -0.15050000000000002         -4.1179882259683131E-007
 -0.14940000000000001         -1.0071296401292145E-006
 -0.14830000000000002         -2.7029141165261417E-006
 -0.14720000000000000         -4.5161518755781958E-006
 -0.14610000000000001         -3.3963963232965336E-006
 -0.14500000000000002          3.5816913168680807E-006
 -0.14390000000000000          1.4974572877692012E-005
 -0.14280000000000001          2.2475609512185506E-005
 -0.14169999999999999          1.4645677765655509E-005
 -0.14060000000000000         -1.2938279724042867E-005
 -0.13950000000000001         -4.8155692638832508E-005
 -0.13840000000000002         -6.4057014242279949E-005
 -0.13730000000000001         -3.6357087083155273E-005
 -0.13619999999999999          3.2819552870941396E-005
 -0.13510000000000000          1.0527671111049621E-004
 -0.13400000000000001          1.2623597285709817E-004
 -0.13290000000000002          6.5473526774426083E-005
 -0.13180000000000000         -5.0873608415728299E-005
 -0.13070000000000001         -1.4970716438256581E-004
 -0.12959999999999999         -1.6329277423209141E-004
 -0.12850000000000000         -8.5617568402062766E-005
 -0.12740000000000001          1.9321982108537768E-005
 -0.12630000000000002          7.3970128141804105E-005
 -0.12520000000000001          6.3619685533899045E-005
 -0.12410000000000000          5.6699936976635040E-005
 -0.12300000000000001          1.3278530968819011E-004
 -0.12190000000000001          2.7193652931603547E-004
 -0.12080000000000000          3.1884887721392340E-004
 -0.11970000000000000          9.3163391284173630E-005
 -0.11860000000000001         -4.1423179209237377E-004
 -0.11750000000000001         -9.3161320546648451E-004
 -0.11640000000000000         -1.0294294916093564E-003
 -0.11530000000000000         -4.4162906124250339E-004
 -0.11420000000000001          6.4841116545734476E-004
 -0.11310000000000001          1.6230968758464952E-003
 -0.11200000000000000          1.8073057290166660E-003
 -0.11090000000000001          9.6334150293829262E-004
 -0.10980000000000001         -4.8256022273581838E-004
 -0.10870000000000000         -1.6964037204162583E-003
 -0.10760000000000000         -2.0096567459404269E-003
 -0.10650000000000001         -1.3685427838934911E-003
 -0.10540000000000001         -3.0177377630007676E-004
 -0.10430000000000000          5.5326148867614370E-004
 -0.10320000000000000          9.4747659750276422E-004
 -0.10210000000000001          1.1048996821044737E-003
 -0.10100000000000001          1.3389725936576407E-003
  -9.9900000000000003E-002     1.5890885842965142E-003
  -9.8799999999999999E-002     1.3634741771967876E-003
  -9.7700000000000009E-002     2.0835798932244054E-004
  -9.6600000000000005E-002    -1.6936009051280211E-003
  -9.5500000000000002E-002    -3.3820560202006420E-003
  -9.4400000000000012E-002    -3.6756456829610982E-003
  -9.3300000000000008E-002    -2.0601111464202833E-003
  -9.2200000000000004E-002     7.9712708247862464E-004
  -9.1100000000000000E-002     3.3645310904836944E-003
  -9.0000000000000011E-002     4.2117917910223590E-003
  -8.8900000000000007E-002     2.9322914779187567E-003
  -8.7800000000000003E-002     3.7342580617370774E-004
  -8.6699999999999999E-002    -1.9446325022733331E-003
  -8.5600000000000009E-002    -2.7731179725383830E-003
  -8.4500000000000006E-002    -1.8164807697759618E-003
  -8.3400000000000002E-002     2.0088980090821835E-004
  -8.2299999999999998E-002     2.0084904972466210E-003
  -8.1200000000000008E-002     2.4750458542257756E-003
  -8.0100000000000005E-002     1.1773917358366291E-003
  -7.9000000000000001E-002    -1.3579403748737991E-003
  -7.7899999999999997E-002    -3.8453992456195974E-003
  -7.6800000000000007E-002    -4.8449137248091495E-003
  -7.5700000000000003E-002    -3.5496021155257814E-003
  -7.4600000000000000E-002    -3.1573997694000675E-004
  -7.3500000000000010E-002     3.4682007972148669E-003
  -7.2399999999999992E-002     6.1674658209073391E-003
  -7.1300000000000002E-002     6.8058059550805761E-003
  -7.0200000000000012E-002     5.3959013894189362E-003
  -6.9099999999999995E-002     2.4736088234931725E-003
  -6.8000000000000005E-002    -1.6314525855693723E-003
  -6.6900000000000015E-002    -6.9489311426862580E-003
  -6.5799999999999997E-002    -1.3159276917575657E-002
  -6.4700000000000008E-002    -1.8732532858848135E-002
  -6.3599999999999990E-002    -2.1066136658191500E-002
  -6.2500000000000000E-002    -1.8043547868727920E-002
  -6.1400000000000010E-002    -1.0019076056776733E-002
  -6.0299999999999992E-002    -4.4458030606390477E-004
  -5.9200000000000003E-002     5.8557237498480779E-003
  -5.8100000000000013E-002     5.8263828977947142E-003
  -5.6999999999999995E-002     3.6736507899954874E-004
  -5.5900000000000005E-002    -6.3235010020451527E-003
  -5.4800000000000015E-002    -9.9338199943313742E-003
  -5.3699999999999998E-002    -9.2912893742317180E-003
  -5.2600000000000008E-002    -7.0693353190998997E-003
  -5.1499999999999990E-002    -7.3840818367876433E-003
  -5.0400000000000000E-002    -1.2297886423765152E-002
  -4.9300000000000010E-002    -2.0122122019528808E-002
  -4.8199999999999993E-002    -2.6841089129447469E-002
  -4.7100000000000003E-002    -2.9349621385334246E-002
  -4.6000000000000013E-002    -2.7779372408982525E-002
  -4.4899999999999995E-002    -2.5115231052036124E-002
  -4.3800000000000006E-002    -2.4634327739472359E-002
  -4.2699999999999988E-002    -2.7384761720892572E-002
  -4.1599999999999998E-002    -3.1651522964237934E-002
  -4.0500000000000008E-002    -3.4613158553838529E-002
  -3.9399999999999991E-002    -3.4765902906655217E-002
  -3.8300000000000001E-002    -3.3375486731525905E-002
  -3.7200000000000011E-002    -3.4092180430883426E-002
  -3.6099999999999993E-002    -4.0996987372629967E-002
  -3.5000000000000003E-002    -5.6034460663789136E-002
  -3.3900000000000013E-002    -7.7048778533930412E-002
  -3.2799999999999996E-002    -9.7658112645144485E-002
  -3.1700000000000006E-002   -0.10975965112447122
  -3.0599999999999988E-002   -0.10813972353934341
  -2.9499999999999998E-002    -9.4812646508205117E-002
  -2.8400000000000009E-002    -7.9793252050863836E-002
  -2.7299999999999991E-002    -7.6517634093749703E-002
  -2.6200000000000001E-002    -9.3807548284520800E-002
  -2.5100000000000011E-002   -0.12955577671526955
  -2.3999999999999994E-002   -0.17112626135348191
  -2.2900000000000004E-002   -0.20307348668573813
  -2.1800000000000014E-002   -0.21720020473001481
  -2.0699999999999996E-002   -0.21768383681771947
  -1.9600000000000006E-002   -0.21742396056649801
  -1.8499999999999989E-002   -0.22841994464395199
  -1.7399999999999999E-002   -0.25360986590383167
  -1.6300000000000009E-002   -0.28624030947682738
  -1.5199999999999991E-002   -0.31664803624150245
  -1.4100000000000001E-002   -0.34049269556995915
  -1.3000000000000012E-002   -0.36180457472797650
  -1.1899999999999994E-002   -0.38899880647655610
  -1.0800000000000004E-002   -0.42785847187038428
  -9.6999999999999864E-003   -0.47742238640781132
  -8.5999999999999965E-003   -0.53160494565959138
  -7.5000000000000067E-003   -0.58432686328882610
  -6.3999999999999890E-003   -0.63362735509866375
  -5.2999999999999992E-003   -0.68190544843667078
  -4.2000000000000093E-003   -0.73317456245415369
  -3.0999999999999917E-003   -0.79016578197471998
  -2.0000000000000018E-003   -0.85329151153556870
  -9.0000000000001190E-004   -0.92130553722373443
   2.0000000000000573E-004   -0.99249565601339917
   1.2999999999999956E-003    -1.0658568143843612
   2.4000000000000132E-003    -1.1424000263213023
   3.5000000000000031E-003    -1.2261763811110280
   4.5999999999999930E-003    -1.3235690593718237
   5.7000000000000106E-003    -1.4397448301313980
   6.8000000000000005E-003    -1.5738859176634312
   7.8999999999999904E-003    -1.7170354127882355
   9.0000000000000080E-003    -1.8559361696241592
   1.0099999999999998E-002    -1.9816257953641969
   1.1199999999999988E-002    -2.0968298912046390
   1.2300000000000005E-002    -2.2159094810483775
   1.3399999999999995E-002    -2.3563535213468270
   1.4500000000000013E-002    -2.5279037952420751
   1.5600000000000003E-002    -2.7274904251096102
   1.6699999999999993E-002    -2.9437088966366893
   1.7800000000000010E-002    -3.1665129661557114
   1.8900000000000000E-002    -3.3938307762142852
   1.9999999999999990E-002    -3.6299917697903146
   2.1100000000000008E-002    -3.8788490295406595
   2.2199999999999998E-002    -4.1387858390804295
   2.3300000000000015E-002    -4.4047603607173658
   2.4400000000000005E-002    -4.6752047538752963
   2.5499999999999995E-002    -4.9565868377680902
   2.6600000000000013E-002    -5.2606210708613235
   2.7700000000000002E-002    -5.5962133407587560
   2.8799999999999992E-002    -5.9629211425775726
   2.9900000000000010E-002    -6.3516335487359861
   3.1000000000000000E-002    -6.7516608238213989
   3.2099999999999990E-002    -7.1579060554497778
   3.3200000000000007E-002    -7.5729851722710260
   3.4299999999999997E-002    -8.0039424896232791
   3.5400000000000015E-002    -8.4581212997428619
   3.6500000000000005E-002    -8.9414262771598079
   3.7599999999999995E-002    -9.4586191177359318
   3.8700000000000012E-002    -10.012298583983441
   3.9800000000000002E-002    -10.599362373351065
   4.0899999999999992E-002    -11.208779335020933
   4.2000000000000010E-002    -11.825097084044316
   4.3099999999999999E-002    -12.438257217406074
   4.4200000000000017E-002    -13.052880287169197
   4.5300000000000007E-002    -13.689013481138861
   4.6399999999999997E-002    -14.371630668638794
   4.7500000000000014E-002    -15.115101814268606
   4.8600000000000004E-002    -15.914174079893531
   4.9699999999999994E-002    -16.747949600218163
   5.0800000000000012E-002    -17.593406677244456
   5.1900000000000002E-002    -18.439258575437737
   5.2999999999999992E-002    -19.289823532102695
   5.4099999999999981E-002    -20.159097671506910
   5.5200000000000027E-002    -21.061017990110336
   5.6300000000000017E-002    -22.002435684202045
   5.7400000000000007E-002    -22.983848571775194
   5.8499999999999996E-002    -24.002407073972368
   5.9599999999999986E-002    -25.054649353025003
   6.0700000000000032E-002    -26.136524200437012
   6.1800000000000022E-002    -27.243320465085347
   6.2900000000000011E-002    -28.370433807370397
   6.4000000000000001E-002    -29.515796661374196
   6.5099999999999991E-002    -30.680255889889711
   6.6199999999999981E-002    -31.866922378537058
   6.7300000000000026E-002    -33.078712463375808
   6.8400000000000016E-002    -34.317409515377641
   6.9500000000000006E-002    -35.584419250484942
   7.0599999999999996E-002    -36.881832122799274
   7.1699999999999986E-002    -38.210891723629231
   7.2800000000000031E-002    -39.568988800045126
   7.3900000000000021E-002    -40.948581695552811
   7.5000000000000011E-002    -42.339084625240176
   7.6100000000000001E-002    -43.732265472408010
   7.7199999999999991E-002    -45.127063751216475
   7.8299999999999981E-002    -46.530372619624544
   7.9400000000000026E-002    -47.951324462886120
   8.0500000000000016E-002    -49.396392822260985
   8.1600000000000006E-002    -50.864303588862413
   8.2699999999999996E-002    -52.348526000971646
   8.3799999999999986E-002    -53.839611053461745
   8.4900000000000031E-002    -55.329647064203790
   8.6000000000000021E-002    -56.814769744867711
   8.7100000000000011E-002    -58.295673370355850
   8.8200000000000001E-002    -59.774116516107661
   8.9299999999999990E-002    -61.253021240228612
   9.0399999999999980E-002    -62.733024597162064
   9.1500000000000026E-002    -64.211425781243960
   9.2600000000000016E-002    -65.685531616204756
   9.3700000000000006E-002    -67.152297973626489
   9.4799999999999995E-002    -68.609489440911517
   9.5899999999999985E-002    -70.052680969231687
   9.7000000000000031E-002    -71.474235534661247
   9.8100000000000021E-002    -72.865234374993136
   9.9200000000000010E-002    -74.221435546868008
  0.10030000000000000         -75.547416687004599
  0.10139999999999999         -76.854278564445877
  0.10249999999999998         -78.151283264152781
  0.10360000000000003         -79.434173583976886
  0.10470000000000002         -80.687408447258022
  0.10580000000000001         -81.895133972160252
  0.10690000000000000         -83.052124023429670
  0.10799999999999998         -84.168251037589712
  0.10910000000000003         -85.259658813468505
  0.11020000000000002         -86.327636718741843
  0.11130000000000001         -87.356178283683164
  0.11240000000000000         -88.325210571280735
  0.11349999999999999         -89.224678039542368
  0.11460000000000004         -90.066696166983689
  0.11570000000000003         -90.872070312491417
  0.11680000000000001         -91.646934509268675
  0.11790000000000000         -92.382133483877993
  0.11899999999999999         -93.053977966299797
  0.12009999999999998         -93.655136108389584
  0.12120000000000003         -94.196472167959840
  0.12230000000000002         -94.698455810537908
  0.12340000000000001         -95.164878845205834
  0.12450000000000000         -95.574264526358149
  0.12559999999999999         -95.899108886709683
  0.12670000000000003         -96.133598327627624
  0.12780000000000002         -96.306686401358064
  0.12890000000000001         -96.452774047842425
  0.13000000000000000         -96.584197998037723
  0.13109999999999999         -96.670028686514286
  0.13219999999999998         -96.674102783193973
  0.13330000000000003         -96.582038879385379
  0.13440000000000002         -96.421516418447894
  0.13550000000000001         -96.234016418447908
  0.13660000000000000         -96.032302856436203
  0.13769999999999999         -95.785316467276076
  0.13880000000000003         -95.448532104483149
  0.13990000000000002         -95.005668640127709
  0.14100000000000001         -94.495780944815252
  0.14210000000000000         -93.976470947256701
  0.14319999999999999         -93.467819213858306
  0.14429999999999998         -92.939689636221644
  0.14540000000000003         -92.337692260733434
  0.14650000000000002         -91.639389038077240
  0.14760000000000001         -90.875350952139812
  0.14870000000000000         -90.104209899893775
  0.14979999999999999         -89.351860046378221
  0.15090000000000003         -88.584587097159556
  0.15200000000000002         -87.746788024894016
  0.15310000000000001         -86.817665100089414
  0.15420000000000000         -85.835372924796530
  0.15529999999999999         -84.867454528800522
  0.15639999999999998         -83.934616088859201
  0.15750000000000003         -83.000419616691332
  0.15860000000000002         -82.009445190421900
  0.15970000000000001         -80.945976257316531
  0.16080000000000000         -79.855026245109585
  0.16189999999999999         -78.792343139640934
  0.16300000000000003         -77.778038024894940
  0.16410000000000002         -76.763793945305210
  0.16520000000000001         -75.685066223137341
  0.16630000000000000         -74.532905578606190
  0.16739999999999999         -73.363967895500821
  0.16850000000000004         -72.255210876457951
  0.16960000000000003         -71.225425720208065
  0.17070000000000002         -70.218925476067554
  0.17180000000000001         -69.163665771477810
  0.17290000000000000         -68.041397094720097
  0.17399999999999999         -66.914550781243634
  0.17510000000000003         -65.854568481439046
  0.17620000000000002         -64.874092102044614
  0.17730000000000001         -63.910972595208776
  0.17840000000000000         -62.893180847162000
  0.17949999999999999         -61.818305969232405
  0.18060000000000004         -60.763736724847732
  0.18170000000000003         -59.810012817377114
  0.18280000000000002         -58.960201263422128
  0.18390000000000001         -58.136066436762064
  0.18500000000000000         -57.248741149896915
  0.18609999999999999         -56.295612335199735
  0.18720000000000003         -55.357498168940047
  0.18830000000000002         -54.521675109858087
  0.18940000000000001         -53.796443939203868
  0.19050000000000000         -53.101005554194181
  0.19159999999999999         -52.357830047602455
  0.19270000000000004         -51.565826416010729
  0.19380000000000003         -50.809143066401418
  0.19490000000000002         -50.162868499751092
  0.19600000000000001         -49.618331909174977
  0.19710000000000000         -49.086822509760978
  0.19819999999999999         -48.495338439936816
  0.19930000000000003         -47.851661682124373
  0.20040000000000002         -47.241275787349032
  0.20150000000000001         -46.744731903071731
  0.20260000000000000         -46.350849151606930
  0.20369999999999999         -45.970363616939011
  0.20480000000000004         -45.534870147700772
  0.20590000000000003         -45.061408996577761
  0.20700000000000002         -44.639747619624671
  0.20810000000000001         -44.335861206050481
  0.20920000000000000         -44.118644714351298
  0.21029999999999999         -43.890945434566170
  0.21140000000000003         -43.583011627193144
  0.21250000000000002         -43.225070953365048
  0.21360000000000001         -42.917686462398272
  0.21470000000000000         -42.731182098384622
  0.21579999999999999         -42.638881683345581
  0.21690000000000004         -42.547744750972548
  0.21800000000000003         -42.388343811031156
  0.21910000000000002         -42.188148498531170
  0.22020000000000001         -42.033565521236255
  0.22130000000000000         -41.970855712886653
  0.22239999999999999         -41.971992492671816
  0.22350000000000003         -41.954830169673777
  0.22460000000000002         -41.872844696040971
  0.22570000000000001         -41.767223358150346
  0.22680000000000000         -41.711296081539025
  0.22789999999999999         -41.742298126216753
  0.22900000000000004         -41.817623138423791
  0.23010000000000003         -41.864585876460900
  0.23120000000000002         -41.858016967769494
  0.23230000000000001         -41.847030639644487
  0.23340000000000000         -41.894115447994089
  0.23450000000000004         -42.013031005855410
  0.23560000000000003         -42.148090362544856
  0.23670000000000002         -42.232563018794849
  0.23780000000000001         -42.257183074947186
  0.23890000000000000         -42.293830871578038
  0.23999999999999999         -42.402187347408109
  0.24110000000000004         -42.575492858882704
  0.24220000000000003         -42.746223449703010
  0.24330000000000002         -42.848499298091667
  0.24440000000000001         -42.898040771480325
  0.24550000000000000         -42.972263336177583
  0.24660000000000004         -43.134456634517420
  0.24770000000000003         -43.368232727046703
  0.24880000000000002         -43.589977264400197
  0.24990000000000001         -43.729518890376745
  0.25100000000000000         -43.803985595698997
  0.25209999999999999         -43.890914916988045
  0.25320000000000004         -44.054828643794679
  0.25430000000000003         -44.286212921138414
  0.25540000000000002         -44.517040252681362
  0.25650000000000001         -44.690284728999700
  0.25760000000000000         -44.822521209712576
  0.25870000000000004         -44.974647521968421
  0.25980000000000003         -45.181598663325829
  0.26090000000000002         -45.419857025142228
  0.26200000000000001         -45.635215759273066
  0.26310000000000000         -45.805511474605069
  0.26419999999999999         -45.964454650874579
  0.26530000000000004         -46.169868469233933
  0.26640000000000003         -46.434585571284700
  0.26750000000000002         -46.706607818599139
  0.26860000000000001         -46.929702758784664
  0.26970000000000000         -47.110439300532683
  0.27080000000000004         -47.301055908198677
  0.27190000000000003         -47.564239501948656
  0.27300000000000002         -47.887031555171298
  0.27410000000000001         -48.205589294429096
  0.27520000000000000         -48.462818145747427
  0.27629999999999999         -48.672039031977860
  0.27740000000000004         -48.910724639887988
  0.27850000000000003         -49.237445831294217
  0.27960000000000002         -49.622489929194586
  0.28070000000000001         -49.982120513911354
  0.28179999999999999         -50.263778686518748
  0.28290000000000004         -50.511798858637853
  0.28400000000000003         -50.819000244135871
  0.28510000000000002         -51.227863311762796
  0.28620000000000001         -51.693695068354565
  0.28730000000000000         -52.118400573725630
  0.28840000000000005         -52.456356048579103
  0.28950000000000004         -52.766197204584920
  0.29060000000000002         -53.160877227778244
  0.29170000000000001         -53.682514190668833
  0.29280000000000000         -54.263950347895360
  0.29389999999999999         -54.781902313227356
  0.29500000000000004         -55.189907073969493
  0.29610000000000003         -55.561321258539756
  0.29720000000000002         -56.026542663569003
  0.29830000000000001         -56.630874633783804
  0.29940000000000000         -57.313785552973222
  0.30050000000000004         -57.949611663813016
  0.30160000000000003         -58.486721038812966
  0.30270000000000002         -58.984966278070715
  0.30380000000000001         -59.557621002191752
  0.30490000000000000         -60.260791778558882
  0.30599999999999999         -61.027320861810786
  0.30709999999999998         -61.754619598382995
  0.30819999999999997         -62.399406433099720
  0.30930000000000007         -63.024608612054735
  0.31040000000000006         -63.735580444330061
  0.31150000000000005         -64.566505432122966
  0.31260000000000004         -65.453414916986191
  0.31370000000000003         -66.298767089837682
  0.31480000000000002         -67.069107055657909
  0.31590000000000001         -67.823226928704713
  0.31700000000000000         -68.656608581536659
  0.31809999999999999         -69.587844848626432
  0.31919999999999998         -70.555549621575580
  0.32029999999999997         -71.485443115227838
  0.32140000000000007         -72.377815246575409
  0.32250000000000006         -73.301322937005011
  0.32360000000000005         -74.310157775872113
  0.32470000000000004         -75.380874633782184
  0.32580000000000003         -76.434646606438349
  0.32690000000000002         -77.417030334465593
  0.32800000000000001         -78.360725402824869
  0.32910000000000000         -79.352622985832596
  0.33019999999999999         -80.453422546379372
  0.33129999999999998         -81.625122070305068
  0.33239999999999997         -82.775588989250281
  0.33350000000000007         -83.855209350578306
  0.33460000000000006         -84.896827697746161
  0.33570000000000005         -85.987991332999968
  0.33680000000000004         -87.169517517081900
  0.33790000000000003         -88.393287658683363
  0.33900000000000002         -89.574203491202795
  0.34010000000000001         -90.672111511222226
  0.34120000000000000         -91.740005493155707
  0.34229999999999999         -92.854133605948576
  0.34339999999999998         -94.043945312491445
  0.34449999999999997         -95.262680053702283
  0.34560000000000007         -96.434509277334982
  0.34670000000000006         -97.545623779287993
  0.34780000000000005         -98.647712707510550
  0.34890000000000004         -99.793144226065138
