 -0.20000000000000001          0.0000000000000000
 -0.19890000000000002          0.0000000000000000
 -0.19780000000000000          0.0000000000000000
 -0.19670000000000001          0.0000000000000000
 -0.19560000000000002          0.0000000000000000
 -0.19450000000000001          0.0000000000000000
 -0.19340000000000002          0.0000000000000000
 -0.19230000000000000          0.0000000000000000
 -0.19120000000000001          0.0000000000000000
 -0.19010000000000002          8.9226506194646238E-030
 -0.18900000000000000         -3.0490209451289619E-029
 -0.18790000000000001         -2.0616362645761076E-028
 -0.18680000000000002          8.7521430761998840E-028
 -0.18570000000000000          5.8324138286163961E-027
 -0.18460000000000001          2.1983890869485107E-028
 -0.18350000000000000         -6.7180725891398926E-026
 -0.18240000000000001         -1.6108856461570314E-025
 -0.18130000000000002          1.6925806977993016E-025
 -0.18020000000000000          1.5232783778529692E-024
 -0.17910000000000001          2.2972789185566539E-024
 -0.17800000000000002         -3.8569456750304316E-024
 -0.17690000000000000         -2.0792955089718284E-023
 -0.17580000000000001         -2.5664207467059672E-023
 -0.17470000000000002          4.2095192468960011E-023
 -0.17360000000000000          2.0173154965095187E-022
 -0.17250000000000001          2.4991502228055747E-022
 -0.17140000000000000         -2.6873244720482707E-022
 -0.17030000000000001         -1.4804138866515158E-021
 -0.16920000000000002         -2.0628709137432603E-021
 -0.16810000000000000          8.5182366797727133E-022
 -0.16700000000000001          8.3922392606327361E-021
 -0.16589999999999999          1.3930681174150518E-020
 -0.16480000000000000          2.0711958322958173E-021
 -0.16370000000000001         -3.6363273318137373E-020
 -0.16260000000000002         -7.5748857799390371E-020
 -0.16150000000000000         -4.5775619336710492E-020
 -0.16040000000000001          1.1277255728846891E-019
 -0.15930000000000000          3.2853072935162073E-019
 -0.15820000000000001          3.3133316556816210E-019
 -0.15710000000000002         -1.8221080249590395E-019
 -0.15600000000000000         -1.1140488135403725E-018
 -0.15490000000000001         -1.6083770140833137E-018
 -0.15379999999999999         -4.0962883492542082E-019
 -0.15270000000000000          2.7821076326024231E-018
 -0.15160000000000001          5.8266581668719956E-018
 -0.15050000000000002          4.4880946473039849E-018
 -0.14940000000000001         -4.0225706334489418E-018
 -0.14830000000000002         -1.5975675005565320E-017
 -0.14720000000000000         -1.9771760692165099E-017
 -0.14610000000000001         -3.3708976877498122E-018
 -0.14500000000000002          3.1337069144636511E-017
 -0.14390000000000000          5.9260701390956598E-017
 -0.14280000000000001          4.3188211512136846E-017
 -0.14169999999999999         -3.2532679310743107E-017
 -0.14060000000000000         -1.2860499914673062E-016
 -0.13950000000000001         -1.5616963500720269E-016
 -0.13840000000000002         -4.0763731901854121E-017
 -0.13730000000000001          1.8867870658326354E-016
 -0.13619999999999999          3.6767336488990746E-016
 -0.13510000000000000          2.8871480643143370E-016
 -0.13400000000000001         -1.1001595452928364E-016
 -0.13290000000000002         -6.0602666277203426E-016
 -0.13180000000000000         -7.7286923055199636E-016
 -0.13070000000000001         -3.0380975411467299E-016
 -0.12959999999999999          6.3579891795595726E-016
 -0.12850000000000000          1.3679340693766983E-015
 -0.12740000000000001          1.1451454518866225E-015
 -0.12630000000000002         -1.6462827807205155E-016
 -0.12520000000000001         -1.7302324014113464E-015
 -0.12410000000000000         -2.2105171290425982E-015
 -0.12300000000000001         -8.5230022163680121E-016
 -0.12190000000000001          1.6108868355717548E-015
 -0.12080000000000000          3.1949028214412877E-015
 -0.11970000000000000          2.1733459351852905E-015
 -0.11860000000000001         -1.1966417728270133E-015
 -0.11750000000000001         -4.3256820651468852E-015
 -0.11640000000000000         -4.0732323655472136E-015
 -0.11530000000000000          4.0845752484416919E-016
 -0.11420000000000001          6.1593195076052078E-015
 -0.11310000000000001          8.0396225362266115E-015
 -0.11200000000000000          2.8687970425725134E-015
 -0.11090000000000001         -7.0574776694898832E-015
 -0.10980000000000001         -1.4440746233350399E-014
 -0.10870000000000000         -1.2029216327463094E-014
 -0.10760000000000000          1.1177006314835175E-015
 -0.10650000000000001          1.7310795402377191E-014
 -0.10540000000000001          2.4645819510660943E-014
 -0.10430000000000000          1.5713367496820833E-014
 -0.10320000000000000         -5.8508889770050258E-015
 -0.10210000000000001         -2.6601882860150666E-014
 -0.10100000000000001         -3.2292812629682033E-014
  -9.9900000000000003E-002    -1.8339640583627838E-014
  -9.8799999999999999E-002     6.3531740090126687E-015
  -9.7700000000000009E-002     2.5646145092577538E-014
  -9.6600000000000005E-002     2.8114676927683269E-014
  -9.5500000000000002E-002     1.5471094051049475E-014
  -9.4400000000000012E-002     5.3808011496301765E-016
  -9.3300000000000008E-002    -4.0554378973912952E-015
  -9.2200000000000004E-002     2.4741034060745326E-015
  -9.1100000000000000E-002     7.1391824675820330E-015
  -9.0000000000000011E-002    -5.9329842572858598E-015
  -8.8900000000000007E-002    -3.9111478677055986E-014
  -8.7800000000000003E-002    -7.2669931324657183E-014
  -8.6699999999999999E-002    -7.3577645712252782E-014
  -8.5600000000000009E-002    -1.9184635569611044E-014
  -8.4500000000000006E-002     7.9322833024253470E-014
  -8.3400000000000002E-002     1.7248306732539631E-013
  -8.2299999999999998E-002     1.9596867531501694E-013
  -8.1200000000000008E-002     1.1167586630835349E-013
  -8.0100000000000005E-002    -5.9338825357264230E-014
  -7.9000000000000001E-002    -2.3758252309935557E-013
  -7.7899999999999997E-002    -3.2546941487396341E-013
  -7.6800000000000007E-002    -2.6546180618286508E-013
  -7.5700000000000003E-002    -7.8006692902019004E-014
  -7.4600000000000000E-002     1.4867256460226325E-013
  -7.3500000000000010E-002     3.1225196039930125E-013
  -7.2399999999999992E-002     3.5626026868157412E-013
  -7.1300000000000002E-002     2.9292163855089426E-013
  -7.0200000000000012E-002     1.7376055564018167E-013
  -6.9099999999999995E-002     3.5681798227910067E-014
  -6.8000000000000005E-002    -1.2742698606363345E-013
  -6.6900000000000015E-002    -3.3762001441089984E-013
  -6.5799999999999997E-002    -5.7050019005785990E-013
  -6.4700000000000008E-002    -7.1705770661456558E-013
  -6.3599999999999990E-002    -6.2088740182195123E-013
  -6.2500000000000000E-002    -1.8531703949165035E-013
  -6.1400000000000010E-002     5.1855611818418801E-013
  -6.0299999999999992E-002     1.2297738782168777E-012
  -5.9200000000000003E-002     1.5995884087779966E-012
  -5.8100000000000013E-002     1.3716262283955394E-012
  -5.6999999999999995E-002     5.3511313219054002E-013
  -5.5900000000000005E-002    -6.4329146393440895E-013
  -5.4800000000000015E-002    -1.7300770191464032E-012
  -5.3699999999999998E-002    -2.3144854088830158E-012
  -5.2600000000000008E-002    -2.1748544805355596E-012
  -5.1499999999999990E-002    -1.3460851357172121E-012
  -5.0400000000000000E-002    -7.7939567235014995E-014
  -4.9300000000000010E-002     1.2704171482164073E-012
  -4.8199999999999993E-002     2.3405609048121612E-012
  -4.7100000000000003E-002     2.8556694769282798E-012
  -4.6000000000000013E-002     2.6723775102543978E-012
  -4.4899999999999995E-002     1.8175604250825206E-012
  -4.3800000000000006E-002     5.0894992430564057E-013
  -4.2699999999999988E-002    -8.6776229648102832E-013
  -4.1599999999999998E-002    -1.8605251887737762E-012
  -4.0500000000000008E-002    -2.1355410929208007E-012
  -3.9399999999999991E-002    -1.6867131606354557E-012
  -3.8300000000000001E-002    -9.5618142310210930E-013
  -3.7200000000000011E-002    -7.5455424243878189E-013
  -3.6099999999999993E-002    -1.9559989478806772E-012
  -3.5000000000000003E-002    -5.0819903840704228E-012
  -3.3900000000000013E-002    -9.9910166945216261E-012
  -3.2799999999999996E-002    -1.5870738750978219E-011
  -3.1700000000000006E-002    -2.1567943611633389E-011
  -3.0599999999999988E-002    -2.6081616033568622E-011
  -2.9499999999999998E-002    -2.8935043597244636E-011
  -2.8400000000000009E-002    -3.0228253927733206E-011
  -2.7299999999999991E-002    -3.0403079359642149E-011
  -2.6200000000000001E-002    -2.9956901542727010E-011
  -2.5100000000000011E-002    -2.9351337332839122E-011
  -2.3999999999999994E-002    -2.9162273290639362E-011
  -2.2900000000000004E-002    -3.0267833378561093E-011
  -2.1800000000000014E-002    -3.3788260384026714E-011
  -2.0699999999999996E-002    -4.0665738137990459E-011
  -1.9600000000000006E-002    -5.1080657065272206E-011
  -1.8499999999999989E-002    -6.4097928353934464E-011
  -1.7399999999999999E-002    -7.7851343427415287E-011
  -1.6300000000000009E-002    -9.0251355000514621E-011
  -1.5199999999999991E-002    -9.9869272573993584E-011
  -1.4100000000000001E-002    -1.0654183091318714E-010
  -1.3000000000000012E-002    -1.1141530059655125E-010
  -1.1899999999999994E-002    -1.1646993092195856E-010
  -1.0800000000000004E-002    -1.2381461134136629E-010
  -9.6999999999999864E-003    -1.3508534568718034E-010
  -8.5999999999999965E-003    -1.5114005880167980E-010
  -7.5000000000000067E-003    -1.7204751512345240E-010
  -6.3999999999999890E-003    -1.9724369360041294E-010
  -5.2999999999999992E-003    -2.2572627100814202E-010
  -4.2000000000000093E-003    -2.5624255495237946E-010
  -3.0999999999999917E-003    -2.8751945269078760E-010
  -2.0000000000000018E-003    -3.1860739047040454E-010
  -9.0000000000001190E-004    -3.4932276515853289E-010
   2.0000000000000573E-004    -3.8061578888637371E-010
   1.2999999999999956E-003    -4.1458031452279442E-010
   2.4000000000000132E-003    -4.5390111114151921E-010
   3.5000000000000031E-003    -5.0083648339693809E-010
   4.5999999999999930E-003    -5.5620680283752222E-010
   5.7000000000000106E-003    -6.1901650472151459E-010
   6.8000000000000005E-003    -6.8708005951378937E-010
   7.8999999999999904E-003    -7.5842432334383147E-010
   9.0000000000000080E-003    -8.3269591222290273E-010
   1.0099999999999998E-002    -9.1171192817540714E-010
   1.1199999999999988E-002    -9.9878949555431973E-010
   1.2300000000000005E-002    -1.0972486252924796E-009
   1.3399999999999995E-002    -1.2089821366245701E-009
   1.4500000000000013E-002    -1.3338905535675849E-009
   1.5600000000000003E-002    -1.4703905870661060E-009
   1.6699999999999993E-002    -1.6165967453574126E-009
   1.7800000000000010E-002    -1.7715148237229528E-009
   1.8900000000000000E-002    -1.9357684344356585E-009
   1.9999999999999990E-002    -2.1117192439135124E-009
   2.1100000000000008E-002    -2.3030657381184483E-009
   2.2199999999999998E-002    -2.5140469706030899E-009
   2.3300000000000015E-002    -2.7484075015848930E-009
   2.4400000000000005E-002    -3.0083990854024023E-009
   2.5499999999999995E-002    -3.2942428784821232E-009
   2.6600000000000013E-002    -3.6044236484400471E-009
   2.7700000000000002E-002    -3.9368353021984603E-009
   2.8799999999999992E-002    -4.2903360863988382E-009
   2.9900000000000010E-002    -4.6659982544383638E-009
   3.1000000000000000E-002    -5.0674939799932872E-009
   3.2099999999999990E-002    -5.5004623078502846E-009
   3.3200000000000007E-002    -5.9711613431545629E-009
   3.4299999999999997E-002    -6.4849303704761496E-009
   3.5400000000000015E-002    -7.0450152378498387E-009
   3.6500000000000005E-002    -7.6522121972288915E-009
   3.7599999999999995E-002    -8.3055811117560552E-009
   3.8700000000000012E-002    -9.0040925826428975E-009
   3.9800000000000002E-002    -9.7486037020644289E-009
   4.0899999999999992E-002    -1.0543177886290778E-008
   4.2000000000000010E-002    -1.1394966747957369E-008
   4.3099999999999999E-002    -1.2312574071415838E-008
   4.4200000000000017E-002    -1.3303748325199649E-008
   4.5300000000000007E-002    -1.4373645385035161E-008
   4.6399999999999997E-002    -1.5524561192137298E-008
   4.7500000000000014E-002    -1.6757066845229929E-008
   4.8600000000000004E-002    -1.8071718344003784E-008
   4.9699999999999994E-002    -1.9470476786409563E-008
   5.0800000000000012E-002    -2.0957447333103119E-008
   5.1900000000000002E-002    -2.2539060395843080E-008
   5.2999999999999992E-002    -2.4223867356454321E-008
   5.4099999999999981E-002    -2.6021924171004684E-008
   5.5200000000000027E-002    -2.7943602987079430E-008
   5.6300000000000017E-002    -2.9998052042401468E-008
   5.7400000000000007E-002    -3.2192016163890003E-008
   5.8499999999999996E-002    -3.4529787029669023E-008
   5.9599999999999986E-002    -3.7014487475062197E-008
   6.0700000000000032E-002    -3.9650014826975166E-008
   6.1800000000000022E-002    -4.2442486858362827E-008
   6.2900000000000011E-002    -4.5400547321605700E-008
   6.4000000000000001E-002    -4.8534623431351065E-008
   6.5099999999999991E-002    -5.1855931104682895E-008
   6.6199999999999981E-002    -5.5375679153257806E-008
   6.7300000000000026E-002    -5.9104575456103703E-008
   6.8400000000000016E-002    -6.3052432608401432E-008
   6.9500000000000006E-002    -6.7227880151676800E-008
   7.0599999999999996E-002    -7.1638567078480264E-008
   7.1699999999999986E-002    -7.6292231199204252E-008
   7.2800000000000031E-002    -8.1198052725994785E-008
   7.3900000000000021E-002    -8.6367549556598533E-008
   7.5000000000000011E-002    -9.1814072789020429E-008
   7.6100000000000001E-002    -9.7551392741479503E-008
   7.7199999999999991E-002    -1.0359234892121094E-007
   7.8299999999999981E-002    -1.0994845212053406E-007
   7.9400000000000026E-002    -1.1663077970069935E-007
   8.0500000000000016E-002    -1.2365086377030821E-007
   8.1600000000000006E-002    -1.3102098250783456E-007
   8.2699999999999996E-002    -1.3875364857085515E-007
   8.3799999999999986E-002    -1.4686104066186090E-007
   8.4900000000000031E-002    -1.5535533748334274E-007
   8.6000000000000021E-002    -1.6424947091309150E-007
   8.7100000000000011E-002    -1.7355756654069410E-007
   8.8200000000000001E-002    -1.8329450313103735E-007
   8.9299999999999990E-002    -1.9347487523191376E-007
   9.0399999999999980E-002    -2.0411246737239708E-007
   9.1500000000000026E-002    -2.1522060933421017E-007
   9.2600000000000016E-002    -2.2681291511617019E-007
   9.3700000000000006E-002    -2.3890356715128291E-007
   9.4799999999999995E-002    -2.5150660576400696E-007
   9.5899999999999985E-002    -2.6463507651897089E-007
   9.7000000000000031E-002    -2.7830088811242604E-007
   9.8100000000000021E-002    -2.9251603450575203E-007
   9.9200000000000010E-002    -3.0729410127605661E-007
  0.10030000000000000         -3.2265066352010763E-007
  0.10139999999999999         -3.3860180792544270E-007
  0.10249999999999998         -3.5516237062438449E-007
  0.10360000000000003         -3.7234505612104840E-007
  0.10470000000000002         -3.9016140362946317E-007
  0.10580000000000001         -4.0862315131562355E-007
  0.10690000000000000         -4.2774269104484119E-007
  0.10799999999999998         -4.4753207362191461E-007
  0.10910000000000003         -4.6800198560958961E-007
  0.11020000000000002         -4.8916200512394425E-007
  0.11130000000000001         -5.1102227871524519E-007
  0.11240000000000000         -5.3359474350145319E-007
  0.11349999999999999         -5.5689321243335144E-007
  0.11460000000000004         -5.8093121424462879E-007
  0.11570000000000003         -6.0572017446247628E-007
  0.11680000000000001         -6.3126833538262872E-007
  0.11790000000000000         -6.5758229084167397E-007
  0.11899999999999999         -6.8466817992884899E-007
  0.12009999999999998         -7.1253248279390391E-007
  0.12120000000000003         -7.4118150905633229E-007
  0.12230000000000002         -7.7062054515408818E-007
  0.12340000000000001         -8.0085521858563880E-007
  0.12450000000000000         -8.3189252109150402E-007
  0.12559999999999999         -8.6374126340160728E-007
  0.12670000000000003         -8.9641014255903428E-007
  0.12780000000000002         -9.2990489974908996E-007
  0.12890000000000001         -9.6422775186510989E-007
  0.13000000000000000         -9.9937801678606775E-007
  0.13109999999999999         -1.0353552397646126E-006
  0.13219999999999998         -1.0721602166086086E-006
  0.13330000000000003         -1.1097940841864329E-006
  0.13440000000000002         -1.1482569561849232E-006
  0.13550000000000001         -1.1875474683620268E-006
  0.13660000000000000         -1.2276652796572307E-006
  0.13769999999999999         -1.2686115269389120E-006
  0.13880000000000003         -1.3103883702569874E-006
  0.13990000000000002         -1.3529963780456455E-006
  0.14100000000000001         -1.3964317986392416E-006
  0.14210000000000000         -1.4406870150196482E-006
  0.14319999999999999         -1.4857539554213872E-006
  0.14429999999999998         -1.5316267081288970E-006
  0.14540000000000003         -1.5783010667291819E-006
  0.14650000000000002         -1.6257723700618953E-006
  0.14760000000000001         -1.6740334558562608E-006
  0.14870000000000000         -1.7230753428520984E-006
  0.14979999999999999         -1.7728895045365789E-006
  0.15090000000000003         -1.8234703702546540E-006
  0.15200000000000002         -1.8748141883406788E-006
  0.15310000000000001         -1.9269157292001182E-006
  0.15420000000000000         -1.9797657841991168E-006
  0.15529999999999999         -2.0333529846539022E-006
  0.15639999999999998         -2.0876661892543780E-006
  0.15750000000000003         -2.1426953935588244E-006
  0.15860000000000002         -2.1984299110044958E-006
  0.15970000000000001         -2.2548563265445409E-006
  0.16080000000000000         -2.3119584966480033E-006
  0.16189999999999999         -2.3697214146523038E-006
  0.16300000000000003         -2.4281341666210210E-006
  0.16410000000000002         -2.4871903860912425E-006
  0.16520000000000001         -2.5468855255894596E-006
  0.16630000000000000         -2.6072107175423298E-006
  0.16739999999999999         -2.6681520921556512E-006
  0.16850000000000004         -2.7296914595353883E-006
  0.16960000000000003         -2.7918110845348565E-006
  0.17070000000000002         -2.8544950509967748E-006
  0.17180000000000001         -2.9177276701375376E-006
  0.17290000000000000         -2.9814927984261885E-006
  0.17399999999999999         -3.0457731554633938E-006
  0.17510000000000003         -3.1105550988286268E-006
  0.17620000000000002         -3.1758311251905980E-006
  0.17730000000000001         -3.2415950954600703E-006
  0.17840000000000000         -3.3078376873163506E-006
  0.17949999999999999         -3.3745404834917281E-006
  0.18060000000000004         -3.4416789276292548E-006
  0.18170000000000003         -3.5092289181193337E-006
  0.18280000000000002         -3.5771713555732276E-006
  0.18390000000000001         -3.6454937344387872E-006
  0.18500000000000000         -3.7141830944165122E-006
  0.18609999999999999         -3.7832226098544197E-006
  0.18720000000000003         -3.8525927266164217E-006
  0.18830000000000002         -3.9222754821821582E-006
  0.18940000000000001         -3.9922592804941814E-006
  0.19050000000000000         -4.0625336623634212E-006
  0.19159999999999999         -4.1330831663799472E-006
  0.19270000000000004         -4.2038836909341626E-006
  0.19380000000000003         -4.2749065869429614E-006
  0.19490000000000002         -4.3461236600705888E-006
  0.19600000000000001         -4.4175189941597637E-006
  0.19710000000000000         -4.4890825847687665E-006
  0.19819999999999999         -4.5608016989717726E-006
  0.19930000000000003         -4.6326540541485883E-006
  0.20040000000000002         -4.7046105464687571E-006
  0.20150000000000001         -4.7766448005859274E-006
  0.20260000000000000         -4.8487399908481166E-006
  0.20369999999999999         -4.9208842938242014E-006
  0.20480000000000004         -4.9930599743674975E-006
  0.20590000000000003         -5.0652388381422497E-006
  0.20700000000000002         -5.1373885980865452E-006
  0.20810000000000001         -5.2094806051172782E-006
  0.20920000000000000         -5.2814984883298166E-006
  0.21029999999999999         -5.3534299695456866E-006
  0.21140000000000003         -5.4252554946288001E-006
  0.21250000000000002         -5.4969445955066476E-006
  0.21360000000000001         -5.5684618018858600E-006
  0.21470000000000000         -5.6397766456939280E-006
  0.21579999999999999         -5.7108704822894651E-006
  0.21690000000000004         -5.7817292145045940E-006
  0.21800000000000003         -5.8523332882032264E-006
  0.21910000000000002         -5.9226531448075548E-006
  0.22020000000000001         -5.9926528592768591E-006
  0.22130000000000000         -6.0623024182859808E-006
  0.22239999999999999         -6.1315827224461827E-006
  0.22350000000000003         -6.2004792198422365E-006
  0.22460000000000002         -6.2689691731065977E-006
  0.22570000000000001         -6.3370157477038447E-006
  0.22680000000000000         -6.4045811996038537E-006
  0.22789999999999999         -6.4716355154814664E-006
  0.22900000000000004         -6.5381650529161561E-006
  0.23010000000000003         -6.6041598074662033E-006
  0.23120000000000002         -6.6695997702481691E-006
  0.23230000000000001         -6.7344517447054386E-006
  0.23340000000000000         -6.7986752583237831E-006
  0.23450000000000004         -6.8622402977780439E-006
  0.23560000000000003         -6.9251309469109401E-006
  0.23670000000000002         -6.9873349275439978E-006
  0.23780000000000001         -7.0488331402884796E-006
  0.23890000000000000         -7.1095946623245254E-006
  0.23999999999999999         -7.1695872065902222E-006
  0.24110000000000004         -7.2287866714759730E-006
  0.24220000000000003         -7.2871789598139003E-006
  0.24330000000000002         -7.3447531576675829E-006
  0.24440000000000001         -7.4014924393850379E-006
  0.24550000000000000         -7.4573677011358086E-006
  0.24660000000000004         -7.5123484748473857E-006
  0.24770000000000003         -7.5664152063836809E-006
  0.24880000000000002         -7.6195624387764838E-006
  0.24990000000000001         -7.6717851698049344E-006
  0.25100000000000000         -7.7230688475538045E-006
  0.25209999999999999         -7.7733857324346900E-006
  0.25320000000000004         -7.8227103585959412E-006
  0.25430000000000003         -7.8710272646276280E-006
  0.25540000000000002         -7.9183300840668380E-006
  0.25650000000000001         -7.9646188169135712E-006
  0.25760000000000000         -8.0098825492314063E-006
  0.25870000000000004         -8.0541021816316061E-006
  0.25980000000000003         -8.0972586147254333E-006
  0.26090000000000002         -8.1393473010393791E-006
  0.26200000000000001         -8.1803691500681452E-006
  0.26310000000000000         -8.2203287092852406E-006
  0.26419999999999999         -8.2592168837436475E-006
  0.26530000000000004         -8.2970154835493304E-006
  0.26640000000000003         -8.3337081377976574E-006
  0.26750000000000002         -8.3692921180045232E-006
  0.26860000000000001         -8.4037701526540332E-006
  0.26970000000000000         -8.4371486082090996E-006
  0.27080000000000004         -8.4694274846697226E-006
  0.27190000000000003         -8.5006022345623933E-006
  0.27300000000000002         -8.5306701294030063E-006
  0.27410000000000001         -8.5596348071703687E-006
  0.27520000000000000         -8.5875008153379895E-006
  0.27629999999999999         -8.6142690634005703E-006
  0.27740000000000004         -8.6399350038846023E-006
  0.27850000000000003         -8.6644959083059803E-006
  0.27960000000000002         -8.6879535956541076E-006
  0.28070000000000001         -8.7103171608760022E-006
  0.28179999999999999         -8.7315966084133834E-006
  0.28290000000000004         -8.7517983047291636E-006
  0.28400000000000003         -8.7709249783074483E-006
  0.28510000000000002         -8.7889802671270445E-006
  0.28620000000000001         -8.8059769041137770E-006
  0.28730000000000000         -8.8219276221934706E-006
  0.28840000000000005         -8.8368396973237395E-006
  0.28950000000000004         -8.8507113105151802E-006
  0.29060000000000002         -8.8635388237889856E-006
  0.29170000000000001         -8.8753267846186645E-006
  0.29280000000000000         -8.8860942923929542E-006
  0.29389999999999999         -8.8958613559952937E-006
  0.29500000000000004         -8.9046361608779989E-006
  0.29610000000000003         -8.9124214355251752E-006
  0.29720000000000002         -8.9192199084209278E-006
  0.29830000000000001         -8.9250452219857834E-006
  0.29940000000000000         -8.9299182945978828E-006
  0.30050000000000004         -8.9338564066565596E-006
  0.30160000000000003         -8.9368668341194279E-006
  0.30270000000000002         -8.9389459390076809E-006
  0.30380000000000001         -8.9400937213213183E-006
  0.30490000000000000         -8.9403265519649722E-006
  0.30599999999999999         -8.9396671683061868E-006
  0.30709999999999998         -8.9381392172072083E-006
  0.30819999999999997         -8.9357490651309490E-006
  0.30930000000000007         -8.9324985310668126E-006
  0.31040000000000006         -8.9283958004671149E-006
  0.31150000000000005         -8.9234617917099968E-006
  0.31260000000000004         -8.9177219706471078E-006
  0.31370000000000003         -8.9111945271724835E-006
  0.31480000000000002         -8.9038812802755274E-006
  0.31590000000000001         -8.8957785919774324E-006
  0.31700000000000000         -8.8868964667199180E-006
  0.31809999999999999         -8.8772594608599320E-006
  0.31919999999999998         -8.8668994067120366E-006
  0.32029999999999997         -8.8558354036649689E-006
  0.32140000000000007         -8.8440701802028343E-006
  0.32250000000000006         -8.8316101027885452E-006
  0.32360000000000005         -8.8184715423267335E-006
  0.32470000000000004         -8.8046836026478559E-006
  0.32580000000000003         -8.7902762970770709E-006
  0.32690000000000002         -8.7752614490455016E-006
  0.32800000000000001         -8.7596399680478498E-006
  0.32910000000000000         -8.7434127635788172E-006
  0.33019999999999999         -8.7265998445218429E-006
  0.33129999999999998         -8.7092375906649977E-006
  0.33239999999999997         -8.6913632912910543E-006
  0.33350000000000007         -8.6729942267993465E-006
  0.33460000000000006         -8.6541358541580848E-006
  0.33570000000000005         -8.6347936303354800E-006
  0.33680000000000004         -8.6149893832043745E-006
  0.33790000000000003         -8.5947540355846286E-006
  0.33900000000000002         -8.5741185102961026E-006
  0.34010000000000001         -8.5530991782434285E-006
  0.34120000000000000         -8.5317014963948168E-006
  0.34229999999999999         -8.5099400166654959E-006
  0.34339999999999998         -8.4878420238965191E-006
  0.34449999999999997         -8.4654420788865536E-006
  0.34560000000000007         -8.4427674664766528E-006
  0.34670000000000006         -8.4198327385820448E-006
  0.34780000000000005         -8.3966478996444494E-006
  0.34890000000000004         -8.3732302300632000E-006
