 -0.20000000000000001          0.0000000000000000
 -0.19890000000000002          0.0000000000000000
 -0.19780000000000000          0.0000000000000000
 -0.19670000000000001          0.0000000000000000
 -0.19560000000000002          0.0000000000000000
 -0.19450000000000001          0.0000000000000000
 -0.19340000000000002          0.0000000000000000
 -0.19230000000000000          0.0000000000000000
 -0.19120000000000001          0.0000000000000000
 -0.19010000000000002          0.0000000000000000
 -0.18900000000000000          0.0000000000000000
 -0.18790000000000001          4.4522689015854977E-032
 -0.18680000000000002          6.8849447040091099E-031
 -0.18570000000000000          2.6503459234769588E-030
 -0.18460000000000001         -5.3372307252757815E-030
 -0.18350000000000000         -6.9851342504392990E-029
 -0.18240000000000001         -1.6430686134550825E-028
 -0.18130000000000002          3.2426408213399085E-028
 -0.18020000000000000          2.7641389525732818E-027
 -0.17910000000000001          5.4390618967747470E-027
 -0.17800000000000002         -6.4321541910884145E-027
 -0.17690000000000000         -5.7828675089414856E-026
 -0.17580000000000001         -1.1759005939662119E-025
 -0.17470000000000002          3.1106782297030836E-026
 -0.17360000000000000          7.3061052851097392E-025
 -0.17250000000000001          1.6996992306965963E-024
 -0.17140000000000000          7.2394499898850240E-025
 -0.17030000000000001         -5.8903951914318020E-024
 -0.16920000000000002         -1.7102614865718267E-023
 -0.16810000000000000         -1.6215264676480412E-023
 -0.16700000000000001          2.8385660838658190E-023
 -0.16589999999999999          1.2343734462148164E-022
 -0.16480000000000000          1.7467923729151634E-022
 -0.16370000000000001         -3.3103282554707786E-023
 -0.16260000000000002         -6.3687762531303642E-022
 -0.16150000000000000         -1.2525986322367695E-021
 -0.16040000000000001         -7.1433124540545211E-022
 -0.15930000000000000          2.1649929842701806E-021
 -0.15820000000000001          6.4545795809404225E-021
 -0.15710000000000002          7.1679085564776860E-021
 -0.15600000000000000         -2.7540550364362575E-021
 -0.15490000000000001         -2.3934378935755224E-020
 -0.15379999999999999         -4.0046650424699185E-020
 -0.15270000000000000         -1.9355165225798483E-020
 -0.15160000000000001          5.7941559141593143E-020
 -0.15050000000000002          1.5496055213686914E-019
 -0.14940000000000001          1.6083332769084250E-019
 -0.14830000000000002         -4.1636494793200372E-020
 -0.14720000000000000         -4.2246026738249652E-019
 -0.14610000000000001         -6.8364094313367819E-019
 -0.14500000000000002         -3.6881284836991050E-019
 -0.14390000000000000          7.1008399446183196E-019
 -0.14280000000000001          1.9776161706614187E-018
 -0.14169999999999999          2.1001809695894728E-018
 -0.14060000000000000         -6.7674980484807548E-020
 -0.13950000000000001         -3.9573615042195489E-018
 -0.13840000000000002         -6.5602896152289511E-018
 -0.13730000000000001         -4.0101033672565425E-018
 -0.13619999999999999          4.6368328883792887E-018
 -0.13510000000000000          1.4236560854897081E-017
 -0.13400000000000001          1.5125220839297500E-017
 -0.13290000000000002          8.7214925257870733E-019
 -0.13180000000000000         -2.2529340972039253E-017
 -0.13070000000000001         -3.5564570879713321E-017
 -0.12959999999999999         -1.8545205699342894E-017
 -0.12850000000000000          2.6772289477874878E-017
 -0.12740000000000001          6.6667131011968598E-017
 -0.12630000000000002          5.4472384435458635E-017
 -0.12520000000000001         -2.4888473313930289E-017
 -0.12410000000000000         -1.1993791980240820E-016
 -0.12300000000000001         -1.3183379609743541E-016
 -0.12190000000000001          2.7209214962821819E-018
 -0.12080000000000000          2.2050553282498044E-016
 -0.11970000000000000          3.2810218258589349E-016
 -0.11860000000000001          1.3771830603557844E-016
 -0.11750000000000001         -3.2783174084770295E-016
 -0.11640000000000000         -7.4193828723578869E-016
 -0.11530000000000000         -6.4837402203045381E-016
 -0.11420000000000001          1.4250405542245504E-016
 -0.11310000000000001          1.2306293933520658E-015
 -0.11200000000000000          1.7341957744506677E-015
 -0.11090000000000001          9.1548686779872228E-016
 -0.10980000000000001         -1.0629773267723246E-015
 -0.10870000000000000         -2.9255829783893890E-015
 -0.10760000000000000         -3.0266024570195418E-015
 -0.10650000000000001         -7.0100647885090869E-016
 -0.10540000000000001          2.8255339877585528E-015
 -0.10430000000000000          4.9554578376940356E-015
 -0.10320000000000000          3.6323318112270898E-015
 -0.10210000000000001         -7.0366166244275490E-016
 -0.10100000000000001         -4.9122307817803332E-015
  -9.9900000000000003E-002    -5.3713764257843147E-015
  -9.8799999999999999E-002    -1.1990477699136892E-015
  -9.7700000000000009E-002     4.2842994234758291E-015
  -9.6600000000000005E-002     5.7178865930777346E-015
  -9.5500000000000002E-002     4.3068467523174690E-016
  -9.4400000000000012E-002    -8.0620985554820043E-015
  -9.3300000000000008E-002    -1.1517383116557527E-014
  -9.2200000000000004E-002    -3.4887696793046161E-015
  -9.1100000000000000E-002     1.3695508858664173E-014
  -9.0000000000000011E-002     2.7866338726009569E-014
  -8.8900000000000007E-002     2.4617299911326891E-014
  -8.7800000000000003E-002    -7.1012875899504149E-016
  -8.6699999999999999E-002    -3.5944449592326469E-014
  -8.5600000000000009E-002    -5.7228703655327895E-014
  -8.4500000000000006E-002    -4.4982341961506689E-014
  -8.3400000000000002E-002     8.0543873263488788E-017
  -8.2299999999999998E-002     5.3732432864000632E-014
  -8.1200000000000008E-002     8.2447252963604306E-014
  -8.0100000000000005E-002     6.6354453669929120E-014
  -7.9000000000000001E-002     1.4139677689611278E-014
  -7.7899999999999997E-002    -4.2341557506247324E-014
  -7.6800000000000007E-002    -7.0930078217151804E-014
  -7.5700000000000003E-002    -6.2391789597184694E-014
  -7.4600000000000000E-002    -3.5264631113255535E-014
  -7.3500000000000010E-002    -1.7393421772315953E-014
  -7.2399999999999992E-002    -1.8640847193737362E-014
  -7.1300000000000002E-002    -1.8591529547416427E-014
  -7.0200000000000012E-002     1.6872064522951459E-014
  -6.9099999999999995E-002     9.9703313096929924E-014
  -6.8000000000000005E-002     1.9332425200621617E-013
  -6.6900000000000015E-002     2.2272384403356632E-013
  -6.5799999999999997E-002     1.2310123623585079E-013
  -6.4700000000000008E-002    -1.0250277054013254E-013
  -6.3599999999999990E-002    -3.6032805970746817E-013
  -6.2500000000000000E-002    -5.0407648975042685E-013
  -6.1400000000000010E-002    -4.1961578526109045E-013
  -6.0299999999999992E-002    -1.0478716418876877E-013
  -5.9200000000000003E-002     3.1172888706118562E-013
  -5.8100000000000013E-002     6.3296947978158657E-013
  -5.6999999999999995E-002     7.0348094753994173E-013
  -5.5900000000000005E-002     4.9644614591101699E-013
  -5.4800000000000015E-002     1.1993722258841349E-013
  -5.3699999999999998E-002    -2.6086519554734122E-013
  -5.2600000000000008E-002    -5.2782474571633209E-013
  -5.1499999999999990E-002    -6.6242166916682943E-013
  -5.0400000000000000E-002    -7.0871704772185184E-013
  -4.9300000000000010E-002    -6.8262539718033644E-013
  -4.8199999999999993E-002    -5.1409565623647402E-013
  -4.7100000000000003E-002    -9.0347786760661131E-014
  -4.6000000000000013E-002     6.1399420703961427E-013
  -4.4899999999999995E-002     1.4200642614939363E-012
  -4.3800000000000006E-002     1.9577271661436191E-012
  -4.2699999999999988E-002     1.8441465802349066E-012
  -4.1599999999999998E-002     9.3520362894755626E-013
  -4.0500000000000008E-002    -5.2214813419174111E-013
  -3.9399999999999991E-002    -1.9658970631941663E-012
  -3.8300000000000001E-002    -2.8036282063298446E-012
  -3.7200000000000011E-002    -2.7329475488224730E-012
  -3.6099999999999993E-002    -1.8853881129932137E-012
  -3.5000000000000003E-002    -6.9663919815068920E-013
  -3.3900000000000013E-002     4.0046029101299674E-013
  -3.2799999999999996E-002     1.2346463912002448E-012
  -3.1700000000000006E-002     1.9188752149734700E-012
  -3.0599999999999988E-002     2.6318619592707870E-012
  -2.9499999999999998E-002     3.3450048286809420E-012
  -2.8400000000000009E-002     3.7313077974610032E-012
  -2.7299999999999991E-002     3.3548762726209880E-012
  -2.6200000000000001E-002     2.0121959654062493E-012
  -2.5100000000000011E-002    -4.5491900041915931E-014
  -2.3999999999999994E-002    -2.2171329442516319E-012
  -2.2900000000000004E-002    -3.9583223851447080E-012
  -2.1800000000000014E-002    -5.2241939073327526E-012
  -2.0699999999999996E-002    -6.6213397612036040E-012
  -1.9600000000000006E-002    -9.1173561755919508E-012
  -1.8499999999999989E-002    -1.3459276228255934E-011
  -1.7399999999999999E-002    -1.9669826531454326E-011
  -1.6300000000000009E-002    -2.6960895321836986E-011
  -1.5199999999999991E-002    -3.4134275267438952E-011
  -1.4100000000000001E-002    -4.0211327323458335E-011
  -1.3000000000000012E-002    -4.4877983274016486E-011
  -1.1899999999999994E-002    -4.8467646562855293E-011
  -1.0800000000000004E-002    -5.1543262713504845E-011
  -9.6999999999999864E-003    -5.4437176988386682E-011
  -8.5999999999999965E-003    -5.7136979175753666E-011
  -7.5000000000000067E-003    -5.9628642301579049E-011
  -6.3999999999999890E-003    -6.2420832391829606E-011
  -5.2999999999999992E-003    -6.6775231177818029E-011
  -4.2000000000000093E-003    -7.4335579358653092E-011
  -3.0999999999999917E-003    -8.6290662115739991E-011
  -2.0000000000000018E-003    -1.0260388372262952E-010
  -9.0000000000001190E-004    -1.2187738318569785E-010
   2.0000000000000573E-004    -1.4202641840377339E-010
   1.2999999999999956E-003    -1.6138092251427594E-010
   2.4000000000000132E-003    -1.7951523600956421E-010
   3.5000000000000031E-003    -1.9728539635277542E-010
   4.5999999999999930E-003    -2.1611186451497844E-010
   5.7000000000000106E-003    -2.3707708018960716E-010
   6.8000000000000005E-003    -2.6051033552576541E-010
   7.8999999999999904E-003    -2.8632743398482319E-010
   9.0000000000000080E-003    -3.1478758488745484E-010
   1.0099999999999998E-002    -3.4699298989693261E-010
   1.1199999999999988E-002    -3.8465117202512999E-010
   1.2300000000000005E-002    -4.2920245135746882E-010
   1.3399999999999995E-002    -4.8094156435141144E-010
   1.4500000000000013E-002    -5.3882198702837059E-010
   1.5600000000000003E-002    -6.0116955857836274E-010
   1.6699999999999993E-002    -6.6687982913649080E-010
   1.7800000000000010E-002    -7.3630990193862544E-010
   1.8900000000000000E-002    -8.1126688700194904E-010
   1.9999999999999990E-002    -8.9410923109767282E-010
   2.1100000000000008E-002    -9.8658381464389322E-010
   2.2199999999999998E-002    -1.0891927360034970E-009
   2.3300000000000015E-002    -1.2015098915796329E-009
   2.4400000000000005E-002    -1.3232004381080742E-009
   2.5499999999999995E-002    -1.4550073368368999E-009
   2.6600000000000013E-002    -1.5989898294321847E-009
   2.7700000000000002E-002    -1.7578266620077443E-009
   2.8799999999999992E-002    -1.9336681145176726E-009
   2.9900000000000010E-002    -2.1273653949549498E-009
   3.1000000000000000E-002    -2.3386632630462145E-009
   3.2099999999999990E-002    -2.5672632908424475E-009
   3.3200000000000007E-002    -2.8140323404812762E-009
   3.4299999999999997E-002    -3.0814897300501798E-009
   3.5400000000000015E-002    -3.3732141524467352E-009
   3.6500000000000005E-002    -3.6925820179334323E-009
   3.7599999999999995E-002    -4.0417518221147475E-009
   3.8700000000000012E-002    -4.4216310612910092E-009
   3.9800000000000002E-002    -4.8328390178653535E-009
   4.0899999999999992E-002    -5.2769308922506752E-009
   4.2000000000000010E-002    -5.7569859990280747E-009
   4.3099999999999999E-002    -6.2771396969196758E-009
   4.4200000000000017E-002    -6.8414767184776792E-009
   4.5300000000000007E-002    -7.4531643079467358E-009
   4.6399999999999997E-002    -8.1145019592554490E-009
   4.7500000000000014E-002    -8.8278442333944440E-009
   4.8600000000000004E-002    -9.5966719015905255E-009
   4.9699999999999994E-002    -1.0426000507379740E-008
   5.0800000000000012E-002    -1.1321811044240349E-008
   5.1900000000000002E-002    -1.2289935291676102E-008
   5.2999999999999992E-002    -1.3335172965867059E-008
   5.4099999999999981E-002    -1.4461254416175962E-008
   5.5200000000000027E-002    -1.5671629327584924E-008
   5.6300000000000017E-002    -1.6970533422977496E-008
   5.7400000000000007E-002    -1.8363648379704500E-008
   5.8499999999999996E-002    -1.9858008570849961E-008
   5.9599999999999986E-002    -2.1461284305246409E-008
   6.0700000000000032E-002    -2.3180984243253988E-008
   6.1800000000000022E-002    -2.5024112559890455E-008
   6.2900000000000011E-002    -2.6997494018132784E-008
   6.4000000000000001E-002    -2.9108525367860238E-008
   6.5099999999999991E-002    -3.1365843256025983E-008
   6.6199999999999981E-002    -3.3779379293719103E-008
   6.7300000000000026E-002    -3.6359722344059264E-008
   6.8400000000000016E-002    -3.9117104222441412E-008
   6.9500000000000006E-002    -4.2060765537144107E-008
   7.0599999999999996E-002    -4.5199104903304033E-008
   7.1699999999999986E-002    -4.8540645281036632E-008
   7.2800000000000031E-002    -5.2095199265522751E-008
   7.3900000000000021E-002    -5.5874490811902433E-008
   7.5000000000000011E-002    -5.9891846149184857E-008
   7.6100000000000001E-002    -6.4161213231272995E-008
   7.7199999999999991E-002    -6.8696294874825981E-008
   7.8299999999999981E-002    -7.3510364018147811E-008
   7.9400000000000026E-002    -7.8616672283260414E-008
   8.0500000000000016E-002    -8.4029139202357328E-008
   8.1600000000000006E-002    -8.9762629329470656E-008
   8.2699999999999996E-002    -9.5832611179957894E-008
   8.3799999999999986E-002    -1.0225456748003126E-007
   8.4900000000000031E-002    -1.0904371094966336E-007
   8.6000000000000021E-002    -1.1621519746540798E-007
   8.7100000000000011E-002    -1.2378481528685370E-007
   8.8200000000000001E-002    -1.3176955349081254E-007
   8.9299999999999990E-002    -1.4018795013726049E-007
   9.0399999999999980E-002    -1.4905975831425167E-007
   9.1500000000000026E-002    -1.5840542744172126E-007
   9.2600000000000016E-002    -1.6824532167447614E-007
   9.3700000000000006E-002    -1.7859913725715160E-007
   9.4799999999999995E-002    -1.8948563251797168E-007
   9.5899999999999985E-002    -2.0092281260986056E-007
   9.7000000000000031E-002    -2.1292862584232353E-007
   9.8100000000000021E-002    -2.2552188738700352E-007
   9.9200000000000010E-002    -2.3872280507930554E-007
  0.10030000000000000         -2.5255303626181558E-007
  0.10139999999999999         -2.6703474986788933E-007
  0.10249999999999998         -2.8218985903549765E-007
  0.10360000000000003         -2.9803959478158504E-007
  0.10470000000000002         -3.1460484706258285E-007
  0.10580000000000001         -3.3190670478688844E-007
  0.10690000000000000         -3.4996682529708778E-007
  0.10799999999999998         -3.6880717857457057E-007
  0.10910000000000003         -3.8844959249217936E-007
  0.11020000000000002         -4.0891526964514924E-007
  0.11130000000000001         -4.3022484419452667E-007
  0.11240000000000000         -4.5239895030135813E-007
  0.11349999999999999         -4.7545864845233154E-007
  0.11460000000000004         -4.9942514124268200E-007
  0.11570000000000003         -5.2431943231567857E-007
  0.11680000000000001         -5.5016170108501683E-007
  0.11790000000000000         -5.7697110378285288E-007
  0.11899999999999999         -6.0476605767689762E-007
  0.12009999999999998         -6.3356418422699790E-007
  0.12120000000000003         -6.6338242277197423E-007
  0.12230000000000002         -6.9423754212039057E-007
  0.12340000000000001         -7.2614597002029768E-007
  0.12450000000000000         -7.5912407737632748E-007
  0.12559999999999999         -7.9318800771943643E-007
  0.12670000000000003         -8.2835299508587923E-007
  0.12780000000000002         -8.6463239767908817E-007
  0.12890000000000001         -9.0203786839992972E-007
  0.13000000000000000         -9.4057992328089313E-007
  0.13109999999999999         -9.8026885098079219E-007
  0.13219999999999998         -1.0211152812189539E-006
  0.13330000000000003         -1.0631292752805166E-006
  0.13440000000000002         -1.1063189049309585E-006
  0.13550000000000001         -1.1506897408253280E-006
  0.13660000000000000         -1.1962450798819191E-006
  0.13769999999999999         -1.2429873095243238E-006
  0.13880000000000003         -1.2909187034892966E-006
  0.13990000000000002         -1.3400419902609428E-006
  0.14100000000000001         -1.3903592162023415E-006
  0.14210000000000000         -1.4418706086871680E-006
  0.14319999999999999         -1.4945736666049925E-006
  0.14429999999999998         -1.5484636151086306E-006
  0.14540000000000003         -1.6035349972298718E-006
  0.14650000000000002         -1.6597816738794791E-006
  0.14760000000000001         -1.7171968238471891E-006
  0.14870000000000000         -1.7757719206201728E-006
  0.14979999999999999         -1.8354966186961974E-006
  0.15090000000000003         -1.8963577304020873E-006
  0.15200000000000002         -1.9583410448831273E-006
  0.15310000000000001         -2.0214317828504136E-006
  0.15420000000000000         -2.0856148239545291E-006
  0.15529999999999999         -2.1508737972908420E-006
  0.15639999999999998         -2.2171918772073695E-006
  0.15750000000000003         -2.2845504190627253E-006
  0.15860000000000002         -2.3529285044787684E-006
  0.15970000000000001         -2.4223033960879548E-006
  0.16080000000000000         -2.4926514470280381E-006
  0.16189999999999999         -2.5639471914473688E-006
  0.16300000000000003         -2.6361651634942973E-006
  0.16410000000000002         -2.7092810341855511E-006
  0.16520000000000001         -2.7832693376694806E-006
  0.16630000000000000         -2.8581036985997343E-006
  0.16739999999999999         -2.9337561500142328E-006
  0.16850000000000004         -3.0101964512141421E-006
  0.16960000000000003         -3.0873929972585756E-006
  0.17070000000000002         -3.1653132737119449E-006
  0.17180000000000001         -3.2439245387649862E-006
  0.17290000000000000         -3.3231942779821111E-006
  0.17399999999999999         -3.4030892948067049E-006
  0.17510000000000003         -3.4835770748031791E-006
  0.17620000000000002         -3.5646241940412438E-006
  0.17730000000000001         -3.6461967738432577E-006
  0.17840000000000000         -3.7282600260368781E-006
  0.17949999999999999         -3.8107798445707886E-006
  0.18060000000000004         -3.8937214412726462E-006
  0.18170000000000003         -3.9770493458490819E-006
  0.18280000000000002         -4.0607269511383492E-006
  0.18390000000000001         -4.1447196963417809E-006
  0.18500000000000000         -4.2289925659133587E-006
  0.18609999999999999         -4.3135100895597134E-006
  0.18720000000000003         -4.3982367969874758E-006
  0.18830000000000002         -4.4831385821453296E-006
  0.18940000000000001         -4.5681804294872563E-006
  0.19050000000000000         -4.6533268687198870E-006
  0.19159999999999999         -4.7385424295498524E-006
  0.19270000000000004         -4.8237916416837834E-006
  0.19380000000000003         -4.9090394895756617E-006
  0.19490000000000002         -4.9942532314162236E-006
  0.19600000000000001         -5.0794001253962051E-006
  0.19710000000000000         -5.1644469749589916E-006
  0.19819999999999999         -5.2493592193059158E-006
  0.19930000000000003         -5.3341018428909592E-006
  0.20040000000000002         -5.4186439228942618E-006
  0.20150000000000001         -5.5029549912433140E-006
  0.20260000000000000         -5.5870050346129574E-006
  0.20369999999999999         -5.6707622206886299E-006
  0.20480000000000004         -5.7541951719031204E-006
  0.20590000000000003         -5.8372725106892176E-006
  0.20700000000000002         -5.9199642237217631E-006
  0.20810000000000001         -6.0022425714123528E-006
  0.20920000000000000         -6.0840793594252318E-006
  0.21029999999999999         -6.1654445744352415E-006
  0.21140000000000003         -6.2463063841278199E-006
  0.21250000000000002         -6.3266325014410540E-006
  0.21360000000000001         -6.4063924583024345E-006
  0.21470000000000000         -6.4855585151235573E-006
  0.21579999999999999         -6.5641052060527727E-006
  0.21690000000000004         -6.6420070652384311E-006
  0.21800000000000003         -6.7192381720815320E-006
  0.21910000000000002         -6.7957680585095659E-006
  0.22020000000000001         -6.8715676206920762E-006
  0.22130000000000000         -6.9466077547986060E-006
  0.22239999999999999         -7.0208625402301550E-006
  0.22350000000000003         -7.0943042373983189E-006
  0.22460000000000002         -7.1669032877252903E-006
  0.22570000000000001         -7.2386314968753140E-006
  0.22680000000000000         -7.3094611252599861E-006
  0.22789999999999999         -7.3793644332909025E-006
  0.22900000000000004         -7.4483145908743609E-006
  0.23010000000000003         -7.5162834036746062E-006
  0.23120000000000002         -7.5832408583664801E-006
  0.23230000000000001         -7.6491560321301222E-006
  0.23340000000000000         -7.7140020948718302E-006
  0.23450000000000004         -7.7777503975084983E-006
  0.23560000000000003         -7.8403745646937750E-006
  0.23670000000000002         -7.9018436736078002E-006
  0.23780000000000001         -7.9621295299148187E-006
  0.23890000000000000         -8.0212003013002686E-006
  0.23999999999999999         -8.0790287029230967E-006
  0.24110000000000004         -8.1355874499422498E-006
  0.24220000000000003         -8.1908483480219729E-006
  0.24330000000000002         -8.2447813838371076E-006
  0.24440000000000001         -8.2973538155783899E-006
  0.24550000000000000         -8.3485365394153632E-006
  0.24660000000000004         -8.3983022705069743E-006
  0.24770000000000003         -8.4466255430015735E-006
  0.24880000000000002         -8.4934808910475112E-006
  0.24990000000000001         -8.5388419392984360E-006
  0.25100000000000000         -8.5826768554397859E-006
  0.25209999999999999         -8.6249519881675951E-006
  0.25320000000000004         -8.6656409621355124E-006
  0.25430000000000003         -8.7047192209865898E-006
  0.25540000000000002         -8.7421676653320901E-006
  0.25650000000000001         -8.7779626483097672E-006
  0.25760000000000000         -8.8120805230573751E-006
  0.25870000000000004         -8.8444949142285623E-006
  0.25980000000000003         -8.8751830844557844E-006
  0.26090000000000002         -8.9041268438450061E-006
  0.26200000000000001         -8.9313125499757007E-006
  0.26310000000000000         -8.9567229224485345E-006
  0.26419999999999999         -8.9803379523800686E-006
  0.26530000000000004         -9.0021349024027586E-006
  0.26640000000000003         -9.0220983111066744E-006
  0.26750000000000002         -9.0402199930395000E-006
  0.26860000000000001         -9.0564963102224283E-006
  0.26970000000000000         -9.0709208961925469E-006
  0.27080000000000004         -9.0834801085293293E-006
  0.27190000000000003         -9.0941639427910559E-006
  0.27300000000000002         -9.1029642135254107E-006
  0.27410000000000001         -9.1098863777006045E-006
  0.27520000000000000         -9.1149395302636549E-006
  0.27629999999999999         -9.1181282186880708E-006
  0.27740000000000004         -9.1194515334791504E-006
  0.27850000000000003         -9.1189076556474902E-006
  0.27960000000000002         -9.1165011326665990E-006
  0.28070000000000001         -9.1122474259464070E-006
  0.28179999999999999         -9.1061710918438621E-006
  0.28290000000000004         -9.0982921392424032E-006
  0.28400000000000003         -9.0886251200572588E-006
  0.28510000000000002         -9.0771827672142535E-006
  0.28620000000000001         -9.0639805421233177E-006
  0.28730000000000000         -9.0490466391202062E-006
  0.28840000000000005         -9.0324183474876918E-006
  0.28950000000000004         -9.0141311375191435E-006
  0.29060000000000002         -8.9942122940556146E-006
  0.29170000000000001         -8.9726872829487547E-006
  0.29280000000000000         -8.9495861175237224E-006
  0.29389999999999999         -8.9249497250420973E-006
  0.29500000000000004         -8.8988235802389681E-006
  0.29610000000000003         -8.8712549768388271E-006
  0.29720000000000002         -8.8422866610926576E-006
  0.29830000000000001         -8.8119541032938287E-006
  0.29940000000000000         -8.7803009591880254E-006
  0.30050000000000004         -8.7473808889626525E-006
  0.30160000000000003         -8.7132530097733252E-006
  0.30270000000000002         -8.6779718913021497E-006
  0.30380000000000001         -8.6415866462630220E-006
  0.30490000000000000         -8.6041400209069252E-006
  0.30599999999999999         -8.5656847659265622E-006
  0.30709999999999998         -8.5262836364563555E-006
  0.30819999999999997         -8.4860021161148325E-006
  0.30930000000000007         -8.4449056885205209E-006
  0.31040000000000006         -8.4030471043661237E-006
  0.31150000000000005         -8.3604727478814311E-006
  0.31260000000000004         -8.3172344602644444E-006
  0.31370000000000003         -8.2733977251336910E-006
  0.31480000000000002         -8.2290316640865058E-006
  0.31590000000000001         -8.1842053987202235E-006
  0.31700000000000000         -8.1389734987169504E-006
  0.31809999999999999         -8.0933823483064771E-006
  0.31919999999999998         -8.0474819696974009E-006
  0.32029999999999997         -8.0013360275188461E-006
  0.32140000000000007         -7.9550154623575509E-006
  0.32250000000000006         -7.9085866673267446E-006
  0.32360000000000005         -7.8621033026138321E-006
  0.32470000000000004         -7.8156062954803929E-006
  0.32580000000000003         -7.7691402111668140E-006
  0.32690000000000002         -7.7227587098604999E-006
  0.32800000000000001         -7.6765254561905749E-006
  0.32910000000000000         -7.6305013863020577E-006
  0.33019999999999999         -7.5847347034141421E-006
  0.33129999999999998         -7.5392590588307939E-006
  0.33239999999999997         -7.4941094680980314E-006
  0.33350000000000007         -7.4493300417088903E-006
  0.33460000000000006         -7.4049730756087229E-006
  0.33570000000000005         -7.3610895015008282E-006
  0.33680000000000004         -7.3177179729100317E-006
  0.33790000000000003         -7.2748839556879830E-006
  0.33900000000000002         -7.2326106419495773E-006
  0.34010000000000001         -7.1909284997673240E-006
  0.34120000000000000         -7.1498780016554520E-006
  0.34229999999999999         -7.1094968916440848E-006
  0.34339999999999998         -7.0698129093216266E-006
  0.34449999999999997         -7.0308410613506567E-006
  0.34560000000000007         -6.9925945354043506E-006
  0.34670000000000006         -6.9550910666293930E-006
  0.34780000000000005         -6.9183561208774336E-006
  0.34890000000000004         -6.8824142545054201E-006
