 -0.20000000000000001          0.0000000000000000
 -0.19890000000000002          0.0000000000000000
 -0.19780000000000000          0.0000000000000000
 -0.19670000000000001          0.0000000000000000
 -0.19560000000000002          0.0000000000000000
 -0.19450000000000001          0.0000000000000000
 -0.19340000000000002          0.0000000000000000
 -0.19230000000000000          0.0000000000000000
 -0.19120000000000001          0.0000000000000000
 -0.19010000000000002          0.0000000000000000
 -0.18900000000000000          2.4895381596332516E-034
 -0.18790000000000001         -8.7796685647661963E-032
 -0.18680000000000002          4.5541782667806009E-031
 -0.18570000000000000         -4.3805088505991548E-030
 -0.18460000000000001         -3.4128841811830581E-029
 -0.18350000000000000          3.9011086257914376E-029
 -0.18240000000000001          4.8002638676235499E-028
 -0.18130000000000002         -5.2211180790710487E-028
 -0.18020000000000000         -7.4158772214086269E-027
 -0.17910000000000001         -4.1318585174372878E-027
 -0.17800000000000002          7.2998279244564430E-026
 -0.17690000000000000          1.6896610496333687E-025
 -0.17580000000000001         -3.0960778934616400E-025
 -0.17470000000000002         -1.8920901781359701E-024
 -0.17360000000000000         -1.4287796453327995E-024
 -0.17250000000000001          9.6805981062846520E-024
 -0.17140000000000000          2.7636574300278422E-023
 -0.17030000000000001         -1.5690403961800664E-024
 -0.16920000000000002         -1.5272514994679420E-022
 -0.16810000000000000         -2.9138338271878524E-022
 -0.16700000000000001          1.7191303657393006E-022
 -0.16589999999999999          1.6852859862294612E-021
 -0.16480000000000000          2.5243005725898606E-021
 -0.16370000000000001         -2.2354091572944579E-021
 -0.16260000000000002         -1.4591978146556852E-020
 -0.16150000000000000         -1.9380854676814510E-020
 -0.16040000000000001          1.7836004409992232E-020
 -0.15930000000000000          1.0466719541182079E-019
 -0.15820000000000001          1.3623362250836901E-019
 -0.15710000000000002         -9.9333302177531585E-020
 -0.15600000000000000         -6.3822216175840483E-019
 -0.15490000000000001         -8.7724520213991683E-019
 -0.15379999999999999          3.5922639375709204E-019
 -0.15270000000000000          3.3386620456883144E-018
 -0.15160000000000001          5.1049894045337819E-018
 -0.15050000000000002         -2.7526363247505010E-019
 -0.14940000000000001         -1.4936034707039272E-017
 -0.14830000000000002         -2.6460169417340245E-017
 -0.14720000000000000         -7.6473616908497083E-018
 -0.14610000000000001          5.6153499990297106E-017
 -0.14500000000000002          1.2074203200203835E-016
 -0.14390000000000000          7.3579826451515047E-017
 -0.14280000000000001         -1.6932626690465872E-016
 -0.14169999999999999         -4.7993755000199593E-016
 -0.14060000000000000         -4.4185195760834759E-016
 -0.13950000000000001          3.5235548872286269E-016
 -0.13840000000000002          1.6383770781166563E-015
 -0.13730000000000001          2.0556007322204174E-015
 -0.13619999999999999         -9.2357799120869138E-017
 -0.13510000000000000         -4.6779812791183147E-015
 -0.13400000000000001         -7.8535997014494638E-015
 -0.13290000000000002         -3.5038070552172217E-015
 -0.13180000000000000          1.0484398485293648E-014
 -0.13070000000000001          2.5063991206390919E-014
 -0.12959999999999999          2.1110290436294338E-014
 -0.12850000000000000         -1.4661806585990721E-014
 -0.12740000000000001         -6.6364164055636443E-014
 -0.12630000000000002         -8.2441330509237104E-014
 -0.12520000000000001         -9.7647508229769218E-015
 -0.12410000000000000          1.4016206543922965E-013
 -0.12300000000000001          2.4992367116810632E-013
 -0.12190000000000001          1.5251930035771466E-013
 -0.12080000000000000         -2.0557119645870509E-013
 -0.11970000000000000         -6.1010929381516421E-013
 -0.11860000000000001         -6.2671309114525897E-013
 -0.11750000000000001          5.5841256911461773E-014
 -0.11640000000000000          1.1763008102294581E-012
 -0.11530000000000000          1.7933096414096683E-012
 -0.11420000000000001          8.7778444452304982E-013
 -0.11310000000000001         -1.5998211869844292E-012
 -0.11200000000000000         -3.9864084255825105E-012
 -0.11090000000000001         -3.6810177302115665E-012
 -0.10980000000000001          6.4809279904515238E-013
 -0.10870000000000000          6.8872785079221455E-012
 -0.10760000000000000          9.7062392845348455E-012
 -0.10650000000000001          4.3065806996922529E-012
 -0.10540000000000001         -8.3293207400747526E-012
 -0.10430000000000000         -1.9370874695945339E-011
 -0.10320000000000000         -1.7044183772685351E-011
 -0.10210000000000001          3.0056721000981668E-012
 -0.10100000000000001          2.9760777175980024E-011
  -9.9900000000000003E-002     4.0459427474992538E-011
  -9.8799999999999999E-002     1.7544306285532940E-011
  -9.7700000000000009E-002    -3.1907601560909882E-011
  -9.6600000000000005E-002    -7.2354094937665536E-011
  -9.5500000000000002E-002    -6.1963559283562120E-011
  -9.4400000000000012E-002     9.9906619435707888E-012
  -9.3300000000000008E-002     1.0053664845077748E-010
  -9.2200000000000004E-002     1.3276117705185442E-010
  -9.1100000000000000E-002     5.5279537891639308E-011
  -9.0000000000000011E-002    -1.0026737079504855E-010
  -8.8900000000000007E-002    -2.1879251188572368E-010
  -8.7800000000000003E-002    -1.7916178263188698E-010
  -8.6699999999999999E-002     3.5966566530598598E-011
  -8.5600000000000009E-002     2.8920618677652499E-010
  -8.4500000000000006E-002     3.6331865294059185E-010
  -8.3400000000000002E-002     1.3381720731509006E-010
  -8.2299999999999998E-002    -2.8817731534402924E-010
  -8.1200000000000008E-002    -5.8299437499798046E-010
  -8.0100000000000005E-002    -4.4707093582729840E-010
  -7.9000000000000001E-002     1.2893570933147913E-010
  -7.7899999999999997E-002     7.6403217086351560E-010
  -7.6800000000000007E-002     9.1238966382078956E-010
  -7.5700000000000003E-002     3.0081837021356250E-010
  -7.4600000000000000E-002    -7.5198208770999031E-010
  -7.3500000000000010E-002    -1.4504694112460470E-009
  -7.2399999999999992E-002    -1.0883569601105592E-009
  -7.1300000000000002E-002     3.1113359111323291E-010
  -7.0200000000000012E-002     1.8217355401972668E-009
  -6.9099999999999995E-002     2.1792916360396930E-009
  -6.8000000000000005E-002     7.8305417705593072E-010
  -6.6900000000000015E-002    -1.6231501698271700E-009
  -6.5799999999999997E-002    -3.2549190009945050E-009
  -6.4700000000000008E-002    -2.5536797121361587E-009
  -6.3599999999999990E-002     4.3845749253534905E-010
  -6.2500000000000000E-002     3.7419147780326512E-009
  -6.1400000000000010E-002     4.6664441200050533E-009
  -6.0299999999999992E-002     1.9163166609104110E-009
  -5.9200000000000003E-002    -3.0108979753862286E-009
  -5.8100000000000013E-002    -6.4701555224644380E-009
  -5.6999999999999995E-002    -5.2624229418540835E-009
  -5.5900000000000005E-002     5.8667609659224240E-010
  -5.4800000000000015E-002     7.1612955565569791E-009
  -5.3699999999999998E-002     9.1126084456050194E-009
  -5.2600000000000008E-002     3.8362131249414233E-009
  -5.1499999999999990E-002    -5.7726401436752894E-009
  -5.0400000000000000E-002    -1.2590683162727601E-008
  -4.9300000000000010E-002    -1.0335075018019779E-008
  -4.8199999999999993E-002     1.0253731197451543E-009
  -4.7100000000000003E-002     1.3959936318030941E-008
  -4.6000000000000013E-002     1.8086154796037590E-008
  -4.4899999999999995E-002     8.1901800896844179E-009
  -4.3800000000000006E-002    -1.0440066589012531E-008
  -4.2699999999999988E-002    -2.4307702517489815E-008
  -4.1599999999999998E-002    -2.1201147504257278E-008
  -4.0500000000000008E-002    -4.3223666312819375E-010
  -3.9399999999999991E-002     2.4463377101824335E-008
  -3.8300000000000001E-002     3.4165655193874045E-008
  -3.7200000000000011E-002     1.8247169109031347E-008
  -3.6099999999999993E-002    -1.4812703952316042E-008
  -3.5000000000000003E-002    -4.1274688555859029E-008
  -3.3900000000000013E-002    -3.8822307146801904E-008
  -3.2799999999999996E-002    -4.8851025447049778E-009
  -3.1700000000000006E-002     3.8057876849961758E-008
  -3.0599999999999988E-002     5.6669502868089694E-008
  -2.9499999999999998E-002     3.2077455358603402E-008
  -2.8400000000000009E-002    -2.2478417349702795E-008
  -2.7299999999999991E-002    -6.7274925186211476E-008
  -2.6200000000000001E-002    -6.4167373636792036E-008
  -2.5100000000000011E-002    -7.8560384864090338E-009
  -2.3999999999999994E-002     6.4527583276685618E-008
  -2.2900000000000004E-002     9.6725187859192374E-008
  -2.1800000000000014E-002     5.5845784885377725E-008
  -2.0699999999999996E-002    -3.7318333312441609E-008
  -1.9600000000000006E-002    -1.1652193165900826E-007
  -1.8499999999999989E-002    -1.1614513795166204E-007
  -1.7399999999999999E-002    -2.3831445261635054E-008
  -1.6300000000000009E-002     1.0156470153788177E-007
  -1.5199999999999991E-002     1.6623383203295816E-007
  -1.4100000000000001E-002     1.1080288686571294E-007
  -1.3000000000000012E-002    -3.7755501836045369E-008
  -1.1899999999999994E-002    -1.7554017972543079E-007
  -1.0800000000000004E-002    -1.9350059687894827E-007
  -9.6999999999999864E-003    -6.3008656070451252E-008
  -8.5999999999999965E-003     1.3099545981276606E-007
  -7.5000000000000067E-003     2.4269036202895222E-007
  -6.3999999999999890E-003     1.7338629731966648E-007
  -5.2999999999999992E-003    -4.3800792326464943E-008
  -4.2000000000000093E-003    -2.5312510842923075E-007
  -3.0999999999999917E-003    -2.8431495024960896E-007
  -2.0000000000000018E-003    -8.6599257542729902E-008
  -9.0000000000001190E-004     2.1452274268085603E-007
   2.0000000000000573E-004     3.9299439436035755E-007
   1.2999999999999956E-003     2.8764819148818788E-007
   2.4000000000000132E-003    -6.1889203095688572E-008
   3.5000000000000031E-003    -4.1978799458775029E-007
   4.5999999999999930E-003    -5.1299883807587321E-007
   5.7000000000000106E-003    -2.3865851517257397E-007
   6.8000000000000005E-003     2.3675541171996883E-007
   7.8999999999999904E-003     5.7655023510960746E-007
   9.0000000000000080E-003     5.1611397111628321E-007
   1.0099999999999998E-002     7.4898373725318379E-008
   1.1199999999999988E-002    -4.3087530343655089E-007
   1.2300000000000005E-002    -6.0620379827014403E-007
   1.3399999999999995E-002    -2.8018610009894473E-007
   1.4500000000000013E-002     3.3417080658182385E-007
   1.5600000000000003E-002     7.6378643143470981E-007
   1.6699999999999993E-002     6.1702496623183833E-007
   1.7800000000000010E-002    -9.9624706706435973E-008
   1.8900000000000000E-002    -9.3797211775381584E-007
   1.9999999999999990E-002    -1.2991641824555700E-006
   2.1100000000000008E-002    -8.6806466015332262E-007
   2.2199999999999998E-002     1.2889944400740205E-007
   2.3300000000000015E-002     1.0550209026405355E-006
   2.4400000000000005E-002     1.3147356412446243E-006
   2.5499999999999995E-002     8.0325730777985882E-007
   2.6600000000000013E-002     7.2975114839834987E-009
   2.7700000000000002E-002    -3.4800359571818262E-007
   2.8799999999999992E-002     1.3367100848427071E-007
   2.9900000000000010E-002     1.1653644378384342E-006
   3.1000000000000000E-002     1.9327189875184558E-006
   3.2099999999999990E-002     1.6849489838932641E-006
   3.3200000000000007E-002     3.3913426022991189E-007
   3.4299999999999997E-002    -1.3717736919716117E-006
   3.5400000000000015E-002    -2.3633710952708498E-006
   3.6500000000000005E-002    -1.9714091195055516E-006
   3.7599999999999995E-002    -4.6300982603497687E-007
   3.8700000000000012E-002     1.1230251857341500E-006
   3.9800000000000002E-002     1.7291000631303177E-006
   4.0899999999999992E-002     1.0816316944328719E-006
   4.2000000000000010E-002    -7.7560315503433230E-008
   4.3099999999999999E-002    -5.5165247658806038E-007
   4.4200000000000017E-002     3.4404436632939905E-007
   4.5300000000000007E-002     2.1456162357935682E-006
   4.6399999999999997E-002     3.4747954487102106E-006
   4.7500000000000014E-002     3.0453729777946137E-006
   4.8600000000000004E-002     7.2516678528700140E-007
   4.9699999999999994E-002    -2.1762327833130257E-006
   5.0800000000000012E-002    -3.7006527691119118E-006
   5.1900000000000002E-002    -2.6154007173317950E-006
   5.2999999999999992E-002     6.2231367792264791E-007
   5.4099999999999981E-002     4.0712361624173354E-006
   5.5200000000000027E-002     5.6142312132578809E-006
   5.6300000000000017E-002     4.4630364754993934E-006
   5.7400000000000007E-002     1.7486772776464932E-006
   5.8499999999999996E-002    -2.8909042271152430E-007
   5.9599999999999986E-002     3.3405086696802755E-008
   6.0700000000000032E-002     2.5475012535025598E-006
   6.1800000000000022E-002     5.3104922699276358E-006
   6.2900000000000011E-002     6.0645697885775007E-006
   6.4000000000000001E-002     4.0229401747637894E-006
   6.5099999999999991E-002     6.1592692190970411E-007
   6.6199999999999981E-002    -1.4481533980870154E-006
   6.7300000000000026E-002    -1.9152780339481978E-007
   6.8400000000000016E-002     4.0375580283580348E-006
   6.9500000000000006E-002     8.6430927694891579E-006
   7.0599999999999996E-002     1.0591234968160279E-005
   7.1699999999999986E-002     8.6827158156665973E-006
   7.2800000000000031E-002     4.5826868699805345E-006
   7.3900000000000021E-002     1.7399290754838148E-006
   7.5000000000000011E-002     2.8819893032050459E-006
   7.6100000000000001E-002     7.8963166743051261E-006
   7.7199999999999991E-002     1.3724964446737431E-005
   7.8299999999999981E-002     1.6475360098411329E-005
   7.9400000000000026E-002     1.4290966646512970E-005
   8.0500000000000016E-002     8.8766619228408672E-006
   8.1600000000000006E-002     4.4689736569125671E-006
   8.2699999999999996E-002     4.8902079470281024E-006
   8.3799999999999986E-002     1.0774631846288685E-005
   8.4900000000000031E-002     1.9007171431439929E-005
   8.6000000000000021E-002     2.4857616153894924E-005
   8.7100000000000011E-002     2.5313083824585192E-005
   8.8200000000000001E-002     2.1202076823101379E-005
   8.9299999999999990E-002     1.6548337953281589E-005
   9.0399999999999980E-002     1.5620229532942176E-005
   9.1500000000000026E-002     1.9843721020151861E-005
   9.2600000000000016E-002     2.6870604415307753E-005
   9.3700000000000006E-002     3.2484163966728374E-005
   9.4799999999999995E-002     3.3887266909005120E-005
   9.5899999999999985E-002     3.1866267818259075E-005
   9.7000000000000031E-002     3.0156732464092784E-005
   9.8100000000000021E-002     3.2464777177665383E-005
   9.9200000000000010E-002     3.9430782635463402E-005
  0.10030000000000000          4.7917339543346316E-005
  0.10139999999999999          5.3284293244360015E-005
  0.10249999999999998          5.3007246606284752E-005
  0.10360000000000003          4.8878162488108501E-005
  0.10470000000000002          4.6000524889677763E-005
  0.10580000000000001          4.9185371608473361E-005
  0.10690000000000000          5.9327830967959017E-005
  0.10799999999999998          7.2528266173321754E-005
  0.10910000000000003          8.2698810729198158E-005
  0.11020000000000002          8.5859130194876343E-005
  0.11130000000000001          8.3002378232777119E-005
  0.11240000000000000          7.9408702731598169E-005
  0.11349999999999999          8.0873942351900041E-005
  0.11460000000000004          8.9580891653895378E-005
  0.11570000000000003          1.0265914170304313E-004
  0.11680000000000001          1.1445819836808369E-004
  0.11790000000000000          1.2080240412615240E-004
  0.11899999999999999          1.2208131374791265E-004
  0.12009999999999998          1.2283453543204814E-004
  0.12120000000000003          1.2818048708140850E-004
  0.12230000000000002          1.3981541269458830E-004
  0.12340000000000001          1.5461689326912165E-004
  0.12450000000000000          1.6699623665772378E-004
  0.12559999999999999          1.7317829770036042E-004
  0.12670000000000003          1.7420573567505926E-004
  0.12780000000000002          1.7532437050249428E-004
  0.12890000000000001          1.8216142780147493E-004
  0.13000000000000000          1.9651498587336391E-004
  0.13109999999999999          2.1494860993698239E-004
  0.13219999999999998          2.3124160361476243E-004
  0.13330000000000003          2.4095049593597651E-004
  0.13440000000000002          2.4461609427817166E-004
  0.13550000000000001          2.4736765772104263E-004
  0.13660000000000000          2.5509175611659884E-004
  0.13769999999999999          2.7009996119886637E-004
  0.13880000000000003          2.8954236768186092E-004
  0.13990000000000002          3.0765714473091066E-004
  0.14100000000000001          3.2002694206312299E-004
  0.14210000000000000          3.2686357735656202E-004
  0.14319999999999999          3.3268248080275953E-004
  0.14429999999999998          3.4281227272003889E-004
  0.14540000000000003          3.5930011654272676E-004
  0.14650000000000002          3.7946208612993360E-004
  0.14760000000000001          3.9795797783881426E-004
  0.14870000000000000          4.1078327922150493E-004
  0.14979999999999999          4.1818956378847361E-004
  0.15090000000000003          4.2445719009265304E-004
  0.15200000000000002          4.3471198296174407E-004
  0.15310000000000001          4.5109089114703238E-004
  0.15420000000000000          4.7143956180661917E-004
  0.15529999999999999          4.9108470557257533E-004
  0.15639999999999998          5.0627300515770912E-004
  0.15750000000000003          5.1689217798411846E-004
  0.15860000000000002          5.2608497207984328E-004
  0.15970000000000001          5.3765543270856142E-004
  0.16080000000000000          5.5300828535109758E-004
  0.16189999999999999          5.7013292098417878E-004
  0.16300000000000003          5.8540300233289599E-004
  0.16410000000000002          5.9657654492184520E-004
  0.16520000000000001          6.0460425447672606E-004
  0.16630000000000000          6.1286025447770953E-004
  0.16739999999999999          6.2440085457637906E-004
  0.16850000000000004          6.3956243684515357E-004
  0.16960000000000003          6.5558077767491341E-004
  0.17070000000000002          6.6868483554571867E-004
  0.17180000000000001          6.7698559723794460E-004
  0.17290000000000000          6.8161613307893276E-004
  0.17399999999999999          6.8598712095990777E-004
  0.17510000000000003          6.9325888762250543E-004
  0.17620000000000002          7.0371810579672456E-004
  0.17730000000000001          7.1505072992295027E-004
  0.17840000000000000          7.2414270834997296E-004
  0.17949999999999999          7.2936370270326734E-004
  0.18060000000000004          7.3162699118256569E-004
  0.18170000000000003          7.3356926441192627E-004
  0.18280000000000002          7.3674757732078433E-004
  0.18390000000000001          7.4088713154196739E-004
  0.18500000000000000          7.4387108907103539E-004
  0.18609999999999999          7.4394157854840159E-004
  0.18720000000000003          7.4085098458454013E-004
  0.18830000000000002          7.3663092916831374E-004
  0.18940000000000001          7.3359365342184901E-004
  0.19050000000000000          7.3234312003478408E-004
  0.19159999999999999          7.3138554580509663E-004
  0.19270000000000004          7.2825961979106069E-004
  0.19380000000000003          7.2129798354580998E-004
  0.19490000000000002          7.1131449658423662E-004
  0.19600000000000001          7.0054875686764717E-004
  0.19710000000000000          6.9112225901335478E-004
  0.19819999999999999          6.8291369825601578E-004
  0.19930000000000003          6.7432352807372808E-004
  0.20040000000000002          6.6285254433751106E-004
  0.20150000000000001          6.4779631793498993E-004
  0.20260000000000000          6.3031312311068177E-004
  0.20369999999999999          6.1272777384147048E-004
  0.20480000000000004          5.9722032165154815E-004
  0.20590000000000003          5.8372569037601352E-004
  0.20700000000000002          5.7007372379302979E-004
  0.20810000000000001          5.5309600429609418E-004
  0.20920000000000000          5.3176353685557842E-004
  0.21029999999999999          5.0721381558105350E-004
  0.21140000000000003          4.8278711619786918E-004
  0.21250000000000002          4.6140220365487039E-004
  0.21360000000000001          4.4240264105610549E-004
  0.21470000000000000          4.2323669185861945E-004
  0.21579999999999999          4.0103620267473161E-004
  0.21690000000000004          3.7541045458056033E-004
  0.21800000000000003          3.4878466976806521E-004
  0.21910000000000002          3.2414094312116504E-004
  0.22020000000000001          3.0219904147088528E-004
  0.22130000000000000          2.8074721922166646E-004
  0.22239999999999999          2.5676717632450163E-004
  0.22350000000000003          2.2872899717185646E-004
  0.22460000000000002          1.9780812726821750E-004
  0.22570000000000001          1.6802840400487185E-004
  0.22680000000000000          1.4210971130523831E-004
  0.22789999999999999          1.1982601427007467E-004
  0.22900000000000004          9.9215118098072708E-005
  0.23010000000000003          7.7249700552783906E-005
  0.23120000000000002          5.2918829169357195E-005
  0.23230000000000001          2.6412395527586341E-005
  0.23340000000000000         -2.2424765688811021E-007
  0.23450000000000004         -2.4978295186883770E-005
  0.23560000000000003         -4.7596564400009811E-005
  0.23670000000000002         -6.8494999140966684E-005
  0.23780000000000001         -8.9107699750456959E-005
  0.23890000000000000         -1.1004953557858244E-004
  0.23999999999999999         -1.3183410919737071E-004
  0.24110000000000004         -1.5336189244408160E-004
  0.24220000000000003         -1.7367076361551881E-004
  0.24330000000000002         -1.9126516417600214E-004
  0.24440000000000001         -2.0655740809161216E-004
  0.24550000000000000         -2.2135594917926937E-004
  0.24660000000000004         -2.3693934781476855E-004
  0.24770000000000003         -2.5326421018689871E-004
  0.24880000000000002         -2.6868667919188738E-004
  0.24990000000000001         -2.8167496202513576E-004
  0.25100000000000000         -2.9180225101299584E-004
  0.25209999999999999         -3.0043037259019911E-004
  0.25320000000000004         -3.0951059306971729E-004
  0.25430000000000003         -3.2009545248001814E-004
  0.25540000000000002         -3.3055912354029715E-004
  0.25650000000000001         -3.3757410710677505E-004
  0.25760000000000000         -3.4087090170942247E-004
  0.25870000000000004         -3.4055262221954763E-004
  0.25980000000000003         -3.4033198608085513E-004
  0.26090000000000002         -3.4432503161951900E-004
  0.26200000000000001         -3.5137438680976629E-004
  0.26310000000000000         -3.5669843782670796E-004
  0.26419999999999999         -3.5542168188840151E-004
  0.26530000000000004         -3.4901435719802976E-004
  0.26640000000000003         -3.4247862640768290E-004
  0.26750000000000002         -3.3959234133362770E-004
  0.26860000000000001         -3.3915106905624270E-004
  0.26970000000000000         -3.3664185320958495E-004
  0.27080000000000004         -3.2900113728828728E-004
  0.27190000000000003         -3.1717479578219354E-004
  0.27300000000000002         -3.0681327916681767E-004
  0.27410000000000001         -3.0133459949865937E-004
  0.27520000000000000         -2.9801699565723538E-004
  0.27629999999999999         -2.9206086765043437E-004
  0.27740000000000004         -2.8093528817407787E-004
  0.27850000000000003         -2.6661599986255169E-004
  0.27960000000000002         -2.5300469133071601E-004
  0.28070000000000001         -2.4237192701548338E-004
  0.28179999999999999         -2.3296980361919850E-004
  0.28290000000000004         -2.2232528135646135E-004
  0.28400000000000003         -2.0923934062011540E-004
  0.28510000000000002         -1.9583330140449107E-004
  0.28620000000000001         -1.8444278975948691E-004
  0.28730000000000000         -1.7450808081775904E-004
  0.28840000000000005         -1.6216450603678823E-004
  0.28950000000000004         -1.4660823217127472E-004
  0.29060000000000002         -1.3008895621169358E-004
  0.29170000000000001         -1.1656989954644814E-004
  0.29280000000000000         -1.0868867684621364E-004
  0.29389999999999999         -1.0248027683701366E-004
  0.29500000000000004         -9.2314076027832925E-005
  0.29610000000000003         -7.5368916441220790E-005
  0.29720000000000002         -5.7274479331681505E-005
  0.29830000000000001         -4.4495980546344072E-005
  0.29940000000000000         -3.8831014535389841E-005
  0.30050000000000004         -3.5425702662905678E-005
  0.30160000000000003         -2.7751551897381432E-005
  0.30270000000000002         -1.3087744264339563E-005
  0.30380000000000001          3.1973374916560715E-006
  0.30490000000000000          1.3193538507039193E-005
  0.30599999999999999          1.3459380170388613E-005
  0.30709999999999998          1.0537831258261576E-005
  0.30819999999999997          1.2928600881423336E-005
  0.30930000000000007          2.4203374778153375E-005
  0.31040000000000006          3.9218924939632416E-005
  0.31150000000000005          4.8315421736333519E-005
  0.31260000000000004          4.7046796680660918E-005
  0.31370000000000003          3.9088718040147796E-005
  0.31480000000000002          3.5125500289723277E-005
  0.31590000000000001          3.8307465729303658E-005
  0.31700000000000000          4.5260050683282316E-005
  0.31809999999999999          4.9176243919646367E-005
  0.31919999999999998          4.5675991714233533E-005
  0.32029999999999997          3.7369787605712190E-005
  0.32140000000000007          3.0026580134290271E-005
  0.32250000000000006          2.5872574042296037E-005
  0.32360000000000005          2.2198710212251171E-005
  0.32470000000000004          1.4910660866007674E-005
  0.32580000000000003          3.6494498090178240E-006
  0.32690000000000002         -7.0475252869073302E-006
  0.32800000000000001         -1.3475656487571541E-005
  0.32910000000000000         -1.7887366993818432E-005
  0.33019999999999999         -2.5859009838313796E-005
  0.33129999999999998         -4.2185685742879286E-005
  0.33239999999999997         -6.3932282500900328E-005
  0.33350000000000007         -8.3957238530274481E-005
  0.33460000000000006         -9.6492498414590955E-005
  0.33570000000000005         -1.0416755685582757E-004
  0.33680000000000004         -1.1420354712754488E-004
  0.33790000000000003         -1.3203575508669019E-004
  0.33900000000000002         -1.5763705596327782E-004
  0.34010000000000001         -1.8434513185638934E-004
  0.34120000000000000         -2.0567579485941678E-004
  0.34229999999999999         -2.2314088710118085E-004
  0.34339999999999998         -2.4099751317407936E-004
  0.34449999999999997         -2.6248369249515235E-004
  0.34560000000000007         -2.8834631666541100E-004
  0.34670000000000006         -3.1541608041152358E-004
  0.34780000000000005         -3.3893587533384562E-004
  0.34890000000000004         -3.5938850487582386E-004
