 -0.20000000000000001          0.0000000000000000
 -0.19890000000000002          0.0000000000000000
 -0.19780000000000000          0.0000000000000000
 -0.19670000000000001          0.0000000000000000
 -0.19560000000000002          0.0000000000000000
 -0.19450000000000001          0.0000000000000000
 -0.19340000000000002          0.0000000000000000
 -0.19230000000000000          0.0000000000000000
 -0.19120000000000001          0.0000000000000000
 -0.19010000000000002          0.0000000000000000
 -0.18900000000000000          0.0000000000000000
 -0.18790000000000001          0.0000000000000000
 -0.18680000000000002          6.3694059878034505E-040
 -0.18570000000000000          2.1523980845789263E-038
 -0.18460000000000001          2.3786521269923812E-037
 -0.18350000000000000          1.7847999089565197E-036
 -0.18240000000000001          8.7847676055645053E-036
 -0.18130000000000002          2.4431671459835312E-035
 -0.18020000000000000          2.4961011259689974E-035
 -0.17910000000000001         -3.9700792064039879E-035
 -0.17800000000000002         -9.9971868569974798E-035
 -0.17690000000000000         -1.5867187793496465E-034
 -0.17580000000000001         -1.9804572702310431E-033
 -0.17470000000000002         -7.9393520282750865E-033
 -0.17360000000000000         -1.7669046605041812E-033
 -0.17250000000000001          7.1400831667675156E-032
 -0.17140000000000000          1.8547572879279988E-031
 -0.17030000000000001         -1.0987103545299652E-031
 -0.16920000000000002         -1.4856217340155493E-030
 -0.16810000000000000         -2.4029510062447079E-030
 -0.16700000000000001          3.8280313957691791E-030
 -0.16589999999999999          2.0945105044646501E-029
 -0.16480000000000000          2.1115852275911351E-029
 -0.16370000000000001         -6.3666964785846832E-029
 -0.16260000000000002         -2.2265714605659721E-028
 -0.16150000000000000         -1.2879193076196772E-028
 -0.16040000000000001          7.4455233499320713E-028
 -0.15930000000000000          1.9345704364897347E-027
 -0.15820000000000001          4.7136287979702067E-028
 -0.15710000000000002         -6.9794499404308130E-027
 -0.15600000000000000         -1.4684232831309058E-026
 -0.15490000000000001          5.1742039904438555E-029
 -0.15379999999999999          5.5768768213632311E-026
 -0.15270000000000000          1.0276972957023404E-025
 -0.15160000000000001         -1.2489069436276153E-026
 -0.15050000000000002         -3.8949760676254576E-025
 -0.14940000000000001         -6.8330219489822381E-025
 -0.14830000000000002          5.1960893483299733E-026
 -0.14720000000000000          2.3830641893405917E-024
 -0.14610000000000001          4.3088257119245629E-024
 -0.14500000000000002          4.7226469572310802E-025
 -0.14390000000000000         -1.2618005306131043E-023
 -0.14280000000000001         -2.5180317032353482E-023
 -0.14169999999999999         -9.4161458984446966E-024
 -0.14060000000000000          5.6377301432376589E-023
 -0.13950000000000001          1.3266165295841197E-022
 -0.13840000000000002          8.8674068374804517E-023
 -0.13730000000000001         -2.0176379828475731E-022
 -0.13619999999999999         -6.1516928391750872E-022
 -0.13510000000000000         -6.0194141182327313E-022
 -0.13400000000000001          4.9564633021660616E-022
 -0.13290000000000002          2.4541158324225134E-021
 -0.13180000000000000          3.2474246509715234E-021
 -0.13070000000000001         -1.4413484596394637E-022
 -0.12959999999999999         -8.1574152863085759E-021
 -0.12850000000000000         -1.4428829695427839E-020
 -0.12740000000000001         -6.8486241101743198E-021
 -0.12630000000000002          2.1076077331710977E-020
 -0.12520000000000001          5.3320511418391386E-020
 -0.12410000000000000          4.7812147698338850E-020
 -0.12300000000000001         -3.2824038895661462E-020
 -0.12190000000000001         -1.6205772301848290E-019
 -0.12080000000000000         -2.1517418255068938E-019
 -0.11970000000000000         -3.5282833266475336E-020
 -0.11860000000000001          3.8641333894987240E-019
 -0.11750000000000001          7.4522640089462934E-019
 -0.11640000000000000          5.0986198036243939E-019
 -0.11530000000000000         -6.0792749900426274E-019
 -0.11420000000000001         -2.0507968394539851E-018
 -0.11310000000000001         -2.3323221774672733E-018
 -0.11200000000000000         -4.5311470846665943E-020
 -0.11090000000000001          4.3410703244578909E-018
 -0.10980000000000001          7.4359384621842172E-018
 -0.10870000000000000          4.5274696852324278E-018
 -0.10760000000000000         -5.9488707936542552E-018
 -0.10650000000000001         -1.8101967585551254E-017
 -0.10540000000000001         -1.9587985975474193E-017
 -0.10430000000000000         -7.2696245976461163E-019
 -0.10320000000000000          3.2759250697966282E-017
 -0.10210000000000001          5.5150708933699070E-017
 -0.10100000000000001          3.4956735404552205E-017
  -9.9900000000000003E-002    -3.5106319437803844E-017
  -9.8799999999999999E-002    -1.1470150918292292E-016
  -9.7700000000000009E-002    -1.2824142348901151E-016
  -9.6600000000000005E-002    -2.1751781270072056E-017
  -9.5500000000000002E-002     1.6905358847009184E-016
  -9.4400000000000012E-002     3.0364667380254693E-016
  -9.3300000000000008E-002     2.1947824067863859E-016
  -9.2200000000000004E-002    -1.1864407697547726E-016
  -9.1100000000000000E-002    -5.1807812012787699E-016
  -9.0000000000000011E-002    -6.3154135978614272E-016
  -8.8900000000000007E-002    -2.1656497673567583E-016
  -8.7800000000000003E-002     5.8462775178819365E-016
  -8.6699999999999999E-002     1.2069392582459023E-015
  -8.5600000000000009E-002     1.0091383244580652E-015
  -8.4500000000000006E-002    -1.6181021269142629E-016
  -8.3400000000000002E-002    -1.6345387483161734E-015
  -8.2299999999999998E-002    -2.2122764164740454E-015
  -8.1200000000000008E-002    -1.0699206675992049E-015
  -8.0100000000000005E-002     1.3658154282173785E-015
  -7.9000000000000001E-002     3.3755577966734481E-015
  -7.7899999999999997E-002     3.0728985250593832E-015
  -7.6800000000000007E-002     4.8982396636111541E-017
  -7.5700000000000003E-002    -3.8077121005384608E-015
  -7.4600000000000000E-002    -5.3292179019335736E-015
  -7.3500000000000010E-002    -2.5557658525193197E-015
  -7.2399999999999992E-002     3.1448471976650580E-015
  -7.1300000000000002E-002     7.3800871081106285E-015
  -7.0200000000000012E-002     5.8909506707948388E-015
  -6.9099999999999995E-002    -1.5018380139972232E-015
  -6.8000000000000005E-002    -9.5576055275940937E-015
  -6.6900000000000015E-002    -1.0866429826263124E-014
  -6.5799999999999997E-002    -2.0467644845146606E-015
  -6.4700000000000008E-002     1.1909982040576948E-014
  -6.3599999999999990E-002     1.9631887600486154E-014
  -6.2500000000000000E-002     1.1732187283849428E-014
  -6.1400000000000010E-002    -1.0110308078204681E-014
  -6.0299999999999992E-002    -3.1210016531888971E-014
  -5.9200000000000003E-002    -3.2778064252636865E-014
  -5.8100000000000013E-002    -6.9172318833141469E-015
  -5.6999999999999995E-002     3.3524662809269329E-014
  -5.5900000000000005E-002     5.9919280095358657E-014
  -5.4800000000000015E-002     4.7177122912455197E-014
  -5.3699999999999998E-002    -5.1224851115960583E-015
  -5.2600000000000008E-002    -6.6641807903219247E-014
  -5.1499999999999990E-002    -9.3388411424605994E-014
  -5.0400000000000000E-002    -5.9005948185256868E-014
  -4.9300000000000010E-002     2.1927192727548908E-014
  -4.8199999999999993E-002     9.8416941100593763E-014
  -4.7100000000000003E-002     1.1640543401154196E-013
  -4.6000000000000013E-002     5.9095218681633893E-014
  -4.4899999999999995E-002    -3.6622008187494129E-014
  -4.3800000000000006E-002    -1.0391932133606632E-013
  -4.2699999999999988E-002    -9.6051876034061040E-014
  -4.1599999999999998E-002    -2.5125463775504953E-014
  -4.0500000000000008E-002     4.4183850778393638E-014
  -3.9399999999999991E-002     4.7070088441108354E-014
  -3.8300000000000001E-002    -2.1066766495332623E-014
  -3.7200000000000011E-002    -8.8585904020263562E-014
  -3.6099999999999993E-002    -5.9706735811970030E-014
  -3.5000000000000003E-002     9.6374846308717316E-014
  -3.3900000000000013E-002     2.9046814324466819E-013
  -3.2799999999999996E-002     3.5111339833845956E-013
  -3.1700000000000006E-002     1.4796485163417333E-013
  -3.0599999999999988E-002    -2.8108903551114783E-013
  -2.9499999999999998E-002    -7.0389738959439341E-013
  -2.8400000000000009E-002    -8.1507305245420714E-013
  -2.7299999999999991E-002    -4.4187665137161714E-013
  -2.6200000000000001E-002     3.0534960410860679E-013
  -2.5100000000000011E-002     1.0582448545931600E-012
  -2.3999999999999994E-002     1.3939767309206763E-012
  -2.2900000000000004E-002     1.0876965560874252E-012
  -2.1800000000000014E-002     2.4112656316077619E-013
  -2.0699999999999996E-002    -7.9602622236885079E-013
  -1.9600000000000006E-002    -1.6365672922749597E-012
  -1.8499999999999989E-002    -2.0251912126456606E-012
  -1.7399999999999999E-002    -1.8475978125903625E-012
  -1.6300000000000009E-002    -1.0297258922278840E-012
  -1.5199999999999991E-002     4.8887863158750267E-013
  -1.4100000000000001E-002     2.5728677001402023E-012
  -1.3000000000000012E-002     4.5985741256582280E-012
  -1.1899999999999994E-002     5.3819535633659044E-012
  -1.0800000000000004E-002     3.6416989215859452E-012
  -9.6999999999999864E-003    -1.0472665486552235E-012
  -8.5999999999999965E-003    -7.3619799492719018E-012
  -7.5000000000000067E-003    -1.2202634736002693E-011
  -6.3999999999999890E-003    -1.1992112164405100E-011
  -5.2999999999999992E-003    -4.9054471422393942E-012
  -4.2000000000000093E-003     7.2459265150481844E-012
  -3.0999999999999917E-003     1.8949780980492825E-011
  -2.0000000000000018E-003     2.3379069513662643E-011
  -9.0000000000001190E-004     1.6303061331490731E-011
   2.0000000000000573E-004    -7.1132325290407250E-013
   1.2999999999999956E-003    -2.0091735566940550E-011
   2.4000000000000132E-003    -3.1789220561462272E-011
   3.5000000000000031E-003    -2.8909912658248160E-011
   4.5999999999999930E-003    -1.2117302820857656E-011
   5.7000000000000106E-003     1.0221217969230700E-011
   6.8000000000000005E-003     2.6720717652417569E-011
   7.8999999999999904E-003     2.9855104499709739E-011
   9.0000000000000080E-003     2.0553491200669960E-011
   1.0099999999999998E-002     7.1381559517413873E-012
   1.1199999999999988E-002    -1.0966667027614840E-012
   1.2300000000000005E-002    -1.3714225068073294E-012
   1.3399999999999995E-002    -2.5232160111299251E-013
   1.4500000000000013E-002    -8.7430731057769329E-012
   1.5600000000000003E-002    -3.2028206475853693E-011
   1.6699999999999993E-002    -6.1031617260010051E-011
   1.7800000000000010E-002    -7.3329724237236604E-011
   1.8900000000000000E-002    -4.5730048220393726E-011
   1.9999999999999990E-002     2.7401981725350133E-011
   2.1100000000000008E-002     1.2193954179728905E-010
   2.2199999999999998E-002     1.8872813034587210E-010
   2.3300000000000015E-002     1.7717481648471534E-010
   2.4400000000000005E-002     6.7243648149695190E-011
   2.5499999999999995E-002    -1.0886626322648141E-010
   2.6600000000000013E-002    -2.7193308715922626E-010
   2.7700000000000002E-002    -3.3106212216083009E-010
   2.8799999999999992E-002    -2.3420324013478933E-010
   2.9900000000000010E-002    -6.3048281873090417E-012
   3.1000000000000000E-002     2.5041166362704814E-010
   3.2099999999999990E-002     4.0151795777099153E-010
   3.3200000000000007E-002     3.5230979245071126E-010
   3.4299999999999997E-002     1.0871278877111479E-010
   3.5400000000000015E-002    -2.1070341305051699E-010
   3.6500000000000005E-002    -4.2671274846917129E-010
   3.7599999999999995E-002    -3.9497394244136785E-010
   3.8700000000000012E-002    -9.5648183817687027E-011
   3.9800000000000002E-002     3.3637057028634842E-010
   4.0899999999999992E-002     6.6673822018969986E-010
   4.2000000000000010E-002     6.8167971267740768E-010
   4.3099999999999999E-002     3.1096480945791427E-010
   4.4200000000000017E-002    -3.1737013017618665E-010
   4.5300000000000007E-002    -9.2954083319440883E-010
   4.6399999999999997E-002    -1.2449744568598931E-009
   4.7500000000000014E-002    -1.1266803046083851E-009
   4.8600000000000004E-002    -6.5362570911275952E-010
   4.9699999999999994E-002    -6.5290252371230650E-011
   5.0800000000000012E-002     3.9587375044725093E-010
   5.1900000000000002E-002     6.5014893468884338E-010
   5.2999999999999992E-002     8.4443391168420590E-010
   5.4099999999999981E-002     1.2579814967494940E-009
   5.5200000000000027E-002     2.0920680743330422E-009
   5.6300000000000017E-002     3.2708316055618525E-009
   5.7400000000000007E-002     4.3943422234349327E-009
   5.8499999999999996E-002     4.9072599317412369E-009
   5.9599999999999986E-002     4.4140628929767445E-009
   6.0700000000000032E-002     2.9632918341349068E-009
   6.1800000000000022E-002     1.1134291266756691E-009
   6.2900000000000011E-002    -2.9678653978848502E-010
   6.4000000000000001E-002    -5.7483579007922003E-010
   6.5099999999999991E-002     4.3800424398554583E-010
   6.6199999999999981E-002     2.2578088287872333E-009
   6.7300000000000026E-002     4.0196077577547840E-009
   6.8400000000000016E-002     4.9781618827182683E-009
   6.9500000000000006E-002     4.9540478386234099E-009
   7.0599999999999996E-002     4.4408303701004570E-009
   7.1699999999999986E-002     4.2828309787523722E-009
   7.2800000000000031E-002     5.1039239501449174E-009
   7.3900000000000021E-002     6.8469918623748072E-009
   7.5000000000000011E-002     8.7442302287854545E-009
   7.6100000000000001E-002     9.7837622448082584E-009
   7.7199999999999991E-002     9.4128020933226253E-009
   7.8299999999999981E-002     8.0285786907552392E-009
   7.9400000000000026E-002     6.8947452191991943E-009
   8.0500000000000016E-002     7.4570740693502557E-009
   8.1600000000000006E-002     1.0425995178309222E-008
   8.2699999999999996E-002     1.5194485669667301E-008
   8.3799999999999986E-002     2.0015516355442742E-008
   8.4900000000000031E-002     2.2928535514665782E-008
   8.6000000000000021E-002     2.2946080591168538E-008
   8.7100000000000011E-002     2.0790190902175709E-008
   8.8200000000000001E-002     1.8670696988465352E-008
   8.9299999999999990E-002     1.9138017393061091E-008
   9.0399999999999980E-002     2.3615244870711649E-008
   9.1500000000000026E-002     3.1464985283946589E-008
   9.2600000000000016E-002     4.0194382933123052E-008
   9.3700000000000006E-002     4.6763176442254917E-008
   9.4799999999999995E-002     4.9297675275283837E-008
   9.5899999999999985E-002     4.8229942706257134E-008
   9.7000000000000031E-002     4.6169134293450043E-008
   9.8100000000000021E-002     4.6527684816055626E-008
   9.9200000000000010E-002     5.1657472965871420E-008
  0.10030000000000000          6.1560953668049478E-008
  0.10139999999999999          7.3930593202931050E-008
  0.10249999999999998          8.5503863545000058E-008
  0.10360000000000003          9.3947775781089149E-008
  0.10470000000000002          9.9169433553925046E-008
  0.10580000000000001          1.0328591315555968E-007
  0.10690000000000000          1.0928680893584897E-007
  0.10799999999999998          1.1920882059257565E-007
  0.10910000000000003          1.3293886524934351E-007
  0.11020000000000002          1.4838036577202729E-007
  0.11130000000000001          1.6288042559153837E-007
  0.11240000000000000          1.7503090532500210E-007
  0.11349999999999999          1.8570563042885624E-007
  0.11460000000000004          1.9765093384194188E-007
  0.11570000000000003          2.1383959847298684E-007
  0.11680000000000001          2.3558678208246420E-007
  0.11790000000000000          2.6161276878156059E-007
  0.11899999999999999          2.8869098400718940E-007
  0.12009999999999998          3.1355631335827638E-007
  0.12120000000000003          3.3495018669782439E-007
  0.12230000000000002          3.5455079228086106E-007
  0.12340000000000001          3.7617797943312326E-007
  0.12450000000000000          4.0369158682551642E-007
  0.12559999999999999          4.3881044575755368E-007
  0.12670000000000003          4.8015675702117733E-007
  0.12780000000000002          5.2411445494726649E-007
  0.12890000000000001          5.6701412631809944E-007
  0.13000000000000000          6.0734834050890640E-007
  0.13109999999999999          6.4669319499444100E-007
  0.13219999999999998          6.8878722458975972E-007
  0.13330000000000003          7.3732496730372077E-007
  0.13440000000000002          7.9380339457202354E-007
  0.13550000000000001          8.5672883187726256E-007
  0.13660000000000000          9.2266509454930201E-007
  0.13769999999999999          9.8848477136925794E-007
  0.13880000000000003          1.0534371313042357E-006
  0.13990000000000002          1.1197632829862414E-006
  0.14100000000000001          1.1914710285054753E-006
  0.14210000000000000          1.2720131508103805E-006
  0.14319999999999999          1.3622860706163920E-006
  0.14429999999999998          1.4601678230974358E-006
  0.14540000000000003          1.5618661564076319E-006
  0.14650000000000002          1.6642512719045044E-006
  0.14760000000000001          1.7667774727669894E-006
  0.14870000000000000          1.8718468481893069E-006
  0.14979999999999999          1.9834569684462622E-006
  0.15090000000000003          2.1049927454441786E-006
  0.15200000000000002          2.2374599666363792E-006
  0.15310000000000001          2.3791635612724349E-006
  0.15420000000000000          2.5269300749641843E-006
  0.15529999999999999          2.6780776352097746E-006
  0.15639999999999998          2.8319568627921399E-006
  0.15750000000000003          2.9902328151365509E-006
  0.15860000000000002          3.1558618047711207E-006
  0.15970000000000001          3.3314699976472184E-006
  0.16080000000000000          3.5181185467081377E-006
  0.16189999999999999          3.7151005471969256E-006
  0.16300000000000003          3.9207138797792140E-006
  0.16410000000000002          4.1334033085149713E-006
  0.16520000000000001          4.3525542423594743E-006
  0.16630000000000000          4.5785286602040287E-006
  0.16739999999999999          4.8121069085027557E-006
  0.16850000000000004          5.0538837967906147E-006
  0.16960000000000003          5.3040280363347847E-006
  0.17070000000000002          5.5625237109779846E-006
  0.17180000000000001          5.8296377574151848E-006
  0.17290000000000000          6.1061441556375939E-006
  0.17399999999999999          6.3930879150575493E-006
  0.17510000000000003          6.6911584326589946E-006
  0.17620000000000002          7.0001383392082062E-006
  0.17730000000000001          7.3188330134144053E-006
  0.17840000000000000          7.6455307862488553E-006
  0.17949999999999999          7.9787914728512987E-006
  0.18060000000000004          8.3180921137682162E-006
  0.18170000000000003          8.6639456640114076E-006
  0.18280000000000002          9.0175144578097388E-006
  0.18390000000000001          9.3800254035159014E-006
  0.18500000000000000          9.7522297437535599E-006
  0.18609999999999999          1.0134200238098856E-005
  0.18720000000000003          1.0525425750529394E-005
  0.18830000000000002          1.0925034075626172E-005
  0.18940000000000001          1.1332022040733136E-005
  0.19050000000000000          1.1745278243324719E-005
  0.19159999999999999          1.2163611245341599E-005
  0.19270000000000004          1.2585996955749579E-005
  0.19380000000000003          1.3011933333473280E-005
  0.19490000000000002          1.3441652299661655E-005
  0.19600000000000001          1.3876049706595950E-005
  0.19710000000000000          1.4316277884063311E-005
  0.19819999999999999          1.4763052604394034E-005
  0.19930000000000003          1.5216028259601444E-005
  0.20040000000000002          1.5673629604862072E-005
  0.20150000000000001          1.6133348253788427E-005
  0.20260000000000000          1.6592504834989086E-005
  0.20369999999999999          1.7049122106982395E-005
  0.20480000000000004          1.7502534319646657E-005
  0.20590000000000003          1.7953301721718162E-005
  0.20700000000000002          1.8402519344817847E-005
  0.20810000000000001          1.8851160348276608E-005
  0.20920000000000000          1.9299397536087781E-005
  0.21029999999999999          1.9746372345252894E-005
  0.21140000000000003          2.0190562281641178E-005
  0.21250000000000002          2.0630459403037094E-005
  0.21360000000000001          2.1064843167550862E-005
  0.21470000000000000          2.1492458472494036E-005
  0.21579999999999999          2.1911848307354376E-005
  0.21690000000000004          2.2321451979223639E-005
  0.21800000000000003          2.2720016204402782E-005
  0.21910000000000002          2.3106944354367442E-005
  0.22020000000000001          2.3482234610128216E-005
  0.22130000000000000          2.3846218027756549E-005
  0.22239999999999999          2.4199223844334483E-005
  0.22350000000000003          2.4541219318052754E-005
  0.22460000000000002          2.4871515051927418E-005
  0.22570000000000001          2.5188728614011779E-005
  0.22680000000000000          2.5490931875538081E-005
  0.22789999999999999          2.5776076654437929E-005
  0.22900000000000004          2.6042374884127639E-005
  0.23010000000000003          2.6289037123206072E-005
  0.23120000000000002          2.6516356228967197E-005
  0.23230000000000001          2.6725045245257206E-005
  0.23340000000000000          2.6915640773950145E-005
  0.23450000000000004          2.7087995476904325E-005
  0.23560000000000003          2.7241587304160930E-005
  0.23670000000000002          2.7375832360121422E-005
  0.23780000000000001          2.7490232241689228E-005
  0.23890000000000000          2.7584026611293666E-005
  0.23999999999999999          2.7655842131935060E-005
  0.24110000000000004          2.7703945306711830E-005
  0.24220000000000003          2.7726986445486546E-005
  0.24330000000000002          2.7724538085749373E-005
  0.24440000000000001          2.7697538826032542E-005
  0.24550000000000000          2.7648178729577921E-005
  0.24660000000000004          2.7578582376008853E-005
  0.24770000000000003          2.7489568310556933E-005
  0.24880000000000002          2.7380394385545515E-005
  0.24990000000000001          2.7249314371147193E-005
  0.25100000000000000          2.7094687538919970E-005
  0.25209999999999999          2.6915948183159344E-005
  0.25320000000000004          2.6713347324403003E-005
  0.25430000000000003          2.6487656214158051E-005
  0.25540000000000002          2.6240006263833493E-005
  0.25650000000000001          2.5971634386223741E-005
  0.25760000000000000          2.5683575586299412E-005
  0.25870000000000004          2.5376597477588803E-005
  0.25980000000000003          2.5051409465959296E-005
  0.26090000000000002          2.4708053388167173E-005
  0.26200000000000001          2.4346334612346254E-005
  0.26310000000000000          2.3966498702066019E-005
  0.26419999999999999          2.3569253244204447E-005
  0.26530000000000004          2.3155529561336152E-005
  0.26640000000000003          2.2725909730070271E-005
  0.26750000000000002          2.2281117708189413E-005
  0.26860000000000001          2.1822230337420478E-005
  0.26970000000000000          2.1350586393964477E-005
  0.27080000000000004          2.0867579223704524E-005
  0.27190000000000003          2.0374422092572786E-005
  0.27300000000000002          1.9872024495271035E-005
  0.27410000000000001          1.9361163140274584E-005
  0.27520000000000000          1.8843047655536793E-005
  0.27629999999999999          1.8318547517992556E-005
  0.27740000000000004          1.7787628166843206E-005
  0.27850000000000003          1.7250096789211966E-005
  0.27960000000000002          1.6706422684364952E-005
  0.28070000000000001          1.6158315702341497E-005
  0.28179999999999999          1.5607904060743749E-005
  0.28290000000000004          1.5056676602398511E-005
  0.28400000000000003          1.4505802027997561E-005
  0.28510000000000002          1.3956478142063133E-005
  0.28620000000000001          1.3410234714683611E-005
  0.28730000000000000          1.2868622434325516E-005
  0.28840000000000005          1.2331934158282820E-005
  0.28950000000000004          1.1799262210843153E-005
  0.29060000000000002          1.1269465176155791E-005
  0.29170000000000001          1.0742515769379679E-005
  0.29280000000000000          1.0220654985459987E-005
  0.29389999999999999          9.7072743301396258E-006
  0.29500000000000004          9.2052177933510393E-006
  0.29610000000000003          8.7154730863403529E-006
  0.29720000000000002          8.2374472185620107E-006
  0.29830000000000001          7.7700724432361312E-006
  0.29940000000000000          7.3131200224452186E-006
  0.30050000000000004          6.8676044975291006E-006
  0.30160000000000003          6.4347041188739240E-006
  0.30270000000000002          6.0147976910229772E-006
  0.30380000000000001          5.6071216931741219E-006
  0.30490000000000000          5.2118134590273257E-006
  0.30599999999999999          4.8306578719348181E-006
  0.30709999999999998          4.4663070184469689E-006
  0.30819999999999997          4.1205662455467973E-006
  0.30930000000000007          3.7930433336441638E-006
  0.31040000000000006          3.4822401175915729E-006
  0.31150000000000005          3.1869437862042105E-006
  0.31260000000000004          2.9069981337670470E-006
  0.31370000000000003          2.6432492177264066E-006
  0.31480000000000002          2.3970223992364481E-006
  0.31590000000000001          2.1689718323614215E-006
  0.31700000000000000          1.9588308077800320E-006
  0.31809999999999999          1.7655469264354906E-006
  0.31919999999999998          1.5889534097368596E-006
  0.32029999999999997          1.4300651400844799E-006
  0.32140000000000007          1.2898995009891223E-006
  0.32250000000000006          1.1691166719174362E-006
  0.32360000000000005          1.0672853250071057E-006
  0.32470000000000004          9.8346322374709416E-007
  0.32580000000000003          9.1725360107375309E-007
  0.32690000000000002          8.6903315832387307E-007
  0.32800000000000001          8.3903546510555316E-007
  0.32910000000000000          8.2647034105320927E-007
  0.33019999999999999          8.2970569792450988E-007
  0.33129999999999998          8.4808112887913012E-007
  0.33239999999999997          8.8308740942011354E-007
  0.33350000000000007          9.3729840955347754E-007
  0.33460000000000006          1.0122853382199537E-006
  0.33570000000000005          1.1073382211179705E-006
  0.33680000000000004          1.2199546972624375E-006
  0.33790000000000003          1.3472504178935196E-006
  0.33900000000000002          1.4877113017064403E-006
  0.34010000000000001          1.6422565067841788E-006
  0.34120000000000000          1.8129303498426452E-006
  0.34229999999999999          2.0010024854855146E-006
  0.34339999999999998          2.2068568341637729E-006
  0.34449999999999997          2.4300445602420950E-006
  0.34560000000000007          2.6693244308262365E-006
  0.34670000000000006          2.9232876386231510E-006
  0.34780000000000005          3.1905531159281963E-006
  0.34890000000000004          3.4706474707490997E-006
