 -0.20000000000000001          0.0000000000000000
 -0.19890000000000002          0.0000000000000000
 -0.19780000000000000          0.0000000000000000
 -0.19670000000000001          0.0000000000000000
 -0.19560000000000002          0.0000000000000000
 -0.19450000000000001          0.0000000000000000
 -0.19340000000000002          0.0000000000000000
 -0.19230000000000000          0.0000000000000000
 -0.19120000000000001          0.0000000000000000
 -0.19010000000000002          7.0689288643170167E-042
 -0.18900000000000000          6.0753026761579198E-029
 -0.18790000000000001          2.5920072786099312E-028
 -0.18680000000000002          1.2447789824228908E-027
 -0.18570000000000000          3.7069147863468307E-027
 -0.18460000000000001         -2.0008612533247598E-026
 -0.18350000000000000         -1.6315243428498763E-025
 -0.18240000000000001         -2.7697236717829081E-025
 -0.18130000000000002          8.4865725209006190E-025
 -0.18020000000000000          4.0705707858873454E-024
 -0.17910000000000001          1.8600843162768349E-024
 -0.17800000000000002         -2.3838605049816174E-023
 -0.17690000000000000         -5.6227462036616295E-023
 -0.17580000000000001          3.4528719500535876E-023
 -0.17470000000000002          3.7021050431055694E-022
 -0.17360000000000000          5.0279808007469897E-022
 -0.17250000000000001         -8.5958202031665582E-022
 -0.17140000000000000         -3.7784899523090531E-021
 -0.17030000000000001         -2.8051790795997984E-021
 -0.16920000000000002          1.1009507381203390E-020
 -0.16810000000000000          3.0062047287436613E-020
 -0.16700000000000001          6.8925066879175292E-021
 -0.16589999999999999         -1.0711921724137313E-019
 -0.16480000000000000         -2.1484973388016479E-019
 -0.16370000000000001          2.5878796212453213E-020
 -0.16260000000000002          8.5404413012634429E-019
 -0.16150000000000000          1.4915487127036685E-018
 -0.16040000000000001         -2.3764498332989162E-019
 -0.15930000000000000         -5.6117736009335059E-018
 -0.15820000000000001         -9.9124187816771158E-018
 -0.15710000000000002         -7.0898446463568263E-019
 -0.15600000000000000          2.9927434266838252E-017
 -0.15490000000000001          5.9429929309404736E-017
 -0.15379999999999999          2.4442781782458879E-017
 -0.15270000000000000         -1.2526407620962772E-016
 -0.15160000000000001         -3.0613636833235933E-016
 -0.15050000000000002         -2.3474057001326972E-016
 -0.14940000000000001          3.7587735544004179E-016
 -0.14830000000000002          1.3130206057689440E-015
 -0.14720000000000000          1.4854575614679423E-015
 -0.14610000000000001         -5.1225439803824945E-016
 -0.14500000000000002         -4.5449492490379888E-015
 -0.14390000000000000         -7.0925045994422043E-015
 -0.14280000000000001         -2.3344617661499243E-015
 -0.14169999999999999          1.1918394771808572E-014
 -0.14060000000000000          2.6627297236702404E-014
 -0.13950000000000001          2.1529968156609665E-014
 -0.13840000000000002         -1.8849642509297244E-014
 -0.13730000000000001         -7.8627933970592712E-014
 -0.13619999999999999         -9.9202445574573181E-014
 -0.13510000000000000         -1.3733316174282352E-014
 -0.13400000000000001          1.7395504795739473E-013
 -0.13290000000000002          3.2737948094631210E-013
 -0.13180000000000000          2.2712342802934712E-013
 -0.13070000000000001         -2.3230937030816203E-013
 -0.12959999999999999         -8.1744029947764006E-013
 -0.12850000000000000         -9.5368786652572459E-013
 -0.12740000000000001         -1.2589124079150308E-013
 -0.12630000000000002          1.4821373295336920E-012
 -0.12520000000000001          2.6757203223927825E-012
 -0.12410000000000000          1.8584420027199094E-012
 -0.12300000000000001         -1.4868221671207668E-012
 -0.12190000000000001         -5.5127204884321068E-012
 -0.12080000000000000         -6.4615899436632526E-012
 -0.11970000000000000         -1.4556023487246688E-012
 -0.11860000000000001          7.9628959676056140E-012
 -0.11750000000000001          1.4867067646418700E-011
 -0.11640000000000000          1.1028173166340173E-011
 -0.11530000000000000         -5.4510489004553597E-012
 -0.11420000000000001         -2.4953128105465109E-011
 -0.11310000000000001         -3.0158958663763976E-011
 -0.11200000000000000         -9.4207142087328028E-012
 -0.11090000000000001          2.9204659524050048E-011
 -0.10980000000000001          5.6967559142197799E-011
 -0.10870000000000000          4.3272611188753889E-011
 -0.10760000000000000         -1.5658202165421136E-011
 -0.10650000000000001         -8.2290209368896399E-011
 -0.10540000000000001         -9.7332697457380719E-011
 -0.10430000000000000         -2.7815843378638382E-011
 -0.10320000000000000          9.1779341071515909E-011
 -0.10210000000000001          1.6747311870624631E-010
 -0.10100000000000001          1.1314147535524944E-010
  -9.9900000000000003E-002    -6.5681404759480334E-011
  -9.8799999999999999E-002    -2.4522686659090177E-010
  -9.7700000000000009E-002    -2.5868102104810662E-010
  -9.6600000000000005E-002    -3.6567564948314427E-011
  -9.5500000000000002E-002     2.9715563343301958E-010
  -9.4400000000000012E-002     4.7611053988207718E-010
  -9.3300000000000008E-002     2.8816843355986362E-010
  -9.2200000000000004E-002    -2.1753224221930061E-010
  -9.1100000000000000E-002    -6.9686817427695536E-010
  -9.0000000000000011E-002    -7.2886480184668370E-010
  -8.8900000000000007E-002    -1.6023578297557479E-010
  -8.7800000000000003E-002     6.9343158992650139E-010
  -8.6699999999999999E-002     1.2002681071266232E-009
  -8.5600000000000009E-002     8.7015944449937626E-010
  -8.4500000000000006E-002    -2.0558427182842616E-010
  -8.3400000000000002E-002    -1.3111624008743601E-009
  -8.2299999999999998E-002    -1.5773002903785577E-009
  -8.1200000000000008E-002    -6.6939703780030231E-010
  -8.0100000000000005E-002     8.4565293656519872E-010
  -7.9000000000000001E-002     1.8212619190549824E-009
  -7.7899999999999997E-002     1.3943118881699186E-009
  -7.6800000000000007E-002    -2.4119148345209136E-010
  -7.5700000000000003E-002    -1.8194639128666005E-009
  -7.4600000000000000E-002    -1.8992374339888677E-009
  -7.3500000000000010E-002    -8.4501981800832227E-011
  -7.2399999999999992E-002     2.4001431953024998E-009
  -7.1300000000000002E-002     3.3973075463934993E-009
  -7.0200000000000012E-002     1.4569536688215714E-009
  -6.9099999999999995E-002    -2.7314319694936925E-009
  -6.8000000000000005E-002    -6.3415130924228694E-009
  -6.6900000000000015E-002    -6.1624310099265769E-009
  -6.5799999999999997E-002    -1.0764023006263952E-009
  -6.4700000000000008E-002     6.5435727947259188E-009
  -6.3599999999999990E-002     1.1827273382891951E-008
  -6.2500000000000000E-002     1.0494940916317438E-008
  -6.1400000000000010E-002     2.0789643340185767E-009
  -6.0299999999999992E-002    -9.1145597735928441E-009
  -5.9200000000000003E-002    -1.6361202170856109E-008
  -5.8100000000000013E-002    -1.4892444610837240E-008
  -5.6999999999999995E-002    -5.2922146664973912E-009
  -5.5900000000000005E-002     6.6962266842549160E-009
  -5.4800000000000015E-002     1.4098699097075941E-008
  -5.3699999999999998E-002     1.3636221929402868E-008
  -5.2600000000000008E-002     7.8673512149406434E-009
  -5.1499999999999990E-002     2.6602031688581130E-009
  -5.0400000000000000E-002     1.7902841431550759E-009
  -4.9300000000000010E-002     3.1170690473210846E-009
  -4.8199999999999993E-002     2.9775969885498170E-011
  -4.7100000000000003E-002    -1.2217468814411495E-008
  -4.6000000000000013E-002    -3.0102889070348855E-008
  -4.4899999999999995E-002    -4.1265316497175512E-008
  -4.3800000000000006E-002    -3.1867578798030651E-008
  -4.2699999999999988E-002     2.3108666091761768E-009
  -4.1599999999999998E-002     4.9242167676765000E-008
  -4.0500000000000008E-002     8.4674198319590492E-008
  -3.9399999999999991E-002     8.5757839940472412E-008
  -3.8300000000000001E-002     4.5807503568087441E-008
  -3.7200000000000011E-002    -2.0043396276035739E-008
  -3.6099999999999993E-002    -8.2731148154380393E-008
  -3.5000000000000003E-002    -1.1565946778091638E-007
  -3.3900000000000013E-002    -1.0848936682350617E-007
  -3.2799999999999996E-002    -6.9338618402525449E-008
  -3.1700000000000006E-002    -1.5325957392063987E-008
  -3.0599999999999988E-002     3.9793444983616223E-008
  -2.9499999999999998E-002     9.0530932084219794E-008
  -2.8400000000000009E-002     1.3383186114879010E-007
  -2.7299999999999991E-002     1.5941618869419321E-007
  -2.6200000000000001E-002     1.4783501001147728E-007
  -2.5100000000000011E-002     8.2163658987613322E-008
  -2.3999999999999994E-002    -3.3098707774568074E-008
  -2.2900000000000004E-002    -1.6164467808721558E-007
  -2.1800000000000014E-002    -2.4669128606547819E-007
  -2.0699999999999996E-002    -2.4255672315122301E-007
  -1.9600000000000006E-002    -1.4779475066007936E-007
  -1.8499999999999989E-002    -1.4946552440165642E-008
  -1.7399999999999999E-002     7.6016696937146447E-008
  -1.6300000000000009E-002     6.8909635331268920E-008
  -1.5199999999999991E-002    -2.5090646005271198E-008
  -1.4100000000000001E-002    -1.2410684746552035E-007
  -1.3000000000000012E-002    -1.2122140446988918E-007
  -1.1899999999999994E-002     4.6117076379906592E-008
  -1.0800000000000004E-002     3.4858439335035645E-007
  -9.6999999999999864E-003     6.7465009578875655E-007
  -8.5999999999999965E-003     8.9524058921588591E-007
  -7.5000000000000067E-003     9.4140170858725858E-007
  -6.3999999999999890E-003     8.4042147818752200E-007
  -5.2999999999999992E-003     6.8308588652133111E-007
  -4.2000000000000093E-003     5.4506523383671171E-007
  -3.0999999999999917E-003     4.2250755427627092E-007
  -2.0000000000000018E-003     2.3572077623159493E-007
  -9.0000000000001190E-004    -9.4346468415474935E-008
   2.0000000000000573E-004    -5.5025031997490839E-007
   1.2999999999999956E-003    -9.7921599717653563E-007
   2.4000000000000132E-003    -1.1538664921316957E-006
   3.5000000000000031E-003    -9.0483081294220320E-007
   4.5999999999999930E-003    -2.4046769908639667E-007
   5.7000000000000106E-003     6.3119011883818784E-007
   6.8000000000000005E-003     1.4019594800628118E-006
   7.8999999999999904E-003     1.8267726318298021E-006
   9.0000000000000080E-003     1.8479304344508193E-006
   1.0099999999999998E-002     1.6023735724955674E-006
   1.1199999999999988E-002     1.3123307098793437E-006
   1.2300000000000005E-002     1.1368490504536564E-006
   1.3399999999999995E-002     1.0853241292351639E-006
   1.4500000000000013E-002     1.0473195288795431E-006
   1.5600000000000003E-002     9.1057131612609868E-007
   1.6699999999999993E-002     6.7765643052546643E-007
   1.7800000000000010E-002     4.9438773430657231E-007
   1.8900000000000000E-002     5.6627010280852169E-007
   1.9999999999999990E-002     1.0188389296671165E-006
   2.1100000000000008E-002     1.7987549654206398E-006
   2.2199999999999998E-002     2.6858822366191475E-006
   2.3300000000000015E-002     3.4116351343979723E-006
   2.4400000000000005E-002     3.8067250898162943E-006
   2.5499999999999995E-002     3.8830530684204991E-006
   2.6600000000000013E-002     3.8009986838002091E-006
   2.7700000000000002E-002     3.7534928196688367E-006
   2.8799999999999992E-002     3.8512803257614254E-006
   2.9900000000000010E-002     4.0868735595719320E-006
   3.1000000000000000E-002     4.3891041059392613E-006
   3.2099999999999990E-002     4.7128041842366144E-006
   3.3200000000000007E-002     5.0860953706428254E-006
   3.4299999999999997E-002     5.5804071052984044E-006
   3.5400000000000015E-002     6.2363037613971351E-006
   3.6500000000000005E-002     7.0172604864631599E-006
   3.7599999999999995E-002     7.8363900684046353E-006
   3.8700000000000012E-002     8.6360123532351035E-006
   3.9800000000000002E-002     9.4448123491011302E-006
   4.0899999999999992E-002     1.0355472113586904E-005
   4.2000000000000010E-002     1.1431889106460213E-005
   4.3099999999999999E-002     1.2622668691618591E-005
   4.4200000000000017E-002     1.3765119547314196E-005
   4.5300000000000007E-002     1.4692685908811326E-005
   4.6399999999999997E-002     1.5375795555881803E-005
   4.7500000000000014E-002     1.5983701814546744E-005
   4.8600000000000004E-002     1.6807778592918430E-005
   4.9699999999999994E-002     1.8089991499435356E-005
   5.0800000000000012E-002     1.9874678400808975E-005
   5.1900000000000002E-002     2.1987847503621916E-005
   5.2999999999999992E-002     2.4163055059032185E-005
   5.4099999999999981E-002     2.6226283807770754E-005
   5.5200000000000027E-002     2.8207356081108748E-005
   5.6300000000000017E-002     3.0301765946202866E-005
   5.7400000000000007E-002     3.2712367101336567E-005
   5.8499999999999996E-002     3.5478667996354887E-005
   5.9599999999999986E-002     3.8419708289435464E-005
   6.0700000000000032E-002     4.1239080019291665E-005
   6.1800000000000022E-002     4.3725325667761251E-005
   6.2900000000000011E-002     4.5923901780038806E-005
   6.4000000000000001E-002     4.8161618906301793E-005
   6.5099999999999991E-002     5.0887083489210326E-005
   6.6199999999999981E-002     5.4427739087254335E-005
   6.7300000000000026E-002     5.8803005231306090E-005
   6.8400000000000016E-002     6.3721374317532152E-005
   6.9500000000000006E-002     6.8762587034137273E-005
   7.0599999999999996E-002     7.3630122642491823E-005
   7.1699999999999986E-002     7.8310607932500917E-005
   7.2800000000000031E-002     8.3045233623117137E-005
   7.3900000000000021E-002     8.8143351604222719E-005
   7.5000000000000011E-002     9.3775961431666202E-005
   7.6100000000000001E-002     9.9884535302399068E-005
   7.7199999999999991E-002     1.0625961294862419E-004
   7.8299999999999981E-002     1.1269738752161069E-004
   7.9400000000000026E-002     1.1911427282028685E-004
   8.0500000000000016E-002     1.2555641296784184E-004
   8.1600000000000006E-002     1.3213336933403006E-004
   8.2699999999999996E-002     1.3897119788451725E-004
   8.3799999999999986E-002     1.4620558067689261E-004
   8.4900000000000031E-002     1.5401675773317466E-004
   8.6000000000000021E-002     1.6259771655312202E-004
   8.7100000000000011E-002     1.7206736083606559E-004
   8.8200000000000001E-002     1.8234417075289617E-004
   8.9299999999999990E-002     1.9312780932521554E-004
   9.0399999999999980E-002     2.0400027278808886E-004
   9.1500000000000026E-002     2.1462349104693079E-004
   9.2600000000000016E-002     2.2491239360531619E-004
   9.3700000000000006E-002     2.3508544836656857E-004
   9.4799999999999995E-002     2.4556924472560741E-004
   9.5899999999999985E-002     2.5676758377810466E-004
   9.7000000000000031E-002     2.6884640101340943E-004
   9.8100000000000021E-002     2.8170019504611610E-004
   9.9200000000000010E-002     2.9498458025043015E-004
  0.10030000000000000          3.0831454205323950E-004
  0.10139999999999999          3.2144080614668205E-004
  0.10249999999999998          3.3436605008316001E-004
  0.10360000000000003          3.4738349495452478E-004
  0.10470000000000002          3.6093193921257256E-004
  0.10580000000000001          3.7528542452488405E-004
  0.10690000000000000          3.9048879989419302E-004
  0.10799999999999998          4.0637093479741387E-004
  0.10910000000000003          4.2260086047459265E-004
  0.11020000000000002          4.3891507084477417E-004
  0.11130000000000001          4.5520378625947560E-004
  0.11240000000000000          4.7149002784858821E-004
  0.11349999999999999          4.8779396456661856E-004
  0.11460000000000004          5.0408142851661041E-004
  0.11570000000000003          5.2023475291202716E-004
  0.11680000000000001          5.3620908875013490E-004
  0.11790000000000000          5.5209011770779835E-004
  0.11899999999999999          5.6805543135846450E-004
  0.12009999999999998          5.8432336663821977E-004
  0.12120000000000003          6.0093781212339280E-004
  0.12230000000000002          6.1780994292342985E-004
  0.12340000000000001          6.3470966415473990E-004
  0.12450000000000000          6.5136805642390281E-004
  0.12559999999999999          6.6757813328871020E-004
  0.12670000000000003          6.8324233870947098E-004
  0.12780000000000002          6.9840514333912326E-004
  0.12890000000000001          7.1327510522671989E-004
  0.13000000000000000          7.2813843144097239E-004
  0.13109999999999999          7.4314232915633090E-004
  0.13219999999999998          7.5819570338346587E-004
  0.13330000000000003          7.7278161188580488E-004
  0.13440000000000002          7.8632729127995932E-004
  0.13550000000000001          7.9883681610219334E-004
  0.13660000000000000          8.1039126962415919E-004
  0.13769999999999999          8.2162488251917012E-004
  0.13880000000000003          8.3280081162221580E-004
  0.13990000000000002          8.4402109496287754E-004
  0.14100000000000001          8.5475970990948034E-004
  0.14210000000000000          8.6446217028416251E-004
  0.14319999999999999          8.7270094081751473E-004
  0.14429999999999998          8.7950204033396533E-004
  0.14540000000000003          8.8518054690203891E-004
  0.14650000000000002          8.8998931460074367E-004
  0.14760000000000001          8.9419976575291901E-004
  0.14870000000000000          8.9771929197005160E-004
  0.14979999999999999          9.0067164273924336E-004
  0.15090000000000003          9.0311502572140777E-004
  0.15200000000000002          9.0496672783038678E-004
  0.15310000000000001          9.0580765390760353E-004
  0.15420000000000000          9.0528983855611732E-004
  0.15529999999999999          9.0277777053407492E-004
  0.15639999999999998          8.9856237173072183E-004
  0.15750000000000003          8.9282559929407376E-004
  0.15860000000000002          8.8616326684124076E-004
  0.15970000000000001          8.7893678573883443E-004
  0.16080000000000000          8.7127182632676706E-004
  0.16189999999999999          8.6287612793959213E-004
  0.16300000000000003          8.5361773381001870E-004
  0.16410000000000002          8.4328028606243141E-004
  0.16520000000000001          8.3164119860149727E-004
  0.16630000000000000          8.1865600077427839E-004
  0.16739999999999999          8.0391613300882325E-004
  0.16850000000000004          7.8767788363613375E-004
  0.16960000000000003          7.7054533176116984E-004
  0.17070000000000002          7.5275602284811938E-004
  0.17180000000000001          7.3437404353164811E-004
  0.17290000000000000          7.1565108373754585E-004
  0.17399999999999999          6.9608935154968053E-004
  0.17510000000000003          6.7545991623767948E-004
  0.17620000000000002          6.5391958924004368E-004
  0.17730000000000001          6.3161662546911963E-004
  0.17840000000000000          6.0843094252044285E-004
  0.17949999999999999          5.8502820320421997E-004
  0.18060000000000004          5.6082702940324705E-004
  0.18170000000000003          5.3609162569041055E-004
  0.18280000000000002          5.1052897470067174E-004
  0.18390000000000001          4.8424451961177569E-004
  0.18500000000000000          4.5758823398496436E-004
  0.18609999999999999          4.3025036575268684E-004
  0.18720000000000003          4.0280749090012142E-004
  0.18830000000000002          3.7527995300475737E-004
  0.18940000000000001          3.4772607614282997E-004
  0.19050000000000000          3.2083617406894254E-004
  0.19159999999999999          2.9408253612925349E-004
  0.19270000000000004          2.6661666925062720E-004
  0.19380000000000003          2.3923952539914826E-004
  0.19490000000000002          2.1156048751434168E-004
  0.19600000000000001          1.8420661217531301E-004
  0.19710000000000000          1.5752833860459173E-004
  0.19819999999999999          1.3115954061503212E-004
  0.19930000000000003          1.0481661593074847E-004
  0.20040000000000002          7.8111610491752499E-005
  0.20150000000000001          5.0990132876899396E-005
  0.20260000000000000          2.5325340175183285E-005
  0.20369999999999999          1.5568039088968591E-006
  0.20480000000000004         -2.0663575924116460E-005
  0.20590000000000003         -4.2859130189750240E-005
  0.20700000000000002         -6.6710766986937818E-005
  0.20810000000000001         -9.1470639745231145E-005
  0.20920000000000000         -1.1511491902637220E-004
  0.21029999999999999         -1.3682054122908695E-004
  0.21140000000000003         -1.5588477253912475E-004
  0.21250000000000002         -1.7400663637088883E-004
  0.21360000000000001         -1.9245308067182180E-004
  0.21470000000000000         -2.1154248679520500E-004
  0.21579999999999999         -2.3025077825875731E-004
  0.21690000000000004         -2.4726509582249066E-004
  0.21800000000000003         -2.6268657529724228E-004
  0.21910000000000002         -2.7714946190824052E-004
  0.22020000000000001         -2.9087052098472713E-004
  0.22130000000000000         -3.0561257153746652E-004
  0.22239999999999999         -3.1999355996955973E-004
  0.22350000000000003         -3.3306042314504004E-004
  0.22460000000000002         -3.4524183138270474E-004
  0.22570000000000001         -3.5680763539854872E-004
  0.22680000000000000         -3.6711490247395216E-004
  0.22789999999999999         -3.7757868994955202E-004
  0.22900000000000004         -3.8828316610302913E-004
  0.23010000000000003         -3.9764060056764682E-004
  0.23120000000000002         -4.0573626756664329E-004
  0.23230000000000001         -4.1336301364932091E-004
  0.23340000000000000         -4.2109779315065398E-004
  0.23450000000000004         -4.2925612069662390E-004
  0.23560000000000003         -4.3781741987909781E-004
  0.23670000000000002         -4.4580677058543599E-004
  0.23780000000000001         -4.5269570546220507E-004
  0.23890000000000000         -4.5905099250371953E-004
  0.23999999999999999         -4.6493418631139526E-004
  0.24110000000000004         -4.7144945710893038E-004
  0.24220000000000003         -4.7899052151474355E-004
  0.24330000000000002         -4.8640932072880808E-004
  0.24440000000000001         -4.9265555571760121E-004
  0.24550000000000000         -4.9830414354796527E-004
  0.24660000000000004         -5.0448381807650369E-004
  0.24770000000000003         -5.1205005729566182E-004
  0.24880000000000002         -5.2104779751966485E-004
  0.24990000000000001         -5.3066841792310290E-004
  0.25100000000000000         -5.3940690122539746E-004
  0.25209999999999999         -5.4610922234127779E-004
  0.25320000000000004         -5.5333925411099973E-004
  0.25430000000000003         -5.6209944887081480E-004
  0.25540000000000002         -5.7236052816728362E-004
  0.25650000000000001         -5.8392091887066286E-004
  0.25760000000000000         -5.9456162853160932E-004
  0.25870000000000004         -6.0449779266485916E-004
  0.25980000000000003         -6.1297439970070349E-004
  0.26090000000000002         -6.2332273228088127E-004
  0.26200000000000001         -6.3705694628873465E-004
  0.26310000000000000         -6.5243308199563511E-004
  0.26419999999999999         -6.6698133014136333E-004
  0.26530000000000004         -6.7899003624909777E-004
  0.26640000000000003         -6.9021730450906870E-004
  0.26750000000000002         -7.0275960024439668E-004
  0.26860000000000001         -7.1912241401144111E-004
  0.26970000000000000         -7.3721411172293736E-004
  0.27080000000000004         -7.5534853385754409E-004
  0.27190000000000003         -7.7044602949165157E-004
  0.27300000000000002         -7.8252941602833755E-004
  0.27410000000000001         -7.9596677096553181E-004
  0.27520000000000000         -8.1348337698720278E-004
  0.27629999999999999         -8.3277857629574577E-004
  0.27740000000000004         -8.5181667236603397E-004
  0.27850000000000003         -8.6731865303582903E-004
  0.27960000000000002         -8.8229629909611547E-004
  0.28070000000000001         -8.9775514788917354E-004
  0.28179999999999999         -9.1394450282669562E-004
  0.28290000000000004         -9.3195994850239511E-004
  0.28400000000000003         -9.4958237605160688E-004
  0.28510000000000002         -9.6536747878408504E-004
  0.28620000000000001         -9.8044949118038954E-004
  0.28730000000000000         -9.9555961787691502E-004
  0.28840000000000005         -1.0107590351252820E-003
  0.28950000000000004         -1.0254778899251474E-003
  0.29060000000000002         -1.0383985936640739E-003
  0.29170000000000001         -1.0504018282516826E-003
  0.29280000000000000         -1.0618730448185422E-003
  0.29389999999999999         -1.0760111035778134E-003
  0.29500000000000004         -1.0887358803301057E-003
  0.29610000000000003         -1.0996046476065113E-003
  0.29720000000000002         -1.1067610466851776E-003
  0.29830000000000001         -1.1103027500211178E-003
  0.29940000000000000         -1.1143984738736323E-003
  0.30050000000000004         -1.1222490575163531E-003
  0.30160000000000003         -1.1319515760986969E-003
  0.30270000000000002         -1.1390494182704849E-003
  0.30380000000000001         -1.1393156601115029E-003
  0.30490000000000000         -1.1347703402860918E-003
  0.30599999999999999         -1.1291037080808440E-003
  0.30709999999999998         -1.1288890382273953E-003
  0.30819999999999997         -1.1330741690470743E-003
  0.30930000000000007         -1.1352273868395859E-003
  0.31040000000000006         -1.1298649478702722E-003
  0.31150000000000005         -1.1164679890497511E-003
  0.31260000000000004         -1.1006670538335035E-003
  0.31370000000000003         -1.0889683617277938E-003
  0.31480000000000002         -1.0835258290170643E-003
  0.31590000000000001         -1.0778338182716597E-003
  0.31700000000000000         -1.0663383873178605E-003
  0.31809999999999999         -1.0454653529449361E-003
  0.31919999999999998         -1.0205935686825782E-003
  0.32029999999999997         -9.9814881104966831E-004
  0.32140000000000007         -9.8329025786361127E-004
  0.32250000000000006         -9.7157468553623824E-004
  0.32360000000000005         -9.5438025891772407E-004
  0.32470000000000004         -9.2681276146314249E-004
  0.32580000000000003         -8.9317571837446989E-004
  0.32690000000000002         -8.6386210750780622E-004
  0.32800000000000001         -8.4076175699002913E-004
  0.32910000000000000         -8.2133145770050717E-004
  0.33019999999999999         -7.9785054549567816E-004
  0.33129999999999998         -7.6529441867016930E-004
  0.33239999999999997         -7.2783755604171186E-004
  0.33350000000000007         -6.9300673203536573E-004
  0.33460000000000006         -6.6483282716938851E-004
  0.33570000000000005         -6.3972664065653408E-004
  0.33680000000000004         -6.0955848312000077E-004
  0.33790000000000003         -5.7252921396861410E-004
  0.33900000000000002         -5.3151359315956851E-004
  0.34010000000000001         -4.9374904483552291E-004
  0.34120000000000000         -4.6382544678631754E-004
  0.34229999999999999         -4.3665265548039142E-004
  0.34339999999999998         -4.0729413740333415E-004
  0.34449999999999997         -3.6940895370204550E-004
  0.34560000000000007         -3.2631919020783987E-004
  0.34670000000000006         -2.8632458997887757E-004
  0.34780000000000005         -2.5554446619933051E-004
  0.34890000000000004         -2.3061873798722315E-004
