 -0.20000000000000001          0.0000000000000000
 -0.19890000000000002          0.0000000000000000
 -0.19780000000000000          0.0000000000000000
 -0.19670000000000001          0.0000000000000000
 -0.19560000000000002          0.0000000000000000
 -0.19450000000000001          0.0000000000000000
 -0.19340000000000002         -1.4186679547854419E-014
 -0.19230000000000000         -1.7002054603608430E-013
 -0.19120000000000001         -9.1830926543523539E-013
 -0.19010000000000002         -2.8432020193064345E-012
 -0.18900000000000000         -5.0201210376188410E-012
 -0.18790000000000001         -2.9060998399388360E-012
 -0.18680000000000002          8.1063116288970782E-012
 -0.18570000000000000          1.9051933641822671E-011
 -0.18460000000000001          7.0367886864652895E-013
 -0.18350000000000000         -5.8379377720907399E-011
 -0.18240000000000001         -7.6767592283033537E-011
 -0.18130000000000002          1.0022032509438006E-010
 -0.18020000000000000          4.3366737978445258E-010
 -0.17910000000000001          3.6448172258118916E-010
 -0.17800000000000002         -8.6800139298404133E-010
 -0.17690000000000000         -2.7898205967602507E-009
 -0.17580000000000001         -2.3800101889293046E-009
 -0.17470000000000002          4.0521279665028942E-009
 -0.17360000000000000          1.4438363393765030E-008
 -0.17250000000000001          1.5545152720619626E-008
 -0.17140000000000000         -9.7423793476991705E-009
 -0.17030000000000001         -5.7809309339518222E-008
 -0.16920000000000002         -8.1804870433188626E-008
 -0.16810000000000000         -1.1061104032705771E-008
 -0.16700000000000001          1.6853478257417009E-007
 -0.16589999999999999          3.2735866284383519E-007
 -0.16480000000000000          2.1935997551736364E-007
 -0.16370000000000001         -2.9873578455408278E-007
 -0.16260000000000002         -9.7334122983738780E-007
 -0.16150000000000000         -1.1088341125287116E-006
 -0.16040000000000001         -4.5687848171382939E-008
 -0.15930000000000000          2.0074032818229171E-006
 -0.15820000000000001          3.5252601264801342E-006
 -0.15710000000000002          2.4159116946975701E-006
 -0.15600000000000000         -2.0592387954820879E-006
 -0.15490000000000001         -7.5759603532787878E-006
 -0.15379999999999999         -9.2453510660561733E-006
 -0.15270000000000000         -3.0789801712671760E-006
 -0.15160000000000001          9.5463810794171877E-006
 -0.15050000000000002          2.0425977709237486E-005
 -0.14940000000000001          1.8938959328806959E-005
 -0.14830000000000002          6.8357513782757451E-007
 -0.14720000000000000         -2.6054240152006969E-005
 -0.14610000000000001         -4.2726493120426312E-005
 -0.14500000000000002         -3.2652787922415882E-005
 -0.14390000000000000          4.8308966142940335E-006
 -0.14280000000000001          4.9715912609826773E-005
 -0.14169999999999999          7.2118811658583581E-005
 -0.14060000000000000          5.2572780987247825E-005
 -0.13950000000000001         -2.8994747935939813E-006
 -0.13840000000000002         -6.4951767853926867E-005
 -0.13730000000000001         -9.9252189102116972E-005
 -0.13619999999999999         -8.7166525190696120E-005
 -0.13510000000000000         -3.3900236303452402E-005
 -0.13400000000000001          3.9018108509480953E-005
 -0.13290000000000002          1.0658852261258289E-004
 -0.13180000000000000          1.4640374865848571E-004
 -0.13070000000000001          1.3747614866588265E-004
 -0.12959999999999999          6.3534702348988503E-005
 -0.12850000000000000         -7.0460657298099250E-005
 -0.12740000000000001         -2.1870860655326396E-004
 -0.12630000000000002         -2.9803405050188303E-004
 -0.12520000000000001         -2.3158747353591025E-004
 -0.12410000000000000         -1.4392867342394311E-005
 -0.12300000000000001          2.5163931422866881E-004
 -0.12190000000000001          4.0071760304272175E-004
 -0.12080000000000000          3.1704502180218697E-004
 -0.11970000000000000          4.3227901187492535E-005
 -0.11860000000000001         -2.1579116582870483E-004
 -0.11750000000000001         -2.3162367870099843E-004
 -0.11640000000000000          4.3217220081714913E-005
 -0.11530000000000000          3.6768437712453306E-004
 -0.11420000000000001          3.3334799809381366E-004
 -0.11310000000000001         -3.0842280830256641E-004
 -0.11200000000000000         -1.3234709622338414E-003
 -0.11090000000000001         -1.9606575369834900E-003
 -0.10980000000000001         -1.3553329044952989E-003
 -0.10870000000000000          7.8525434946641326E-004
 -0.10760000000000000          3.6575398407876492E-003
 -0.10650000000000001          5.4806573316454887E-003
 -0.10540000000000001          4.4207307510077953E-003
 -0.10430000000000000         -7.2837021434679627E-005
 -0.10320000000000000         -6.3601885922253132E-003
 -0.10210000000000001         -1.0945979505777359E-002
 -0.10100000000000001         -1.0236659087240696E-002
  -9.9900000000000003E-002    -2.9410102870315313E-003
  -9.8799999999999999E-002     8.3523755893111229E-003
  -9.7700000000000009E-002     1.7733605578541756E-002
  -9.6600000000000005E-002     1.8869092687964439E-002
  -9.5500000000000002E-002     8.9116431772708893E-003
  -9.4400000000000012E-002    -8.8921943679451942E-003
  -9.3300000000000008E-002    -2.5862095877528191E-002
  -9.2200000000000004E-002    -3.2045871019363403E-002
  -9.1100000000000000E-002    -2.1903945133090019E-002
  -9.0000000000000011E-002     1.7766021192073822E-003
  -8.8900000000000007E-002     2.8429597616195679E-002
  -8.7800000000000003E-002     4.4989287853240967E-002
  -8.6699999999999999E-002     4.3240096420049667E-002
  -8.5600000000000009E-002     2.4953585118055344E-002
  -8.4500000000000006E-002     1.4286750229075551E-003
  -8.3400000000000002E-002    -1.2800840660929680E-002
  -8.2299999999999998E-002    -8.6857974529266357E-003
  -8.1200000000000008E-002     1.1451699770987034E-002
  -8.0100000000000005E-002     3.4806232899427414E-002
  -7.9000000000000001E-002     4.5717850327491760E-002
  -7.7899999999999997E-002     3.5676963627338409E-002
  -7.6800000000000007E-002     9.4383396208286285E-003
  -7.5700000000000003E-002    -1.7014317214488983E-002
  -7.4600000000000000E-002    -2.5940040126442909E-002
  -7.3500000000000010E-002    -9.1133182868361473E-003
  -7.2399999999999992E-002     2.6339014992117882E-002
  -7.1300000000000002E-002     6.1708915978670120E-002
  -7.0200000000000012E-002     7.8195460140705109E-002
  -6.9099999999999995E-002     6.8984575569629669E-002
  -6.8000000000000005E-002     4.3956257402896881E-002
  -6.6900000000000015E-002     2.3480558767914772E-002
  -6.5799999999999997E-002     2.4844849482178688E-002
  -6.4700000000000008E-002     5.0032798200845718E-002
  -6.3599999999999990E-002     8.3270996809005737E-002
  -6.2500000000000000E-002    0.10081955790519714
  -6.1400000000000010E-002     8.7448425590991974E-002
  -6.0299999999999992E-002     4.9058251082897186E-002
  -5.9200000000000003E-002     1.2433758936822414E-002
  -5.8100000000000013E-002     1.0692728683352470E-002
  -5.6999999999999995E-002     6.2206104397773743E-002
  -5.5900000000000005E-002    0.15588526427745819
  -5.4800000000000015E-002    0.25310605764389038
  -5.3699999999999998E-002    0.30713003873825073
  -5.2600000000000008E-002    0.28997009992599487
  -5.1499999999999990E-002    0.21097989380359650
  -5.0400000000000000E-002    0.11507970094680786
  -4.9300000000000010E-002     6.0021083801984787E-002
  -4.8199999999999993E-002     8.4842808544635773E-002
  -4.7100000000000003E-002    0.18776296079158783
  -4.6000000000000013E-002    0.32689142227172852
  -4.4899999999999995E-002    0.44381529092788696
  -4.3800000000000006E-002    0.49634099006652832
  -4.2699999999999988E-002    0.48112651705741882
  -4.1599999999999998E-002    0.43319287896156311
  -4.0500000000000008E-002    0.40346732735633850
  -3.9399999999999991E-002    0.42862007021903992
  -3.8300000000000001E-002    0.51143711805343628
  -3.7200000000000011E-002    0.62266170978546143
  -3.6099999999999993E-002    0.72175168991088867
  -3.5000000000000003E-002    0.78282058238983154
  -3.3900000000000013E-002    0.80980336666107178
  -3.2799999999999996E-002    0.83233314752578735
  -3.1700000000000006E-002    0.88583838939666748
  -3.0599999999999988E-002    0.98867756128311157
  -2.9499999999999998E-002     1.1304775476455688
  -2.8400000000000009E-002     1.2787247896194458
  -2.7299999999999991E-002     1.3995548486709595
  -2.6200000000000001E-002     1.4799313545227051
  -2.5100000000000011E-002     1.5373674631118774
  -2.3999999999999994E-002     1.6106575727462769
  -2.2900000000000004E-002     1.7368503808975220
  -2.1800000000000014E-002     1.9284602403640747
  -2.0699999999999996E-002     2.1652555465698242
  -1.9600000000000006E-002     2.4061250686645508
  -1.8499999999999989E-002     2.6138105392456055
  -1.7399999999999999E-002     2.7771904468536377
  -1.6300000000000009E-002     2.9174671173095703
  -1.5199999999999991E-002     3.0751769542694092
  -1.4100000000000001E-002     3.2868132591247559
  -1.3000000000000012E-002     3.5657351016998291
  -1.1899999999999994E-002     3.8980243206024170
  -1.0800000000000004E-002     4.2538762092590332
  -9.6999999999999864E-003     4.6058993339538574
  -8.5999999999999965E-003     4.9430871009826660
  -7.5000000000000067E-003     5.2737264633178711
  -6.3999999999999890E-003     5.6178808212280273
  -5.2999999999999992E-003     5.9956417083740234
  -4.2000000000000093E-003     6.4179377555847168
  -3.0999999999999917E-003     6.8841128349304199
  -2.0000000000000018E-003     7.3857879638671875
  -9.0000000000001190E-004     7.9136147499084473
   2.0000000000000573E-004     8.4627542495727539
   1.2999999999999956E-003     9.0343999862670898
   2.4000000000000132E-003     9.6336069107055664
   3.5000000000000031E-003     10.265578269958496
   4.5999999999999930E-003     10.933510780334473
   5.7000000000000106E-003     11.639065742492676
   6.8000000000000005E-003     12.384240150451660
   7.8999999999999904E-003     13.172143936157227
   9.0000000000000080E-003     14.005720138549805
   1.0099999999999998E-002     14.885778427124023
   1.1199999999999988E-002     15.810761451721191
   1.2300000000000005E-002     16.779071807861328
   1.3399999999999995E-002     17.791845321655273
   1.4500000000000013E-002     18.853240966796875
   1.5600000000000003E-002     19.967119216918945
   1.6699999999999993E-002     21.133684158325195
   1.7800000000000010E-002     22.348934173583984
   1.8900000000000000E-002     23.608715057373047
   1.9999999999999990E-002     24.913709640502930
   2.1100000000000008E-002     26.270774841308594
   2.2199999999999998E-002     27.689302444458008
   2.3300000000000015E-002     29.176845550537109
   2.4400000000000005E-002     30.736423492431641
   2.5499999999999995E-002     32.368511199951172
   2.6600000000000013E-002     34.073196411132812
   2.7700000000000002E-002     35.848739624023438
   2.8799999999999992E-002     37.688941955566406
   2.9900000000000010E-002     39.582515716552734
   3.1000000000000000E-002     41.519607543945312
   3.2099999999999990E-002     43.500442504882812
   3.3200000000000007E-002     45.539203643798828
   3.4299999999999997E-002     47.656139373779297
   3.5400000000000015E-002     49.864173889160156
   3.6500000000000005E-002     52.161613464355469
   3.7599999999999995E-002     54.535911560058594
   3.8700000000000012E-002     56.977275848388672
   3.9800000000000002E-002     59.486473083496094
   4.0899999999999992E-002     62.067653656005859
   4.2000000000000010E-002     64.716453552246094
   4.3099999999999999E-002     67.414947509765625
   4.4200000000000017E-002     70.145706176757812
   4.5300000000000007E-002     72.912597656250000
   4.6399999999999997E-002     75.747268676757812
   4.7500000000000014E-002     78.688285827636719
   4.8600000000000004E-002     81.749099731445312
   4.9699999999999994E-002     84.901489257812500
   5.0800000000000012E-002     88.093521118164062
   5.1900000000000002E-002     91.289077758789062
   5.2999999999999992E-002     94.495742797851562
   5.4099999999999981E-002     97.755195617675781
   5.5200000000000027E-002     101.10091400146484
   5.6300000000000017E-002     104.52886962890625
   5.7400000000000007E-002     108.00111389160156
   5.8499999999999996E-002     111.48085784912109
   5.9599999999999986E-002     114.96602630615234
   6.0700000000000032E-002     118.48342895507812
   6.1800000000000022E-002     122.06072998046875
   6.2900000000000011E-002     125.69197845458984
   6.4000000000000001E-002     129.34556579589844
   6.5099999999999991E-002     132.99760437011719
   6.6199999999999981E-002     136.65698242187500
   6.7300000000000026E-002     140.35168457031250
   6.8400000000000016E-002     144.09089660644531
   6.9500000000000006E-002     147.83822631835938
   7.0599999999999996E-002     151.53489685058594
   7.1699999999999986E-002     155.15274047851562
   7.2800000000000031E-002     158.72486877441406
   7.3900000000000021E-002     162.32104492187500
   7.5000000000000011E-002     165.98561096191406
   7.6100000000000001E-002     169.68775939941406
   7.7199999999999991E-002     173.34295654296875
   7.8299999999999981E-002     176.88407897949219
   7.9400000000000026E-002     180.31481933593750
   8.0500000000000016E-002     183.69720458984375
   8.1600000000000006E-002     187.08566284179688
   8.2699999999999996E-002     190.46812438964844
   8.3799999999999986E-002     193.77687072753906
   8.4900000000000031E-002     196.95645141601562
   8.6000000000000021E-002     200.01715087890625
   8.7100000000000011E-002     203.02626037597656
   8.8200000000000001E-002     206.03692626953125
   8.9299999999999990E-002     209.02362060546875
   9.0399999999999980E-002     211.90119934082031
   9.1500000000000026E-002     214.59616088867188
   9.2600000000000016E-002     217.11288452148438
   9.3700000000000006E-002     219.52984619140625
   9.4799999999999995E-002     221.92402648925781
   9.5899999999999985E-002     224.28944396972656
   9.7000000000000031E-002     226.54240417480469
   9.8100000000000021E-002     228.59945678710938
   9.9200000000000010E-002     230.45506286621094
  0.10030000000000000          232.18327331542969
  0.10139999999999999          233.86587524414062
  0.10249999999999998          235.50439453125000
  0.10360000000000003          237.02241516113281
  0.10470000000000002          238.33355712890625
  0.10580000000000001          239.42730712890625
  0.10690000000000000          240.38006591796875
  0.10799999999999998          241.27503967285156
  0.10910000000000003          242.12040710449219
  0.11020000000000002          242.84410095214844
  0.11130000000000001          243.35578918457031
  0.11240000000000000          243.64712524414062
  0.11349999999999999          243.78727722167969
  0.11460000000000004          243.86936950683594
  0.11570000000000003          243.91853332519531
  0.11680000000000001          243.86108398437500
  0.11790000000000000          243.61343383789062
  0.11899999999999999          243.14753723144531
  0.12009999999999998          242.52514648437500
  0.12120000000000003          241.83161926269531
  0.12230000000000002          241.09928894042969
  0.12340000000000001          240.27290344238281
  0.12450000000000000          239.28654479980469
  0.12559999999999999          238.12562561035156
  0.12670000000000003          236.84956359863281
  0.12780000000000002          235.52879333496094
  0.12890000000000001          234.18980407714844
  0.13000000000000000          232.77719116210938
  0.13109999999999999          231.21615600585938
  0.13219999999999998          229.48185729980469
  0.13330000000000003          227.63092041015625
  0.13440000000000002          225.74978637695312
  0.13550000000000001          223.89259338378906
  0.13660000000000000          222.02593994140625
  0.13769999999999999          220.07745361328125
  0.13880000000000003          217.99980163574219
  0.13990000000000002          215.81784057617188
  0.14100000000000001          213.59254455566406
  0.14210000000000000          211.38050842285156
  0.14319999999999999          209.17984008789062
  0.14429999999999998          206.94833374023438
  0.14540000000000003          204.64900207519531
  0.14650000000000002          202.29405212402344
  0.14760000000000001          199.93270874023438
  0.14870000000000000          197.59826660156250
  0.14979999999999999          195.30709838867188
  0.15090000000000003          193.01033020019531
  0.15200000000000002          190.67294311523438
  0.15310000000000001          188.28901672363281
  0.15420000000000000          185.90213012695312
  0.15529999999999999          183.57002258300781
  0.15639999999999998          181.31733703613281
  0.15750000000000003          179.12899780273438
  0.15860000000000002          176.95245361328125
  0.15970000000000001          174.73893737792969
  0.16080000000000000          172.49719238281250
  0.16189999999999999          170.28724670410156
  0.16300000000000003          168.17269897460938
  0.16410000000000002          166.17369079589844
  0.16520000000000001          164.24404907226562
  0.16630000000000000          162.30752563476562
  0.16739999999999999          160.34130859375000
  0.16850000000000004          158.39755249023438
  0.16960000000000003          156.54907226562500
  0.17070000000000002          154.83467102050781
  0.17180000000000001          153.20756530761719
  0.17290000000000000          151.59960937500000
  0.17399999999999999          149.96330261230469
  0.17510000000000003          148.34172058105469
  0.17620000000000002          146.81541442871094
  0.17730000000000001          145.43867492675781
  0.17840000000000000          144.17758178710938
  0.17949999999999999          142.94473266601562
  0.18060000000000004          141.66410827636719
  0.18170000000000003          140.38337707519531
  0.18280000000000002          139.19042968750000
  0.18390000000000001          138.16360473632812
  0.18500000000000000          137.26766967773438
  0.18609999999999999          136.39555358886719
  0.18720000000000003          135.45332336425781
  0.18830000000000002          134.47425842285156
  0.18940000000000001          133.57659912109375
  0.19050000000000000          132.86016845703125
  0.19159999999999999          132.30397033691406
  0.19270000000000004          131.79577636718750
  0.19380000000000003          131.22570800781250
  0.19490000000000002          130.58871459960938
  0.19600000000000001          129.98179626464844
  0.19710000000000000          129.51142883300781
  0.19819999999999999          129.19697570800781
  0.19930000000000003          128.93238830566406
  0.20040000000000002          128.62272644042969
  0.20150000000000001          128.26715087890625
  0.20260000000000000          127.93588256835938
  0.20369999999999999          127.71893310546875
  0.20480000000000004          127.61677551269531
  0.20590000000000003          127.54679107666016
  0.20700000000000002          127.43211364746094
  0.20810000000000001          127.28244018554688
  0.20920000000000000          127.16236114501953
  0.21029999999999999          127.13829803466797
  0.21140000000000003          127.19329833984375
  0.21250000000000002          127.26438903808594
  0.21360000000000001          127.29140472412109
  0.21470000000000000          127.28820800781250
  0.21579999999999999          127.31768035888672
  0.21690000000000004          127.42020416259766
  0.21800000000000003          127.57282257080078
  0.21910000000000002          127.73415374755859
  0.22020000000000001          127.87596893310547
  0.22130000000000000          128.01261901855469
  0.22239999999999999          128.17752075195312
  0.22350000000000003          128.37458801269531
  0.22460000000000002          128.56784057617188
  0.22570000000000001          128.73162841796875
  0.22680000000000000          128.87480163574219
  0.22789999999999999          129.05024719238281
  0.22900000000000004          129.29016113281250
  0.23010000000000003          129.57157897949219
  0.23120000000000002          129.84440612792969
  0.23230000000000001          130.05522155761719
  0.23340000000000000          130.22012329101562
  0.23450000000000004          130.38366699218750
  0.23560000000000003          130.60614013671875
  0.23670000000000002          130.87393188476562
  0.23780000000000001          131.14343261718750
  0.23890000000000000          131.38088989257812
  0.23999999999999999          131.59442138671875
  0.24110000000000004          131.82180786132812
  0.24220000000000003          132.06822204589844
  0.24330000000000002          132.30102539062500
  0.24440000000000001          132.48728942871094
  0.24550000000000000          132.63793945312500
  0.24660000000000004          132.82051086425781
  0.24770000000000003          133.08596801757812
  0.24880000000000002          133.39881896972656
  0.24990000000000001          133.67053222656250
  0.25100000000000000          133.84597778320312
  0.25209999999999999          133.94421386718750
  0.25320000000000004          134.06282043457031
  0.25430000000000003          134.28125000000000
  0.25540000000000002          134.56819152832031
  0.25650000000000001          134.82296752929688
  0.25760000000000000          134.96649169921875
  0.25870000000000004          135.04629516601562
  0.25980000000000003          135.16528320312500
  0.26090000000000002          135.38885498046875
  0.26200000000000001          135.67396545410156
  0.26310000000000000          135.89483642578125
  0.26419999999999999          135.98631286621094
  0.26530000000000004          136.01246643066406
  0.26640000000000003          136.11598205566406
  0.26750000000000002          136.36865234375000
  0.26860000000000001          136.67070007324219
  0.26970000000000000          136.86886596679688
  0.27080000000000004          136.88691711425781
  0.27190000000000003          136.83227539062500
  0.27300000000000002          136.87783813476562
  0.27410000000000001          137.12524414062500
  0.27520000000000000          137.47480773925781
  0.27629999999999999          137.72416687011719
  0.27740000000000004          137.75720214843750
  0.27850000000000003          137.67224121093750
  0.27960000000000002          137.66757202148438
  0.28070000000000001          137.86512756347656
  0.28179999999999999          138.18533325195312
  0.28290000000000004          138.42427062988281
  0.28400000000000003          138.46920776367188
  0.28510000000000002          138.38682556152344
  0.28620000000000001          138.36485290527344
  0.28730000000000000          138.54054260253906
  0.28840000000000005          138.84147644042969
  0.28950000000000004          139.10459899902344
  0.29060000000000002          139.19546508789062
  0.29170000000000001          139.16194152832031
  0.29280000000000000          139.14868164062500
  0.29389999999999999          139.27514648437500
  0.29500000000000004          139.50291442871094
  0.29610000000000003          139.70770263671875
  0.29720000000000002          139.80606079101562
  0.29830000000000001          139.82951354980469
  0.29940000000000000          139.89065551757812
  0.30050000000000004          140.05198669433594
  0.30160000000000003          140.27557373046875
  0.30270000000000002          140.45729064941406
  0.30380000000000001          140.54570007324219
  0.30490000000000000          140.60548400878906
  0.30599999999999999          140.72323608398438
  0.30709999999999998          140.94093322753906
  0.30819999999999997          141.18109130859375
  0.30930000000000007          141.35494995117188
  0.31040000000000006          141.44236755371094
  0.31150000000000005          141.52156066894531
  0.31260000000000004          141.68093872070312
  0.31370000000000003          141.92514038085938
  0.31480000000000002          142.18801879882812
  0.31590000000000001          142.38374328613281
  0.31700000000000000          142.52272033691406
  0.31809999999999999          142.68307495117188
  0.31919999999999998          142.92765808105469
  0.32029999999999997          143.23683166503906
  0.32140000000000007          143.50927734375000
  0.32250000000000006          143.69332885742188
  0.32360000000000005          143.83207702636719
  0.32470000000000004          144.02496337890625
  0.32580000000000003          144.33952331542969
  0.32690000000000002          144.72604370117188
  0.32800000000000001          145.08407592773438
  0.32910000000000000          145.35885620117188
  0.33019999999999999          145.60000610351562
  0.33129999999999998          145.89689636230469
  0.33239999999999997          146.27027893066406
  0.33350000000000007          146.67507934570312
  0.33460000000000006          147.03102111816406
  0.33570000000000005          147.32263183593750
  0.33680000000000004          147.62701416015625
  0.33790000000000003          148.02482604980469
  0.33900000000000002          148.51644897460938
  0.34010000000000001          149.01345825195312
  0.34120000000000000          149.44319152832031
  0.34229999999999999          149.81301879882812
  0.34339999999999998          150.20494079589844
  0.34449999999999997          150.69065856933594
  0.34560000000000007          151.24305725097656
  0.34670000000000006          151.78169250488281
  0.34780000000000005          152.25035095214844
  0.34890000000000004          152.68316650390625
