 -0.20000000000000001          0.0000000000000000
 -0.19890000000000002          0.0000000000000000
 -0.19780000000000000          0.0000000000000000
 -0.19670000000000001          0.0000000000000000
 -0.19560000000000002          0.0000000000000000
 -0.19450000000000001          0.0000000000000000
 -0.19340000000000002          0.0000000000000000
 -0.19230000000000000          0.0000000000000000
 -0.19120000000000001          0.0000000000000000
 -0.19010000000000002          0.0000000000000000
 -0.18900000000000000          2.2546968170274300E-026
 -0.18790000000000001          3.5005360007726693E-025
 -0.18680000000000002          7.7976228214780581E-025
 -0.18570000000000000         -7.0757707197749136E-024
 -0.18460000000000001         -4.3415761401518089E-023
 -0.18350000000000000         -4.8076730282798333E-023
 -0.18240000000000001          3.5533930242205630E-022
 -0.18130000000000002          1.5478471809556480E-021
 -0.18020000000000000          1.4491521746364975E-021
 -0.17910000000000001         -7.5044103148669459E-021
 -0.17800000000000002         -2.9434979759629406E-020
 -0.17690000000000000         -2.9758103648756468E-020
 -0.17580000000000001          8.9959064628272725E-020
 -0.17470000000000002          3.7187594987698264E-019
 -0.17360000000000000          4.4827859055301961E-019
 -0.17250000000000001         -6.4403625918767521E-019
 -0.17140000000000000         -3.3955886154442138E-018
 -0.17030000000000001         -5.0290728358651964E-018
 -0.16920000000000002          1.9772728907072092E-018
 -0.16810000000000000          2.2892638697072543E-017
 -0.16700000000000001          4.2428866327258067E-017
 -0.16589999999999999          1.2842658952349273E-017
 -0.16480000000000000         -1.1116817741790061E-016
 -0.16370000000000001         -2.7156275982644854E-016
 -0.16260000000000002         -2.2217324805389555E-016
 -0.16150000000000000          3.4191885167260763E-016
 -0.16040000000000001          1.3163744327235002E-015
 -0.15930000000000000          1.6846757931344579E-015
 -0.15820000000000001         -1.7634009675461835E-016
 -0.15710000000000002         -4.6879538215228132E-015
 -0.15600000000000000         -8.6151407663044403E-015
 -0.15490000000000001         -5.0633486593505521E-015
 -0.15379999999999999          1.0824072249669778E-014
 -0.15270000000000000          3.1995138146962560E-014
 -0.15160000000000001          3.5139548063868598E-014
 -0.15050000000000002         -5.3911406690590729E-015
 -0.14940000000000001         -8.4855577696819201E-014
 -0.14830000000000002         -1.4196568996326792E-013
 -0.14720000000000000         -8.1462912587468295E-014
 -0.14610000000000001          1.3697952548717002E-013
 -0.14500000000000002          3.9709452089378705E-013
 -0.14390000000000000          4.2964007460240261E-013
 -0.14280000000000001          6.5963084637749112E-015
 -0.14169999999999999         -7.5708737239457702E-013
 -0.14060000000000000         -1.2748682318153293E-012
 -0.13950000000000001         -8.1485588675905829E-013
 -0.13840000000000002          7.7932110634573726E-013
 -0.13730000000000001          2.5425787777283437E-012
 -0.13619999999999999          2.7589330559713021E-012
 -0.13510000000000000          3.9369907074010557E-013
 -0.13400000000000001         -3.4109069735333009E-012
 -0.13290000000000002         -5.4422742354343079E-012
 -0.13180000000000000         -2.8994551985045414E-012
 -0.13070000000000001          3.2967068745032302E-012
 -0.12959999999999999          7.7462741082667819E-012
 -0.12850000000000000          4.6371582788917731E-012
 -0.12740000000000001         -5.5160685047406233E-012
 -0.12630000000000002         -1.3000351663239318E-011
 -0.12520000000000001         -5.5786625319242944E-012
 -0.12410000000000000          1.7673336752399571E-011
 -0.12300000000000001          3.7630464716498224E-011
 -0.12190000000000001          2.4955813457405718E-011
 -0.12080000000000000         -3.1671075484407396E-011
 -0.11970000000000000         -1.0022284391286718E-010
 -0.11860000000000001         -1.1298772334411566E-010
 -0.11750000000000001         -1.7643976557568664E-011
 -0.11640000000000000          1.5901284455832609E-010
 -0.11530000000000000          2.9442959181835704E-010
 -0.11420000000000001          2.4085436423071371E-010
 -0.11310000000000001         -4.6575306111851233E-011
 -0.11200000000000000         -4.2380129960939428E-010
 -0.11090000000000001         -6.1270943874092154E-010
 -0.10980000000000001         -3.9754288749804800E-010
 -0.10870000000000000          1.7065332480470374E-010
 -0.10760000000000000          7.4577699571420908E-010
 -0.10650000000000001          9.0892676718468124E-010
 -0.10540000000000001          5.0196996559392915E-010
 -0.10430000000000000         -2.0659499111452817E-010
 -0.10320000000000000         -7.1074679475202629E-010
 -0.10210000000000001         -7.0058436829611992E-010
 -0.10100000000000001         -3.6465991337664150E-010
  -9.9900000000000003E-002    -2.2620355588642838E-010
  -9.8799999999999999E-002    -5.7084720284095170E-010
  -9.7700000000000009E-002    -9.7061425563538251E-010
  -9.6600000000000005E-002    -4.7128473346091937E-010
  -9.5500000000000002E-002     1.4952381555133343E-009
  -9.4400000000000012E-002     4.1534362615891496E-009
  -9.3300000000000008E-002     5.3713518077813660E-009
  -9.2200000000000004E-002     3.0167162101690792E-009
  -9.1100000000000000E-002    -3.0601288170117869E-009
  -9.0000000000000011E-002    -1.0000705152890532E-008
  -8.8900000000000007E-002    -1.3099321627407789E-008
  -8.7800000000000003E-002    -8.8338287795863835E-009
  -8.6699999999999999E-002     2.2034707392037944E-009
  -8.5600000000000009E-002     1.4792475688807372E-008
  -8.4500000000000006E-002     2.1804368088851334E-008
  -8.3400000000000002E-002     1.8572434257180248E-008
  -8.2299999999999998E-002     5.9107381211731536E-009
  -8.1200000000000008E-002    -1.0392943394776921E-008
  -8.0100000000000005E-002    -2.3185398489999898E-008
  -7.9000000000000001E-002    -2.7898311216745242E-008
  -7.7899999999999997E-002    -2.3977724694645985E-008
  -7.6800000000000007E-002    -1.3235442963832611E-008
  -7.5700000000000003E-002     2.6523532259403737E-009
  -7.4600000000000000E-002     2.2532779198058961E-008
  -7.3500000000000010E-002     4.3274951622152003E-008
  -7.2399999999999992E-002     5.6996146469145970E-008
  -7.1300000000000002E-002     5.2101398750892258E-008
  -7.0200000000000012E-002     1.9891308156161358E-008
  -6.9099999999999995E-002    -3.6396780700442832E-008
  -6.8000000000000005E-002    -9.6915670155794942E-008
  -6.6900000000000015E-002    -1.3065080395335826E-007
  -6.5799999999999997E-002    -1.1069533911722829E-007
  -6.4700000000000008E-002    -3.1737815930910074E-008
  -6.3599999999999990E-002     8.1228428427948529E-008
  -6.2500000000000000E-002     1.8028707415851386E-007
  -6.1400000000000010E-002     2.1625398005653551E-007
  -6.0299999999999992E-002     1.6375955169678491E-007
  -5.9200000000000003E-002     3.5935290298994005E-008
  -5.8100000000000013E-002    -1.1976428027082875E-007
  -5.6999999999999995E-002    -2.4247279384326248E-007
  -5.5900000000000005E-002    -2.8420197395462310E-007
  -5.4800000000000015E-002    -2.2808015387454361E-007
  -5.3699999999999998E-002    -9.1205869523491856E-008
  -5.2600000000000008E-002     8.5516063563773059E-008
  -5.1499999999999990E-002     2.5181407181662507E-007
  -5.0400000000000000E-002     3.5921289054385852E-007
  -4.9300000000000010E-002     3.6823354321313673E-007
  -4.8199999999999993E-002     2.5672204628790496E-007
  -4.7100000000000003E-002     3.2913703762460500E-008
  -4.6000000000000013E-002    -2.5179241447403911E-007
  -4.4899999999999995E-002    -5.0360381464997772E-007
  -4.3800000000000006E-002    -6.1227024161780719E-007
  -4.2699999999999988E-002    -4.9936494406210841E-007
  -4.1599999999999998E-002    -1.6700981575468177E-007
  -4.0500000000000008E-002     2.8370138238642539E-007
  -3.9399999999999991E-002     6.8363488026079722E-007
  -3.8300000000000001E-002     8.6682848632335663E-007
  -3.7200000000000011E-002     7.4628025004130905E-007
  -3.6099999999999993E-002     3.5301039247315202E-007
  -3.5000000000000003E-002    -1.8162076287353557E-007
  -3.3900000000000013E-002    -6.8609944037234527E-007
  -3.2799999999999996E-002    -1.0141202437807806E-006
  -3.1700000000000006E-002    -1.0818680493684951E-006
  -3.0599999999999988E-002    -8.7013489746823325E-007
  -2.9499999999999998E-002    -4.1019308127943077E-007
  -2.8400000000000009E-002     2.2308620373223675E-007
  -2.7299999999999991E-002     9.0649746198323555E-007
  -2.6200000000000001E-002     1.4716828218297451E-006
  -2.5100000000000011E-002     1.7401813465767191E-006
  -2.3999999999999994E-002     1.5912837625364773E-006
  -2.2900000000000004E-002     1.0300342410118901E-006
  -2.1800000000000014E-002     2.0795692989850068E-007
  -2.0699999999999996E-002    -6.2945599665908958E-007
  -1.9600000000000006E-002    -1.2475369430831051E-006
  -1.8499999999999989E-002    -1.5197462062133127E-006
  -1.7399999999999999E-002    -1.4581642062694300E-006
  -1.6300000000000009E-002    -1.1616151596172131E-006
  -1.5199999999999991E-002    -7.2379731363980682E-007
  -1.4100000000000001E-002    -1.7351166547996399E-007
  -1.3000000000000012E-002     5.0431657427907339E-007
  -1.1899999999999994E-002     1.2813527519028867E-006
  -1.0800000000000004E-002     2.0053519165230682E-006
  -9.6999999999999864E-003     2.4075163764791796E-006
  -8.5999999999999965E-003     2.2234810330701293E-006
  -7.5000000000000067E-003     1.3680818256034399E-006
  -6.3999999999999890E-003     4.8565642174480672E-008
  -5.2999999999999992E-003    -1.2785038734364207E-006
  -4.2000000000000093E-003    -2.1081582417536993E-006
  -3.0999999999999917E-003    -2.1393557290139142E-006
  -2.0000000000000018E-003    -1.4254695770432591E-006
  -9.0000000000001190E-004    -3.2456949838888249E-007
   2.0000000000000573E-004     7.2139135909310426E-007
   1.2999999999999956E-003     1.4344557257572887E-006
   2.4000000000000132E-003     1.8126276017937926E-006
   3.5000000000000031E-003     2.0391594262036961E-006
   4.5999999999999930E-003     2.2686019747197861E-006
   5.7000000000000106E-003     2.4593687157903332E-006
   6.8000000000000005E-003     2.3873965346865589E-006
   7.8999999999999904E-003     1.8368341443419922E-006
   9.0000000000000080E-003     8.2442556958994828E-007
   1.0099999999999998E-002    -3.2047628906184400E-007
   1.1199999999999988E-002    -1.0980237448166008E-006
   1.2300000000000005E-002    -1.1174785186085501E-006
   1.3399999999999995E-002    -3.2576139119555592E-007
   1.4500000000000013E-002     9.7016595645982306E-007
   1.5600000000000003E-002     2.2972853912506253E-006
   1.6699999999999993E-002     3.2869927508727415E-006
   1.7800000000000010E-002     3.8376310840249062E-006
   1.8900000000000000E-002     4.0744089346844703E-006
   1.9999999999999990E-002     4.1646758290880825E-006
   2.1100000000000008E-002     4.1484395296720322E-006
   2.2199999999999998E-002     3.9208330235851463E-006
   2.3300000000000015E-002     3.3785961477406090E-006
   2.4400000000000005E-002     2.6079312647198094E-006
   2.5499999999999995E-002     1.9502988379827002E-006
   2.6600000000000013E-002     1.8645550881046802E-006
   2.7700000000000002E-002     2.6522052394284401E-006
   2.8799999999999992E-002     4.2245173972332850E-006
   2.9900000000000010E-002     6.0821489569207188E-006
   3.1000000000000000E-002     7.5504890446609352E-006
   3.2099999999999990E-002     8.1469361248309724E-006
   3.3200000000000007E-002     7.8589555414509960E-006
   3.4299999999999997E-002     7.1567997110832948E-006
   3.5400000000000015E-002     6.7251917243993375E-006
   3.6500000000000005E-002     7.0754572334408294E-006
   3.7599999999999995E-002     8.2744581959559582E-006
   3.8700000000000012E-002     9.9473500085878186E-006
   3.9800000000000002E-002     1.1535478734003846E-005
   4.0899999999999992E-002     1.2629432603716850E-005
   4.2000000000000010E-002     1.3167686120141298E-005
   4.3099999999999999E-002     1.3400696843746118E-005
   4.4200000000000017E-002     1.3679834410140757E-005
   4.5300000000000007E-002     1.4235569324227981E-005
   4.6399999999999997E-002     1.5083228390722070E-005
   4.7500000000000014E-002     1.6086754840216599E-005
   4.8600000000000004E-002     1.7099375327234156E-005
   4.9699999999999994E-002     1.8074731997330673E-005
   5.0800000000000012E-002     1.9092180082225241E-005
   5.1900000000000002E-002     2.0310924810473807E-005
   5.2999999999999992E-002     2.1894822566537187E-005
   5.4099999999999981E-002     2.3940763639984652E-005
   5.5200000000000027E-002     2.6415256797918119E-005
   5.6300000000000017E-002     2.9112543415976688E-005
   5.7400000000000007E-002     3.1676245271228254E-005
   5.8499999999999996E-002     3.3711959986248985E-005
   5.9599999999999986E-002     3.4973021683981642E-005
   6.0700000000000032E-002     3.5531680623535067E-005
   6.1800000000000022E-002     3.5808421671390533E-005
   6.2900000000000011E-002     3.6412544432096183E-005
   6.4000000000000001E-002     3.7853427784284577E-005
   6.5099999999999991E-002     4.0290786273544654E-005
   6.6199999999999981E-002     4.3470088712638244E-005
   6.7300000000000026E-002     4.6889374061720446E-005
   6.8400000000000016E-002     5.0083603127859533E-005
   6.9500000000000006E-002     5.2856004913337529E-005
   7.0599999999999996E-002     5.5319229431916028E-005
   7.1699999999999986E-002     5.7744888181332499E-005
   7.2800000000000031E-002     6.0342608776409179E-005
   7.3900000000000021E-002     6.3124440202955157E-005
   7.5000000000000011E-002     6.5936270402744412E-005
   7.6100000000000001E-002     6.8634297349490225E-005
   7.7199999999999991E-002     7.1260474214795977E-005
   7.8299999999999981E-002     7.4081784987356514E-005
   7.9400000000000026E-002     7.7430071542039514E-005
   8.0500000000000016E-002     8.1433223385829479E-005
   8.1600000000000006E-002     8.5831547039560974E-005
   8.2699999999999996E-002     9.0019049821421504E-005
   8.3799999999999986E-002     9.3361762992572039E-005
   8.4900000000000031E-002     9.5603005320299417E-005
   8.6000000000000021E-002     9.7088348411489278E-005
   8.7100000000000011E-002     9.8624921520240605E-005
   8.8200000000000001E-002     1.0104571265401319E-004
   8.9299999999999990E-002     1.0472347639733925E-004
   9.0399999999999980E-002     1.0936785838566720E-004
   9.1500000000000026E-002     1.1422989337006584E-004
   9.2600000000000016E-002     1.1857003846671432E-004
   9.3700000000000006E-002     1.2205557140987366E-004
   9.4799999999999995E-002     1.2485064507927746E-004
   9.5899999999999985E-002     1.2737544602714479E-004
   9.7000000000000031E-002     1.2997754674870521E-004
   9.8100000000000021E-002     1.3275584205985069E-004
   9.9200000000000010E-002     1.3565395784098655E-004
  0.10030000000000000          1.3863315689377487E-004
  0.10139999999999999          1.4179915888234973E-004
  0.10249999999999998          1.4529449981637299E-004
  0.10360000000000003          1.4909174933563918E-004
  0.10470000000000002          1.5282614913303405E-004
  0.10580000000000001          1.5590462135151029E-004
  0.10690000000000000          1.5779890236444771E-004
  0.10799999999999998          1.5839628758840263E-004
  0.10910000000000003          1.5809410251677036E-004
  0.11020000000000002          1.5762353723403066E-004
  0.11130000000000001          1.5770527534186840E-004
  0.11240000000000000          1.5858330880291760E-004
  0.11349999999999999          1.5993074339348823E-004
  0.11460000000000004          1.6097057959996164E-004
  0.11570000000000003          1.6093366139102727E-004
  0.11680000000000001          1.5958079893607646E-004
  0.11790000000000000          1.5735423949081451E-004
  0.11899999999999999          1.5519537555519491E-004
  0.12009999999999998          1.5398743562400341E-004
  0.12120000000000003          1.5396952221635729E-004
  0.12230000000000002          1.5451728540938348E-004
  0.12340000000000001          1.5443073061760515E-004
  0.12450000000000000          1.5259452629834414E-004
  0.12559999999999999          1.4864045078866184E-004
  0.12670000000000003          1.4304014621302485E-004
  0.12780000000000002          1.3687454338651150E-004
  0.12890000000000001          1.3111547741573304E-004
  0.13000000000000000          1.2616321328096092E-004
  0.13109999999999999          1.2171511480119079E-004
  0.13219999999999998          1.1708348029060289E-004
  0.13330000000000003          1.1157204426126555E-004
  0.13440000000000002          1.0486708924872801E-004
  0.13550000000000001          9.7017866210080683E-005
  0.13660000000000000          8.8397086074110121E-005
  0.13769999999999999          7.9520053986925632E-005
  0.13880000000000003          7.0779329689685255E-005
  0.13990000000000002          6.2379091104958206E-005
  0.14100000000000001          5.4205898777581751E-005
  0.14210000000000000          4.5829990995116532E-005
  0.14319999999999999          3.6660781915998086E-005
  0.14429999999999998          2.6329793399781920E-005
  0.14540000000000003          1.4878429283271544E-005
  0.14650000000000002          2.7192841116630007E-006
  0.14760000000000001         -9.4847082436899655E-006
  0.14870000000000000         -2.1202404241194017E-005
  0.14979999999999999         -3.2251700758934021E-005
  0.15090000000000003         -4.2804564145626500E-005
  0.15200000000000002         -5.3279876738088205E-005
  0.15310000000000001         -6.4166066295001656E-005
  0.15420000000000000         -7.5880547228734940E-005
  0.15529999999999999         -8.8709515694063157E-005
  0.15639999999999998         -1.0256330278934911E-004
  0.15750000000000003         -1.1709168757079169E-004
  0.15860000000000002         -1.3164784468244761E-004
  0.15970000000000001         -1.4546774036716670E-004
  0.16080000000000000         -1.5810262993909419E-004
  0.16189999999999999         -1.6945104289334267E-004
  0.16300000000000003         -1.7994175141211599E-004
  0.16410000000000002         -1.9017429440282285E-004
  0.16520000000000001         -2.0060696988366544E-004
  0.16630000000000000         -2.1134145208634436E-004
  0.16739999999999999         -2.2233081108424813E-004
  0.16850000000000004         -2.3333694844041020E-004
  0.16960000000000003         -2.4428559117950499E-004
  0.17070000000000002         -2.5496532907709479E-004
  0.17180000000000001         -2.6511907344684005E-004
  0.17290000000000000         -2.7441466227173805E-004
  0.17399999999999999         -2.8248154558241367E-004
  0.17510000000000003         -2.8919772012159228E-004
  0.17620000000000002         -2.9466120759025216E-004
  0.17730000000000001         -2.9916496714577079E-004
  0.17840000000000000         -3.0305777909234166E-004
  0.17949999999999999         -3.0649165273644030E-004
  0.18060000000000004         -3.0958408024162054E-004
  0.18170000000000003         -3.1246073194779456E-004
  0.18280000000000002         -3.1508490792475641E-004
  0.18390000000000001         -3.1718035461381078E-004
  0.18500000000000000         -3.1811129883863032E-004
  0.18609999999999999         -3.1720381230115891E-004
  0.18720000000000003         -3.1394034158438444E-004
  0.18830000000000002         -3.0834870995022357E-004
  0.18940000000000001         -3.0109906219877303E-004
  0.19050000000000000         -2.9304131749086082E-004
  0.19159999999999999         -2.8476334409788251E-004
  0.19270000000000004         -2.7631621924228966E-004
  0.19380000000000003         -2.6709251687861979E-004
  0.19490000000000002         -2.5658213417045772E-004
  0.19600000000000001         -2.4419787223450840E-004
  0.19710000000000000         -2.2983131930232048E-004
  0.19819999999999999         -2.1358039521146566E-004
  0.19930000000000003         -1.9561972294468433E-004
  0.20040000000000002         -1.7628268687985837E-004
  0.20150000000000001         -1.5605577209498733E-004
  0.20260000000000000         -1.3545156980399042E-004
  0.20369999999999999         -1.1456519860075787E-004
  0.20480000000000004         -9.2870533990208060E-005
  0.20590000000000003         -6.9475674536079168E-005
  0.20700000000000002         -4.3274223571643233E-005
  0.20810000000000001         -1.4086755072639789E-005
  0.20920000000000000          1.7325166481896304E-005
  0.21029999999999999          4.9524849600857124E-005
  0.21140000000000003          8.1527003203518689E-005
  0.21250000000000002          1.1286797962384298E-004
  0.21360000000000001          1.4436763012781739E-004
  0.21470000000000000          1.7707349616102874E-004
  0.21579999999999999          2.1177351300138980E-004
  0.21690000000000004          2.4868964101187885E-004
  0.21800000000000003          2.8754342929460108E-004
  0.21910000000000002          3.2781044137664139E-004
  0.22020000000000001          3.6903543514199555E-004
  0.22130000000000000          4.1067914571613073E-004
  0.22239999999999999          4.5204238267615438E-004
  0.22350000000000003          4.9291260074824095E-004
  0.22460000000000002          5.3338939324021339E-004
  0.22570000000000001          5.7413504691794515E-004
  0.22680000000000000          6.1597477179020643E-004
  0.22789999999999999          6.5922574140131474E-004
  0.22900000000000004          7.0337898796424270E-004
  0.23010000000000003          7.4758328264579177E-004
  0.23120000000000002          7.9090317012742162E-004
  0.23230000000000001          8.3354103844612837E-004
  0.23340000000000000          8.7598449317738414E-004
  0.23450000000000004          9.1866357252001762E-004
  0.23560000000000003          9.6163613488897681E-004
  0.23670000000000002          1.0043288348242640E-003
  0.23780000000000001          1.0462638456374407E-003
  0.23890000000000000          1.0873032733798027E-003
  0.23999999999999999          1.1272245319560170E-003
  0.24110000000000004          1.1658010771498084E-003
  0.24220000000000003          1.2025698088109493E-003
  0.24330000000000002          1.2372451601549983E-003
  0.24440000000000001          1.2702470412477851E-003
  0.24550000000000000          1.3025392545387149E-003
  0.24660000000000004          1.3346733758226037E-003
  0.24770000000000003          1.3668939936906099E-003
  0.24880000000000002          1.3981499942019582E-003
  0.24990000000000001          1.4263797784224153E-003
  0.25100000000000000          1.4506829902529716E-003
  0.25209999999999999          1.4708343660458922E-003
  0.25320000000000004          1.4878844376653433E-003
  0.25430000000000003          1.5031581278890371E-003
  0.25540000000000002          1.5176155138760805E-003
  0.25650000000000001          1.5309776645153761E-003
  0.25760000000000000          1.5427035978063941E-003
  0.25870000000000004          1.5514985425397754E-003
  0.25980000000000003          1.5565290814265609E-003
  0.26090000000000002          1.5576923033222556E-003
  0.26200000000000001          1.5554929850623012E-003
  0.26310000000000000          1.5504698967561126E-003
  0.26419999999999999          1.5427623875439167E-003
  0.26530000000000004          1.5322514809668064E-003
  0.26640000000000003          1.5186562668532133E-003
  0.26750000000000002          1.5015777898952365E-003
  0.26860000000000001          1.4807396801188588E-003
  0.26970000000000000          1.4564301818609238E-003
  0.27080000000000004          1.4288366073742509E-003
  0.27190000000000003          1.3979440554976463E-003
  0.27300000000000002          1.3639308745041490E-003
  0.27410000000000001          1.3268821639940143E-003
  0.27520000000000000          1.2868418125435710E-003
  0.27629999999999999          1.2442365987226367E-003
  0.27740000000000004          1.1990960920229554E-003
  0.27850000000000003          1.1508545139804482E-003
  0.27960000000000002          1.0994820622727275E-003
  0.28070000000000001          1.0442469501867890E-003
  0.28179999999999999          9.8529679235070944E-004
  0.28290000000000004          9.2284218408167362E-004
  0.28400000000000003          8.5714203305542469E-004
  0.28510000000000002          7.8942283289507031E-004
  0.28620000000000001          7.2012579767033458E-004
  0.28730000000000000          6.4998818561434746E-004
  0.28840000000000005          5.7897489750757813E-004
  0.28950000000000004          5.0672516226768494E-004
  0.29060000000000002          4.3211315642111003E-004
  0.29170000000000001          3.5388491232879460E-004
  0.29280000000000000          2.7134444098919630E-004
  0.29389999999999999          1.8601388728711754E-004
  0.29500000000000004          9.9878459877800196E-005
  0.29610000000000003          1.4892122635501437E-005
  0.29720000000000002         -6.8293964432086796E-005
  0.29830000000000001         -1.5071335656102747E-004
  0.29940000000000000         -2.3409372079186141E-004
  0.30050000000000004         -3.1970322015695274E-004
  0.30160000000000003         -4.0689684101380408E-004
  0.30270000000000002         -4.9417815171182156E-004
  0.30380000000000001         -5.7978881523013115E-004
  0.30490000000000000         -6.6396885085850954E-004
  0.30599999999999999         -7.4757967377081513E-004
  0.30709999999999998         -8.3087396342307329E-004
  0.30819999999999997         -9.1368751600384712E-004
  0.30930000000000007         -9.9465087987482548E-004
  0.31040000000000006         -1.0735278483480215E-003
  0.31150000000000005         -1.1501645203679800E-003
  0.31260000000000004         -1.2252493761479855E-003
  0.31370000000000003         -1.2989316601306200E-003
  0.31480000000000002         -1.3704545563086867E-003
  0.31590000000000001         -1.4394788304343820E-003
  0.31700000000000000         -1.5053376555442810E-003
  0.31809999999999999         -1.5679528005421162E-003
  0.31919999999999998         -1.6278675757348537E-003
  0.32029999999999997         -1.6849646344780922E-003
  0.32140000000000007         -1.7391392029821873E-003
  0.32250000000000006         -1.7899831291288137E-003
  0.32360000000000005         -1.8380208639428020E-003
  0.32470000000000004         -1.8834400689229369E-003
  0.32580000000000003         -1.9259687978774309E-003
  0.32690000000000002         -1.9648121669888496E-003
  0.32800000000000001         -1.9986296538263559E-003
  0.32910000000000000         -2.0264673512428999E-003
  0.33019999999999999         -2.0489518065005541E-003
  0.33129999999999998         -2.0681628957390785E-003
  0.33239999999999997         -2.0856976043432951E-003
  0.33350000000000007         -2.1018818952143192E-003
  0.33460000000000006         -2.1156508009880781E-003
  0.33570000000000005         -2.1252247970551252E-003
  0.33680000000000004         -2.1298320498317480E-003
  0.33790000000000003         -2.1293205209076405E-003
  0.33900000000000002         -2.1242673974484205E-003
  0.34010000000000001         -2.1154894493520260E-003
  0.34120000000000000         -2.1033741068094969E-003
  0.34229999999999999         -2.0884163677692413E-003
  0.34339999999999998         -2.0712742116302252E-003
  0.34449999999999997         -2.0517285447567701E-003
  0.34560000000000007         -2.0295507274568081E-003
  0.34670000000000006         -2.0032860338687897E-003
  0.34780000000000005         -1.9722923170775175E-003
  0.34890000000000004         -1.9367319764569402E-003
