 -0.20000000000000001          0.0000000000000000
 -0.19890000000000002          0.0000000000000000
 -0.19780000000000000          0.0000000000000000
 -0.19670000000000001          2.1735490113343947E-015
 -0.19560000000000002          1.2681523176407208E-014
 -0.19450000000000001          3.3178924288990858E-014
 -0.19340000000000002          4.4655011161237948E-014
 -0.19230000000000000          1.0688018429550004E-014
 -0.19120000000000001         -7.6849578133433849E-014
 -0.19010000000000002         -1.4188392756693535E-013
 -0.18900000000000000         -4.8129462383843941E-014
 -0.18790000000000001          2.4450816263170416E-013
 -0.18680000000000002          5.0256836452849951E-013
 -0.18570000000000000          2.8116595965528568E-013
 -0.18460000000000001         -6.2389920703689872E-013
 -0.18350000000000000         -1.6217167582779912E-012
 -0.18240000000000001         -1.3727839394753194E-012
 -0.18130000000000002          1.0761390693489470E-012
 -0.18020000000000000          4.6480319593200647E-012
 -0.17910000000000001          5.8139096835441162E-012
 -0.17800000000000002          9.1742097859531802E-013
 -0.17690000000000000         -9.5121306664669447E-012
 -0.17580000000000001         -1.8159780970639083E-011
 -0.17470000000000002         -1.4215901025793620E-011
 -0.17360000000000000          7.3260147948062126E-012
 -0.17250000000000001          3.6810068881898417E-011
 -0.17140000000000000          5.1030450698430485E-011
 -0.17030000000000001          2.8361549220257132E-011
 -0.16920000000000002         -3.0299315140203120E-011
 -0.16810000000000000         -9.2256563499759636E-011
 -0.16700000000000001         -1.0867029498484726E-010
 -0.16589999999999999         -4.9986830646941982E-011
 -0.16480000000000000          6.3555369300694053E-011
 -0.16370000000000001          1.6375280298408512E-010
 -0.16260000000000002          1.7513365757615418E-010
 -0.16150000000000000          7.0100703020159472E-011
 -0.16040000000000001         -1.0184318666173198E-010
 -0.15930000000000000         -2.3642093838205369E-010
 -0.15820000000000001         -2.3768012558100793E-010
 -0.15710000000000002         -8.0814015201990941E-011
 -0.15600000000000000          1.6693610382922941E-010
 -0.15490000000000001          3.8039110750176519E-010
 -0.15379999999999999          4.4380099595286993E-010
 -0.15270000000000000          3.1264574262834799E-010
 -0.15160000000000001          3.7848012918173524E-011
 -0.15050000000000002         -2.6028992849980170E-010
 -0.14940000000000001         -4.6148515564503612E-010
 -0.14830000000000002         -5.3310761360947367E-010
 -0.14720000000000000         -5.9290095055786196E-010
 -0.14610000000000001         -8.9619978105304199E-010
 -0.14500000000000002         -1.7208945379820761E-009
 -0.14390000000000000         -3.1844187287077830E-009
 -0.14280000000000001         -5.0931681094823489E-009
 -0.14169999999999999         -6.9384968881536224E-009
 -0.14060000000000000         -8.0815896197350412E-009
 -0.13950000000000001         -8.0470190511050532E-009
 -0.13840000000000002         -6.7613430410062847E-009
 -0.13730000000000001         -4.6011852106175866E-009
 -0.13619999999999999         -2.2400379329212683E-009
 -0.13510000000000000         -4.0604333784166613E-010
 -0.13400000000000001          3.1363842079024096E-010
 -0.13290000000000002         -4.3092365786812081E-010
 -0.13180000000000000         -2.7110769185156869E-009
 -0.13070000000000001         -6.2762630648194317E-009
 -0.12959999999999999         -1.0529571881079391E-008
 -0.12850000000000000         -1.4613229737392430E-008
 -0.12740000000000001         -1.7658264184206018E-008
 -0.12630000000000002         -1.9118875371759714E-008
 -0.12520000000000001         -1.9004486873086535E-008
 -0.12410000000000000         -1.7859042245049750E-008
 -0.12300000000000001         -1.6504953848084369E-008
 -0.12190000000000001         -1.5724957336260559E-008
 -0.12080000000000000         -1.6061230567743223E-008
 -0.11970000000000000         -1.7773977845081390E-008
 -0.11860000000000001         -2.0867471306473817E-008
 -0.11750000000000001         -2.5094912814438430E-008
 -0.11640000000000000         -2.9973342918765411E-008
 -0.11530000000000000         -3.4918279823159537E-008
 -0.11420000000000001         -3.9523378347894322E-008
 -0.11310000000000001         -4.3826258178114585E-008
 -0.11200000000000000         -4.8320735857032560E-008
 -0.11090000000000001         -5.3630039076324465E-008
 -0.10980000000000001         -6.0043809924081870E-008
 -0.10870000000000000         -6.7277838411428093E-008
 -0.10760000000000000         -7.4665067018031550E-008
 -0.10650000000000001         -8.1637445248361473E-008
 -0.10540000000000001         -8.8120522434564919E-008
 -0.10430000000000000         -9.4555637986104557E-008
 -0.10320000000000000         -1.0159797625419742E-007
 -0.10210000000000001         -1.0979361775298457E-007
 -0.10100000000000001         -1.1948272060635645E-007
  -9.9900000000000003E-002    -1.3089420747292024E-007
  -9.8799999999999999E-002    -1.4420083971344866E-007
  -9.7700000000000009E-002    -1.5940200626118894E-007
  -9.6600000000000005E-002    -1.7617591652197007E-007
  -9.5500000000000002E-002    -1.9396813399907842E-007
  -9.4400000000000012E-002    -2.1237984526578657E-007
  -9.3300000000000008E-002    -2.3157134876328200E-007
  -9.2200000000000004E-002    -2.5228251843145699E-007
  -9.1100000000000000E-002    -2.7536725610843860E-007
  -9.0000000000000011E-002    -3.0119696248220862E-007
  -8.8900000000000007E-002    -3.2945624184321787E-007
  -8.7800000000000003E-002    -3.5952757571067195E-007
  -8.6699999999999999E-002    -3.9112381955419551E-007
  -8.5600000000000009E-002    -4.2459330984456756E-007
  -8.4500000000000006E-002    -4.6063576064625522E-007
  -8.3400000000000002E-002    -4.9973488103205455E-007
  -8.2299999999999998E-002    -5.4188302556212875E-007
  -8.1200000000000008E-002    -5.8687118098532665E-007
  -8.0100000000000005E-002    -6.3484156953563797E-007
  -7.9000000000000001E-002    -6.8652491336251842E-007
  -7.7899999999999997E-002    -7.4289408757977071E-007
  -7.6800000000000007E-002    -8.0455396300749271E-007
  -7.5700000000000003E-002    -8.7146281657624058E-007
  -7.4600000000000000E-002    -9.4326003363676136E-007
  -7.3500000000000010E-002    -1.0198738209510338E-006
  -7.2399999999999992E-002    -1.1018038321708445E-006
  -7.1300000000000002E-002    -1.1897999456778052E-006
  -7.0200000000000012E-002    -1.2842670003010426E-006
  -6.9099999999999995E-002    -1.3850022924088989E-006
  -6.8000000000000005E-002    -1.4915453903086018E-006
  -6.6900000000000015E-002    -1.6038181911426364E-006
  -6.5799999999999997E-002    -1.7224620023625903E-006
  -6.4700000000000008E-002    -1.8485905002307845E-006
  -6.3599999999999990E-002    -1.9832466477964772E-006
  -6.2500000000000000E-002    -2.1270946035656380E-006
  -6.1400000000000010E-002    -2.2805772914580302E-006
  -6.0299999999999992E-002    -2.4442570065730251E-006
  -5.9200000000000003E-002    -2.6188865831500152E-006
  -5.8100000000000013E-002    -2.8050931177858729E-006
  -5.6999999999999995E-002    -3.0030257676116889E-006
  -5.5900000000000005E-002    -3.2124112294695806E-006
  -5.4800000000000015E-002    -3.4330626021983335E-006
  -5.3699999999999998E-002    -3.6654066661867546E-006
  -5.2600000000000008E-002    -3.9105448195186909E-006
  -5.1499999999999990E-002    -4.1697990127431694E-006
  -5.0400000000000000E-002    -4.4441703721531667E-006
  -4.9300000000000010E-002    -4.7341895879071672E-006
  -4.8199999999999993E-002    -5.0401990847603884E-006
  -4.7100000000000003E-002    -5.3626804401574191E-006
  -4.6000000000000013E-002    -5.7022516557481140E-006
  -4.4899999999999995E-002    -6.0593724811042193E-006
  -4.3800000000000006E-002    -6.4341638790210709E-006
  -4.2699999999999988E-002    -6.8266504058556166E-006
  -4.1599999999999998E-002    -7.2372586146229878E-006
  -4.0500000000000008E-002    -7.6670839916914701E-006
  -3.9399999999999991E-002    -8.1176276580663398E-006
  -3.8300000000000001E-002    -8.5902083810651675E-006
  -3.7200000000000011E-002    -9.0855965027003549E-006
  -3.6099999999999993E-002    -9.6041712822625414E-006
  -3.5000000000000003E-002    -1.0146389286092017E-005
  -3.3900000000000013E-002    -1.0713030860642903E-005
  -3.2799999999999996E-002    -1.1304942745482549E-005
  -3.1700000000000006E-002    -1.1922549674636684E-005
  -3.0599999999999988E-002    -1.2565678844111972E-005
  -2.9499999999999998E-002    -1.3233946447144262E-005
  -2.8400000000000009E-002    -1.3927377949585207E-005
  -2.7299999999999991E-002    -1.4646702766185626E-005
  -2.6200000000000001E-002    -1.5393063222290948E-005
  -2.5100000000000011E-002    -1.6167459762073122E-005
  -2.3999999999999994E-002    -1.6970458091236651E-005
  -2.2900000000000004E-002    -1.7802367437980138E-005
  -2.1800000000000014E-002    -1.8663587979972363E-005
  -2.0699999999999996E-002    -1.9554681784939021E-005
  -1.9600000000000006E-002    -2.0476061763474718E-005
  -1.8499999999999989E-002    -2.1427644242066890E-005
  -1.7399999999999999E-002    -2.2408892618841492E-005
  -1.6300000000000009E-002    -2.3419292119797319E-005
  -1.5199999999999991E-002    -2.4458811822114512E-005
  -1.4100000000000001E-002    -2.5527922844048589E-005
  -1.3000000000000012E-002    -2.6627174520399421E-005
  -1.1899999999999994E-002    -2.7756743293139152E-005
  -1.0800000000000004E-002    -2.8916361770825461E-005
  -9.6999999999999864E-003    -3.0105598852969706E-005
  -8.5999999999999965E-003    -3.1324107112595811E-005
  -7.5000000000000067E-003    -3.2571533665759489E-005
  -6.3999999999999890E-003    -3.3847216400317848E-005
  -5.2999999999999992E-003    -3.5150071198586375E-005
  -4.2000000000000093E-003    -3.6478908441495150E-005
  -3.0999999999999917E-003    -3.7832887755939737E-005
  -2.0000000000000018E-003    -3.9211652619997039E-005
  -9.0000000000001190E-004    -4.0614970203023404E-005
   2.0000000000000573E-004    -4.2042156565003097E-005
   1.2999999999999956E-003    -4.3491869291756302E-005
   2.4000000000000132E-003    -4.4962496758671477E-005
   3.5000000000000031E-003    -4.6452692913589999E-005
   4.5999999999999930E-003    -4.7961559175746515E-005
   5.7000000000000106E-003    -4.9488222430227324E-005
   6.8000000000000005E-003    -5.1031296607106924E-005
   7.8999999999999904E-003    -5.2588795369956642E-005
   9.0000000000000080E-003    -5.4158583225216717E-005
   1.0099999999999998E-002    -5.5738939408911392E-005
   1.1199999999999988E-002    -5.7328601542394608E-005
   1.2300000000000005E-002    -5.8926201745634899E-005
   1.3399999999999995E-002    -6.0529644542839378E-005
   1.4500000000000013E-002    -6.2136103224474937E-005
   1.5600000000000003E-002    -6.3742620113771409E-005
   1.6699999999999993E-002    -6.5346837800461799E-005
   1.7800000000000010E-002    -6.6947191953659058E-005
   1.8900000000000000E-002    -6.8542336521204561E-005
   1.9999999999999990E-002    -7.0130401581991464E-005
   2.1100000000000008E-002    -7.1708804171066731E-005
   2.2199999999999998E-002    -7.3274582973681390E-005
   2.3300000000000015E-002    -7.4825031333602965E-005
   2.4400000000000005E-002    -7.6357951911631972E-005
   2.5499999999999995E-002    -7.7871249231975526E-005
   2.6600000000000013E-002    -7.9362464020960033E-005
   2.7700000000000002E-002    -8.0828656791709363E-005
   2.8799999999999992E-002    -8.2266764366067946E-005
   2.9900000000000010E-002    -8.3674043708015233E-005
   3.1000000000000000E-002    -8.5048210166860372E-005
   3.2099999999999990E-002    -8.6387204646598548E-005
   3.3200000000000007E-002    -8.7688829808030277E-005
   3.4299999999999997E-002    -8.8950560893863440E-005
   3.5400000000000015E-002    -9.0169683971907943E-005
   3.6500000000000005E-002    -9.1343528765719384E-005
   3.7599999999999995E-002    -9.2469505034387112E-005
   3.8700000000000012E-002    -9.3545066192746162E-005
   3.9800000000000002E-002    -9.4567716587334871E-005
   4.0899999999999992E-002    -9.5535127911716700E-005
   4.2000000000000010E-002    -9.6445211966056377E-005
   4.3099999999999999E-002    -9.7296040621586144E-005
   4.4200000000000017E-002    -9.8085714853368700E-005
   4.5300000000000007E-002    -9.8812306532636285E-005
   4.6399999999999997E-002    -9.9473982118070126E-005
   4.7500000000000014E-002    -1.0006934462580830E-004
   4.8600000000000004E-002    -1.0059738997370005E-004
   4.9699999999999994E-002    -1.0105701949214563E-004
   5.0800000000000012E-002    -1.0144673433387652E-004
   5.1900000000000002E-002    -1.0176450450671837E-004
   5.2999999999999992E-002    -1.0200820543104783E-004
   5.4099999999999981E-002    -1.0217649105470628E-004
   5.5200000000000027E-002    -1.0226884478470311E-004
   5.6300000000000017E-002    -1.0228509199805558E-004
   5.7400000000000007E-002    -1.0222494893241674E-004
   5.8499999999999996E-002    -1.0208765888819471E-004
   5.9599999999999986E-002    -1.0187243606196716E-004
   6.0700000000000032E-002    -1.0157905489904806E-004
   6.1800000000000022E-002    -1.0120795195689425E-004
   6.2900000000000011E-002    -1.0075992759084329E-004
   6.4000000000000001E-002    -1.0023548384197056E-004
   6.5099999999999991E-002    -9.9634591606445611E-005
   6.6199999999999981E-002    -9.8957105365116149E-005
   6.7300000000000026E-002    -9.8203468951396644E-005
   6.8400000000000016E-002    -9.7374912002123892E-005
   6.9500000000000006E-002    -9.6473057055845857E-005
   7.0599999999999996E-002    -9.5499366580042988E-005
   7.1699999999999986E-002    -9.4454859208781272E-005
   7.2800000000000031E-002    -9.3340495368465781E-005
   7.3900000000000021E-002    -9.2157679318916053E-005
   7.5000000000000011E-002    -9.0908331912942231E-005
   7.6100000000000001E-002    -8.9594803284853697E-005
   7.7199999999999991E-002    -8.8219290773849934E-005
   7.8299999999999981E-002    -8.6783642473164946E-005
   7.9400000000000026E-002    -8.5289757407736033E-005
   8.0500000000000016E-002    -8.3739723777398467E-005
   8.1600000000000006E-002    -8.2135971751995385E-005
   8.2699999999999996E-002    -8.0481120676267892E-005
   8.3799999999999986E-002    -7.8777469752822071E-005
   8.4900000000000031E-002    -7.7027281804475933E-005
   8.6000000000000021E-002    -7.5233198003843427E-005
   8.7100000000000011E-002    -7.3398347012698650E-005
   8.8200000000000001E-002    -7.1526243118569255E-005
   8.9299999999999990E-002    -6.9620218710042536E-005
   9.0399999999999980E-002    -6.7683075030799955E-005
   9.1500000000000026E-002    -6.5717402321752161E-005
   9.2600000000000016E-002    -6.3726183725520968E-005
   9.3700000000000006E-002    -6.1712722526863217E-005
   9.4799999999999995E-002    -5.9680285630747676E-005
   9.5899999999999985E-002    -5.7631648815004155E-005
   9.7000000000000031E-002    -5.5568987590959296E-005
   9.8100000000000021E-002    -5.3494521125685424E-005
   9.9200000000000010E-002    -5.1411225285846740E-005
  0.10030000000000000         -4.9322872655466199E-005
  0.10139999999999999         -4.7233344957930967E-005
  0.10249999999999998         -4.5145956391934305E-005
  0.10360000000000003         -4.3063395423814654E-005
  0.10470000000000002         -4.0987913962453604E-005
  0.10580000000000001         -3.8921913073863834E-005
  0.10690000000000000         -3.6868088500341401E-005
  0.10799999999999998         -3.4829223295673728E-005
  0.10910000000000003         -3.2807962270453572E-005
  0.11020000000000002         -3.0806491849943995E-005
  0.11130000000000001         -2.8826843845308758E-005
  0.11240000000000000         -2.6871237423620187E-005
  0.11349999999999999         -2.4942331947386265E-005
  0.11460000000000004         -2.3042835891828872E-005
  0.11570000000000003         -2.1174966605030932E-005
  0.11680000000000001         -1.9340581275173463E-005
  0.11790000000000000         -1.7541195120429620E-005
  0.11899999999999999         -1.5778150554979220E-005
  0.12009999999999998         -1.4053015547688119E-005
  0.12120000000000003         -1.2367388990242034E-005
  0.12230000000000002         -1.0722403203544673E-005
  0.12340000000000001         -9.1189731392660178E-006
  0.12450000000000000         -7.5581160672300030E-006
  0.12559999999999999         -6.0409315665310714E-006
  0.12670000000000003         -4.5686019802815281E-006
  0.12780000000000002         -3.1420079267263645E-006
  0.12890000000000001         -1.7618053789192345E-006
  0.13000000000000000         -4.2854952653215150E-007
  0.13109999999999999          8.5741658040205948E-007
  0.13219999999999998          2.0957440938218497E-006
  0.13330000000000003          3.2860373266885290E-006
  0.13440000000000002          4.4280718611844350E-006
  0.13550000000000001          5.5216746659425553E-006
  0.13660000000000000          6.5667086346365977E-006
  0.13769999999999999          7.5631328400049824E-006
  0.13880000000000003          8.5110477812122554E-006
  0.13990000000000002          9.4109327619662508E-006
  0.14100000000000001          1.0263758667861111E-005
  0.14210000000000000          1.1070656000811141E-005
  0.14319999999999999          1.1832447853521444E-005
  0.14429999999999998          1.2549598068289924E-005
  0.14540000000000003          1.3222314919403289E-005
  0.14650000000000002          1.3850868526787963E-005
  0.14760000000000001          1.4435864613915328E-005
  0.14870000000000000          1.4978161743783858E-005
  0.14979999999999999          1.5478599380003288E-005
  0.15090000000000003          1.5937974239932373E-005
  0.15200000000000002          1.6357351341866888E-005
  0.15310000000000001          1.6738324120524339E-005
  0.15420000000000000          1.7082898921216838E-005
  0.15529999999999999          1.7392892914358526E-005
  0.15639999999999998          1.7669401131570339E-005
  0.15750000000000003          1.7912703697220422E-005
  0.15860000000000002          1.8122622350347228E-005
  0.15970000000000001          1.8299435396329500E-005
  0.16080000000000000          1.8444399756845087E-005
  0.16189999999999999          1.8559221643954515E-005
  0.16300000000000003          1.8645527234184556E-005
  0.16410000000000002          1.8704822650761344E-005
  0.16520000000000001          1.8738594008027576E-005
  0.16630000000000000          1.8748511138255708E-005
  0.16739999999999999          1.8736436686594971E-005
  0.16850000000000004          1.8704236936173402E-005
  0.16960000000000003          1.8653232473297976E-005
  0.17070000000000002          1.8583883502287790E-005
  0.17180000000000001          1.8496175471227616E-005
  0.17290000000000000          1.8390266632195562E-005
  0.17399999999999999          1.8266726328874938E-005
  0.17510000000000003          1.8126549548469484E-005
  0.17620000000000002          1.7971142369788140E-005
  0.17730000000000001          1.7802016373025253E-005
  0.17840000000000000          1.7620834114495665E-005
  0.17949999999999999          1.7429274521418847E-005
  0.18060000000000004          1.7228818251169287E-005
  0.18170000000000003          1.7020511222654022E-005
  0.18280000000000002          1.6804737242637202E-005
  0.18390000000000001          1.6581618183408864E-005
  0.18500000000000000          1.6351268641301431E-005
  0.18609999999999999          1.6113999663502909E-005
  0.18720000000000003          1.5870466086198576E-005
  0.18830000000000002          1.5621537386323325E-005
  0.18940000000000001          1.5368283129646443E-005
  0.19050000000000000          1.5111961147340480E-005
  0.19159999999999999          1.4853821085125674E-005
  0.19270000000000004          1.4594726962968707E-005
  0.19380000000000003          1.4335293599287979E-005
  0.19490000000000002          1.4075868421059567E-005
  0.19600000000000001          1.3816578757541720E-005
  0.19710000000000000          1.3557515558204614E-005
  0.19819999999999999          1.3298772501002531E-005
  0.19930000000000003          1.3040465091762599E-005
  0.20040000000000002          1.2782687917933799E-005
  0.20150000000000001          1.2525685633590911E-005
  0.20260000000000000          1.2269842045498081E-005
  0.20369999999999999          1.2015685570077039E-005
  0.20480000000000004          1.1763941074605100E-005
  0.20590000000000003          1.1515313417476136E-005
  0.20700000000000002          1.1270246432104614E-005
  0.20810000000000001          1.1028950211766642E-005
  0.20920000000000000          1.0791464774229098E-005
  0.21029999999999999          1.0557807399891317E-005
  0.21140000000000003          1.0328127245884389E-005
  0.21250000000000002          1.0102569831360597E-005
  0.21360000000000001          9.8809914561570622E-006
  0.21470000000000000          9.6630874395486899E-006
  0.21579999999999999          9.4486567832063884E-006
  0.21690000000000004          9.2375794338295236E-006
  0.21800000000000003          9.0299754447187297E-006
  0.21910000000000002          8.8262304416275583E-006
  0.22020000000000001          8.6268664745148271E-006
  0.22130000000000000          8.4324074123287573E-006
  0.22239999999999999          8.2431461123633198E-006
  0.22350000000000003          8.0589788922225125E-006
  0.22460000000000002          7.8793991633574478E-006
  0.22570000000000001          7.7035992944729514E-006
  0.22680000000000000          7.5309317253413610E-006
  0.22789999999999999          7.3613014137663413E-006
  0.22900000000000004          7.1949234552448615E-006
  0.23010000000000003          7.0321239036275074E-006
  0.23120000000000002          6.8731019382539671E-006
  0.23230000000000001          6.7178712015447672E-006
  0.23340000000000000          6.5664717112667859E-006
  0.23450000000000004          6.4191108322120272E-006
  0.23560000000000003          6.2760896071267780E-006
  0.23670000000000002          6.1375662880891468E-006
  0.23780000000000001          6.0032498367945664E-006
  0.23890000000000000          5.8723403526528273E-006
  0.23999999999999999          5.7439656302449293E-006
  0.24110000000000004          5.6176377256633714E-006
  0.24220000000000003          5.4933493629505392E-006
  0.24330000000000002          5.3713129091192968E-006
  0.24440000000000001          5.2516734285745770E-006
  0.24550000000000000          5.1344495659577660E-006
  0.24660000000000004          5.0196235861221794E-006
  0.24770000000000003          4.9074396883952431E-006
  0.24880000000000002          4.7981889110815246E-006
  0.24990000000000001          4.6918307816667948E-006
  0.25100000000000000          4.5878819037170615E-006
  0.25209999999999999          4.4856819840788376E-006
  0.25320000000000004          4.3847985580214299E-006
  0.25430000000000003          4.2850988393183798E-006
  0.25540000000000002          4.1867469917633571E-006
  0.25650000000000001          4.0899249142967165E-006
  0.25760000000000000          3.9946662582224235E-006
  0.25870000000000004          3.9009937609080225E-006
  0.25980000000000003          3.8088842302386183E-006
  0.26090000000000002          3.7181762309046462E-006
  0.26200000000000001          3.6286862723500235E-006
  0.26310000000000000          3.5401596960582538E-006
  0.26419999999999999          3.4521810903243022E-006
  0.26530000000000004          3.3646376778051490E-006
  0.26640000000000003          3.2777345495560439E-006
  0.26750000000000002          3.1915783438307699E-006
  0.26860000000000001          3.1060844776220620E-006
  0.26970000000000000          3.0208336738724029E-006
  0.27080000000000004          2.9351310786296381E-006
  0.27190000000000003          2.8484757876867661E-006
  0.27300000000000002          2.7607745778368553E-006
  0.27410000000000001          2.6722148049884709E-006
  0.27520000000000000          2.5830843242147239E-006
  0.27629999999999999          2.4935873170761624E-006
  0.27740000000000004          2.4039820800680900E-006
  0.27850000000000003          2.3146833427745150E-006
  0.27960000000000002          2.2261397134570871E-006
  0.28070000000000001          2.1385476429713890E-006
  0.28179999999999999          2.0514798961812630E-006
  0.28290000000000004          1.9638493995444151E-006
  0.28400000000000003          1.8745622583082877E-006
  0.28510000000000002          1.7831901004683459E-006
  0.28620000000000001          1.6898995909286896E-006
  0.28730000000000000          1.5948417058098130E-006
  0.28840000000000005          1.4979204934206791E-006
  0.28950000000000004          1.3988595810587867E-006
  0.29060000000000002          1.2976537391296006E-006
  0.29170000000000001          1.1949052804993698E-006
  0.29280000000000000          1.0914233143921592E-006
  0.29389999999999999          9.8765667644329369E-007
  0.29500000000000004          8.8329670688835904E-007
  0.29610000000000003          7.7747995419485960E-007
  0.29720000000000002          6.6959910327568650E-007
  0.29830000000000001          5.5958344091777690E-007
  0.29940000000000000          4.4771948637389869E-007
  0.30050000000000004          3.3415616940146720E-007
  0.30160000000000003          2.1847876041647396E-007
  0.30270000000000002          1.0020458773851715E-007
  0.30380000000000001         -2.0743296857972382E-008
  0.30490000000000000         -1.4370198186952621E-007
  0.30599999999999999         -2.6751524728751974E-007
  0.30709999999999998         -3.9157049513960374E-007
  0.30819999999999997         -5.1626119557113270E-007
  0.30930000000000007         -6.4262286514349398E-007
  0.31040000000000006         -7.7158290423540166E-007
  0.31150000000000005         -9.0336089897391503E-007
  0.31260000000000004         -1.0375890724390047E-006
  0.31370000000000003         -1.1739808769561932E-006
  0.31480000000000002         -1.3125176110406755E-006
  0.31590000000000001         -1.4532095065078465E-006
  0.31700000000000000         -1.5956144352458068E-006
  0.31809999999999999         -1.7390591438015690E-006
  0.31919999999999998         -1.8832636214938248E-006
  0.32029999999999997         -2.0283493995520985E-006
  0.32140000000000007         -2.1749326606368413E-006
  0.32250000000000006         -2.3234299533214653E-006
  0.32360000000000005         -2.4735481929383241E-006
  0.32470000000000004         -2.6246270863339305E-006
  0.32580000000000003         -2.7762212084780913E-006
  0.32690000000000002         -2.9284849460964324E-006
  0.32800000000000001         -3.0818844152236125E-006
  0.32910000000000000         -3.2366290270147147E-006
  0.33019999999999999         -3.3922747206815984E-006
  0.33129999999999998         -3.5481818940752419E-006
  0.33239999999999997         -3.7042079839011421E-006
  0.33350000000000007         -3.8607936403423082E-006
  0.33460000000000006         -4.0183704186347313E-006
  0.33570000000000005         -4.1766165850276593E-006
  0.33680000000000004         -4.3344416553736664E-006
  0.33790000000000003         -4.4907114897796419E-006
  0.33900000000000002         -4.6451746129605453E-006
  0.34010000000000001         -4.7987537072913256E-006
  0.34120000000000000         -4.9527470764587633E-006
  0.34229999999999999         -5.1077672651445027E-006
  0.34339999999999998         -5.2631794460467063E-006
  0.34449999999999997         -5.4177121455722954E-006
  0.34560000000000007         -5.5704776968923397E-006
  0.34670000000000006         -5.7213560467062052E-006
  0.34780000000000005         -5.8705695664684754E-006
  0.34890000000000004         -6.0180123000463936E-006
