 -0.20000000000000001          0.0000000000000000
 -0.19890000000000002          0.0000000000000000
 -0.19780000000000000          0.0000000000000000
 -0.19670000000000001          0.0000000000000000
 -0.19560000000000002          0.0000000000000000
 -0.19450000000000001          0.0000000000000000
 -0.19340000000000002          0.0000000000000000
 -0.19230000000000000          0.0000000000000000
 -0.19120000000000001          0.0000000000000000
 -0.19010000000000002          0.0000000000000000
 -0.18900000000000000          8.2154694064695031E-034
 -0.18790000000000001          3.0852524316780857E-032
 -0.18680000000000002          4.0536062226241783E-031
 -0.18570000000000000          2.7924208726947438E-030
 -0.18460000000000001          1.1766557016250807E-029
 -0.18350000000000000          3.0931027732170014E-029
 -0.18240000000000001          4.0115230922828193E-029
 -0.18130000000000002         -4.2552973740670799E-029
 -0.18020000000000000         -3.2664258154118478E-028
 -0.17910000000000001         -6.6333100626528782E-028
 -0.17800000000000002         -1.5205384226101146E-028
 -0.17690000000000000          2.5647433809779881E-027
 -0.17580000000000001          6.2878030454546690E-027
 -0.17470000000000002          2.1605347894468337E-027
 -0.17360000000000000         -2.3055630920490257E-026
 -0.17250000000000001         -5.6234270103422573E-026
 -0.17140000000000000         -8.4048098922284068E-027
 -0.17030000000000001          2.4638088361553936E-025
 -0.16920000000000002          5.6062125862761375E-025
 -0.16810000000000000          3.9033346035840982E-026
 -0.16700000000000001         -2.5565731593678217E-024
 -0.16589999999999999         -5.8652561665346714E-024
 -0.16480000000000000         -1.5680263154864048E-024
 -0.16370000000000001          2.2214873715935537E-023
 -0.16260000000000002          5.6121925069251201E-023
 -0.16150000000000000          3.2732502152035806E-023
 -0.16040000000000001         -1.5174350405811165E-022
 -0.15930000000000000         -4.5623832300152187E-022
 -0.15820000000000001         -4.1558161839323237E-022
 -0.15710000000000002          7.6640495087927530E-022
 -0.15600000000000000          3.0776852101814031E-021
 -0.15490000000000001          3.8145454142722045E-021
 -0.15379999999999999         -2.3175474247170849E-021
 -0.15270000000000000         -1.7057095925412783E-020
 -0.15160000000000001         -2.7333352930027979E-020
 -0.15050000000000002         -2.7251461241591662E-021
 -0.14940000000000001          7.6232991102281173E-020
 -0.14830000000000002          1.5862326911516273E-019
 -0.14720000000000000          9.3696085690028308E-020
 -0.14610000000000001         -2.5978933211147333E-019
 -0.14500000000000002         -7.5687765341274502E-019
 -0.14390000000000000         -7.5657547399522174E-019
 -0.14280000000000001          5.4027348237810459E-019
 -0.14169999999999999          2.9603249363478918E-018
 -0.14060000000000000          4.1968104392189492E-018
 -0.13950000000000001          5.2001965488701400E-019
 -0.13840000000000002         -9.2041735063173851E-018
 -0.13730000000000001         -1.8187329316044276E-017
 -0.13619999999999999         -1.1769875181039451E-017
 -0.13510000000000000          2.0391004642334546E-017
 -0.13400000000000001          6.3516651521660332E-017
 -0.13290000000000002          6.8965336538661428E-017
 -0.13180000000000000         -1.5588329485763889E-017
 -0.13070000000000001         -1.7640043461722042E-016
 -0.12959999999999999         -2.7944032505459115E-016
 -0.12850000000000000         -1.2376803073632474E-016
 -0.12740000000000001          3.5857747511603756E-016
 -0.12630000000000002          8.7715502704543936E-016
 -0.12520000000000001          8.0594830236200015E-016
 -0.12410000000000000         -3.3772902966879383E-016
 -0.12300000000000001         -2.1496686114524542E-015
 -0.12190000000000001         -3.0333147696100585E-015
 -0.12080000000000000         -1.0998743995920771E-015
 -0.11970000000000000          3.8019925105621261E-015
 -0.11860000000000001          8.4511246945299066E-015
 -0.11750000000000001          7.2918482978633591E-015
 -0.11640000000000000         -2.9767950138968576E-015
 -0.11530000000000000         -1.7895000802362060E-014
 -0.11420000000000001         -2.4476993985811900E-014
 -0.11310000000000001         -9.4846454976493973E-015
 -0.11200000000000000          2.6198934040548745E-014
 -0.11090000000000001          5.8873641638895746E-014
 -0.10980000000000001          5.2294150590772095E-014
 -0.10870000000000000         -1.2013785928262962E-014
 -0.10760000000000000         -1.0432988836999585E-013
 -0.10650000000000001         -1.4833792560172560E-013
 -0.10540000000000001         -7.1869837555207927E-014
 -0.10430000000000000          1.1777066138713571E-013
 -0.10320000000000000          2.9750092905671266E-013
 -0.10210000000000001          2.8879408088024194E-013
 -0.10100000000000001          4.0332109058223951E-015
  -9.9900000000000003E-002    -4.2355287571509137E-013
  -9.8799999999999999E-002    -6.6218818622898468E-013
  -9.7700000000000009E-002    -4.0541159838924923E-013
  -9.6600000000000005E-002     3.2802065100603905E-013
  -9.5500000000000002E-002     1.0725605516584413E-012
  -9.4400000000000012E-002     1.1631504136591642E-012
  -9.3300000000000008E-002     2.6745687370550997E-013
  -9.2200000000000004E-002    -1.1843252073484578E-012
  -9.1100000000000000E-002    -2.1108267043989937E-012
  -9.0000000000000011E-002    -1.5256357375342811E-012
  -8.8900000000000007E-002     5.4595163025833449E-013
  -8.7800000000000003E-002     2.7614917730983679E-012
  -8.6699999999999999E-002     3.2456433374239424E-012
  -8.5600000000000009E-002     1.0958743678138316E-012
  -8.4500000000000006E-002    -2.5337670329916850E-012
  -8.3400000000000002E-002    -4.8761207745162682E-012
  -8.2299999999999998E-002    -3.5637870692689644E-012
  -8.1200000000000008E-002     1.1585900424812556E-012
  -8.0100000000000005E-002     5.9589022084749477E-012
  -7.9000000000000001E-002     6.5799514274711424E-012
  -7.7899999999999997E-002     1.4060446600419607E-012
  -7.6800000000000007E-002    -6.3930562232972221E-012
  -7.5700000000000003E-002    -1.0436499754684636E-011
  -7.4600000000000000E-002    -5.9928659257302286E-012
  -7.3500000000000010E-002     5.3455308755834263E-012
  -7.2399999999999992E-002     1.5366638517200215E-011
  -7.1300000000000002E-002     1.4704480688632060E-011
  -7.0200000000000012E-002     7.3879254493605662E-013
  -6.9099999999999995E-002    -1.8333411178073078E-011
  -6.8000000000000005E-002    -2.7705154143076172E-011
  -6.6900000000000015E-002    -1.6828462234830255E-011
  -6.5799999999999997E-002     1.0721269358415775E-011
  -6.4700000000000008E-002     3.6905953987309559E-011
  -6.3599999999999990E-002     4.0757949099079482E-011
  -6.2500000000000000E-002     1.4699427439146540E-011
  -6.1400000000000010E-002    -2.6846596126728350E-011
  -6.0299999999999992E-002    -5.5081141037138792E-011
  -5.9200000000000003E-002    -4.7367162275824271E-011
  -5.8100000000000013E-002    -6.0387289786689724E-012
  -5.6999999999999995E-002     4.0336164963683530E-011
  -5.5900000000000005E-002     5.7138856146554673E-011
  -5.4800000000000015E-002     3.1758276564097798E-011
  -5.3699999999999998E-002    -1.3284382274769690E-011
  -5.2600000000000008E-002    -3.6329460273432090E-011
  -5.1499999999999990E-002    -1.3019326935981290E-011
  -5.0400000000000000E-002     3.5820783839124459E-011
  -4.9300000000000010E-002     5.3202251631967457E-011
  -4.8199999999999993E-002    -6.1414397872772142E-012
  -4.7100000000000003E-002    -1.2249329328639647E-010
  -4.6000000000000013E-002    -2.0155334345961506E-010
  -4.4899999999999995E-002    -1.3359308104199386E-010
  -4.3800000000000006E-002     1.0761184998653306E-010
  -4.2699999999999988E-002     4.0097331011068604E-010
  -4.1599999999999998E-002     5.1966236869205318E-010
  -4.0500000000000008E-002     2.8141261543268570E-010
  -3.9399999999999991E-002    -2.8060814782904231E-010
  -3.8300000000000001E-002    -8.6137863508639612E-010
  -3.7200000000000011E-002    -1.0271539174766531E-009
  -3.6099999999999993E-002    -5.0891191261115409E-010
  -3.5000000000000003E-002     5.3775173203263193E-010
  -3.3900000000000013E-002     1.5180929846536628E-009
  -3.2799999999999996E-002     1.7113976902294326E-009
  -3.1700000000000006E-002     7.6654937952724822E-010
  -3.0599999999999988E-002    -9.4170382602953850E-010
  -2.9499999999999998E-002    -2.3961188588828009E-009
  -2.8400000000000009E-002    -2.5098481071239576E-009
  -2.7299999999999991E-002    -8.9143109560652078E-010
  -2.6200000000000001E-002     1.7065366897384138E-009
  -2.5100000000000011E-002     3.6539751224751171E-009
  -2.3999999999999994E-002     3.4023051043163832E-009
  -2.2900000000000004E-002     6.1290478248210434E-010
  -2.1800000000000014E-002    -3.3083156214530618E-009
  -2.0699999999999996E-002    -5.7887952209512150E-009
  -1.9600000000000006E-002    -4.6353143545729836E-009
  -1.8499999999999989E-002     3.0680813445371768E-010
  -1.7399999999999999E-002     6.5142082839031445E-009
  -1.6300000000000009E-002     9.8592449759848932E-009
  -1.5199999999999991E-002     7.0766241755393366E-009
  -1.4100000000000001E-002    -1.7260955997855376E-009
  -1.3000000000000012E-002    -1.2216305300682961E-008
  -1.1899999999999994E-002    -1.7635914062452684E-008
  -1.0800000000000004E-002    -1.2709735486282625E-008
  -9.6999999999999864E-003     2.4132358333872617E-009
  -8.5999999999999965E-003     2.0781552478865706E-008
  -7.5000000000000067E-003     3.1362809238544287E-008
  -6.3999999999999890E-003     2.5101003942040734E-008
  -5.2999999999999992E-003     1.2152654438324362E-009
  -4.2000000000000093E-003    -3.0222178537542277E-008
  -3.0999999999999917E-003    -5.1923841226653167E-008
  -2.0000000000000018E-003    -4.8363965277076204E-008
  -9.0000000000001190E-004    -1.5674494591166876E-008
   2.0000000000000573E-004     3.3476563743306542E-008
   1.2999999999999956E-003     7.4074186784400808E-008
   2.4000000000000132E-003     8.1261873674520757E-008
   3.5000000000000031E-003     4.5125243985921770E-008
   4.5999999999999930E-003    -2.0846970372190299E-008
   5.7000000000000106E-003    -8.3917740312244860E-008
   6.8000000000000005E-003    -1.0851065468386878E-007
   7.8999999999999904E-003    -7.6873895693552186E-008
   9.0000000000000080E-003    -2.0145816126415639E-009
   1.0099999999999998E-002     7.6239437873937277E-008
   1.1199999999999988E-002     1.1211889017204157E-007
   1.2300000000000005E-002     8.1205207891343889E-008
   1.3399999999999995E-002    -2.0031694081268370E-009
   1.4500000000000013E-002    -8.8593225200384040E-008
   1.5600000000000003E-002    -1.2189191522793408E-007
   1.6699999999999993E-002    -7.2250522009653650E-008
   1.7800000000000010E-002     4.1139934126022126E-008
   1.8900000000000000E-002     1.5688119958667812E-007
   1.9999999999999990E-002     2.0546026746615098E-007
   2.1100000000000008E-002     1.5180536649950227E-007
   2.2199999999999998E-002     1.9468130219024715E-008
   2.3300000000000015E-002    -1.2144201377850550E-007
   2.4400000000000005E-002    -1.9833896658383310E-007
   2.5499999999999995E-002    -1.8583115490855562E-007
   2.6600000000000013E-002    -1.2727196008199826E-007
   2.7700000000000002E-002    -1.0922580173655660E-007
   2.8799999999999992E-002    -1.9984869936706673E-007
   2.9900000000000010E-002    -3.8919426970096538E-007
   3.1000000000000000E-002    -5.7455315527477069E-007
   3.2099999999999990E-002    -6.1015111896267626E-007
   3.3200000000000007E-002    -3.9946928609424504E-007
   3.4299999999999997E-002     2.4801821041364747E-008
   3.5400000000000015E-002     4.8977051392284920E-007
   3.6500000000000005E-002     7.6076565846960875E-007
   3.7599999999999995E-002     6.7382359247858403E-007
   3.8700000000000012E-002     2.4557579081374570E-007
   3.9800000000000002E-002    -3.1343645900960837E-007
   4.0899999999999992E-002    -7.0451511646751896E-007
   4.2000000000000010E-002    -7.1470174134447007E-007
   4.3099999999999999E-002    -3.5714381851903454E-007
   4.4200000000000017E-002     1.1553304801736886E-007
   4.5300000000000007E-002     3.4894608802460425E-007
   4.6399999999999997E-002     1.0634482805471634E-007
   4.7500000000000014E-002    -5.6039209539449075E-007
   4.8600000000000004E-002    -1.3031406069785589E-006
   4.9699999999999994E-002    -1.6583863953201217E-006
   5.0800000000000012E-002    -1.3257073305794620E-006
   5.1900000000000002E-002    -3.8140609603942721E-007
   5.2999999999999992E-002     7.1279242774835438E-007
   5.4099999999999981E-002     1.3343460523174144E-006
   5.5200000000000027E-002     1.0462558748258743E-006
   5.6300000000000017E-002    -1.3091518269447988E-007
   5.7400000000000007E-002    -1.6894839518499793E-006
   5.8499999999999996E-002    -2.8839845072070602E-006
   5.9599999999999986E-002    -3.1326587759394897E-006
   6.0700000000000032E-002    -2.3463794605049770E-006
   6.1800000000000022E-002    -9.9120700269850204E-007
   6.2900000000000011E-002     1.6145217784924171E-007
   6.4000000000000001E-002     4.6167676259756263E-007
   6.5099999999999991E-002    -2.5877596954160254E-007
   6.6199999999999981E-002    -1.6024976048356621E-006
   6.7300000000000026E-002    -2.8494671369116986E-006
   6.8400000000000016E-002    -3.3838134640973294E-006
   6.9500000000000006E-002    -3.0509318094118498E-006
   7.0599999999999996E-002    -2.2321530650515342E-006
   7.1699999999999986E-002    -1.5947755400702590E-006
   7.2800000000000031E-002    -1.6728716900615836E-006
   7.3900000000000021E-002    -2.5384704258613056E-006
   7.5000000000000011E-002    -3.7675129078706959E-006
   7.6100000000000001E-002    -4.7209873628162313E-006
   7.7199999999999991E-002    -4.9640029828879051E-006
   7.8299999999999981E-002    -4.5548626985691953E-006
   7.9400000000000026E-002    -4.0145355342247058E-006
   8.0500000000000016E-002    -3.9887686398287769E-006
   8.1600000000000006E-002    -4.8137180783669464E-006
   8.2699999999999996E-002    -6.2683416217623744E-006
   8.3799999999999986E-002    -7.6863989306730218E-006
   8.4900000000000031E-002    -8.3763079601339996E-006
   8.6000000000000021E-002    -8.0934623838402331E-006
   8.7100000000000011E-002    -7.2572661338199396E-006
   8.8200000000000001E-002    -6.7509463406167924E-006
   8.9299999999999990E-002    -7.3958208304247819E-006
   9.0399999999999980E-002    -9.4103907031239942E-006
   9.1500000000000026E-002    -1.2197662726975977E-005
   9.2600000000000016E-002    -1.4623032257077284E-005
   9.3700000000000006E-002    -1.5656236428185366E-005
   9.4799999999999995E-002    -1.5010478819021955E-005
   9.5899999999999985E-002    -1.3391450920607895E-005
   9.7000000000000031E-002    -1.2175155461591203E-005
   9.8100000000000021E-002    -1.2668932868109550E-005
   9.9200000000000010E-002    -1.5365676517831162E-005
  0.10030000000000000         -1.9621755200205371E-005
  0.10139999999999999         -2.3962322302395478E-005
  0.10249999999999998         -2.6856199838221073E-005
  0.10360000000000003         -2.7539779694052413E-005
  0.10470000000000002         -2.6420857466291636E-005
  0.10580000000000001         -2.4851067792042159E-005
  0.10690000000000000         -2.4394872525590472E-005
  0.10799999999999998         -2.6019270080723800E-005
  0.10910000000000003         -2.9640816137543879E-005
  0.11020000000000002         -3.4262928238604218E-005
  0.11130000000000001         -3.8581645640078932E-005
  0.11240000000000000         -4.1693732782732695E-005
  0.11349999999999999         -4.3499381717992947E-005
  0.11460000000000004         -4.4610929762711748E-005
  0.11570000000000003         -4.5886761654401198E-005
  0.11680000000000001         -4.7908804845064878E-005
  0.11790000000000000         -5.0711223593680188E-005
  0.11899999999999999         -5.3899406339041889E-005
  0.12009999999999998         -5.7034041674342006E-005
  0.12120000000000003         -5.9987432905472815E-005
  0.12230000000000002         -6.3036932260729373E-005
  0.12340000000000001         -6.6629472712520510E-005
  0.12450000000000000         -7.1007045335136354E-005
  0.12559999999999999         -7.5946940341964364E-005
  0.12670000000000003         -8.0830825027078390E-005
  0.12780000000000002         -8.4979634266346693E-005
  0.12890000000000001         -8.8086831965483725E-005
  0.13000000000000000         -9.0463297965470701E-005
  0.13109999999999999         -9.2919173766858876E-005
  0.13219999999999998         -9.6342679171357304E-005
  0.13330000000000003         -1.0124759137397632E-004
  0.13440000000000002         -1.0749001376098022E-004
  0.13550000000000001         -1.1437500506872311E-004
  0.13660000000000000         -1.2099392915843055E-004
  0.13769999999999999         -1.2667008559219539E-004
  0.13880000000000003         -1.3124161341693252E-004
  0.13990000000000002         -1.3507112453226000E-004
  0.14100000000000001         -1.3883586507290602E-004
  0.14210000000000000         -1.4317591558210552E-004
  0.14319999999999999         -1.4843046665191650E-004
  0.14429999999999998         -1.5459084534086287E-004
  0.14540000000000003         -1.6132957534864545E-004
  0.14650000000000002         -1.6821376630105078E-004
  0.14760000000000001         -1.7489542369730771E-004
  0.14870000000000000         -1.8114599515683949E-004
  0.14979999999999999         -1.8691415607463568E-004
  0.15090000000000003         -1.9228625751566142E-004
  0.15200000000000002         -1.9747967598959804E-004
  0.15310000000000001         -2.0271219545975327E-004
  0.15420000000000000         -2.0822275837417692E-004
  0.15529999999999999         -2.1412305068224669E-004
  0.15639999999999998         -2.2038526367396116E-004
  0.15750000000000003         -2.2687217278871685E-004
  0.15860000000000002         -2.3336539743468165E-004
  0.15970000000000001         -2.3971644986886531E-004
  0.16080000000000000         -2.4579101591371000E-004
  0.16189999999999999         -2.5151003501378000E-004
  0.16300000000000003         -2.5686778826639056E-004
  0.16410000000000002         -2.6192623772658408E-004
  0.16520000000000001         -2.6670482475310564E-004
  0.16630000000000000         -2.7121556922793388E-004
  0.16739999999999999         -2.7552191750146449E-004
  0.16850000000000004         -2.7973653050139546E-004
  0.16960000000000003         -2.8408018988557160E-004
  0.17070000000000002         -2.8867408400401473E-004
  0.17180000000000001         -2.9343302594497800E-004
  0.17290000000000000         -2.9811917920596898E-004
  0.17399999999999999         -3.0233873985707760E-004
  0.17510000000000003         -3.0572368996217847E-004
  0.17620000000000002         -3.0819405219517648E-004
  0.17730000000000001         -3.0984877957962453E-004
  0.17840000000000000         -3.1101296190172434E-004
  0.17949999999999999         -3.1209937878884375E-004
  0.18060000000000004         -3.1331874197348952E-004
  0.18170000000000003         -3.1472661066800356E-004
  0.18280000000000002         -3.1615572515875101E-004
  0.18390000000000001         -3.1734569347463548E-004
  0.18500000000000000         -3.1808626954443753E-004
  0.18609999999999999         -3.1811022199690342E-004
  0.18720000000000003         -3.1716574449092150E-004
  0.18830000000000002         -3.1509599648416042E-004
  0.18940000000000001         -3.1212336034514010E-004
  0.19050000000000000         -3.0865203007124364E-004
  0.19159999999999999         -3.0509661883115768E-004
  0.19270000000000004         -3.0170669197104871E-004
  0.19380000000000003         -2.9854144668206573E-004
  0.19490000000000002         -2.9545353027060628E-004
  0.19600000000000001         -2.9202108271420002E-004
  0.19710000000000000         -2.8790868236683309E-004
  0.19819999999999999         -2.8271210612729192E-004
  0.19930000000000003         -2.7624418726190925E-004
  0.20040000000000002         -2.6853205054067075E-004
  0.20150000000000001         -2.6012005400843918E-004
  0.20260000000000000         -2.5180479860864580E-004
  0.20369999999999999         -2.4414600920863450E-004
  0.20480000000000004         -2.3697642609477043E-004
  0.20590000000000003         -2.2971550060901791E-004
  0.20700000000000002         -2.2163896937854588E-004
  0.20810000000000001         -2.1243396622594446E-004
  0.20920000000000000         -2.0230484369676560E-004
  0.21029999999999999         -1.9168111612088978E-004
  0.21140000000000003         -1.8094795814249665E-004
  0.21250000000000002         -1.7010721785482019E-004
  0.21360000000000001         -1.5915796393528581E-004
  0.21470000000000000         -1.4823403034824878E-004
  0.21579999999999999         -1.3711207429878414E-004
  0.21690000000000004         -1.2570980470627546E-004
  0.21800000000000003         -1.1368181003490463E-004
  0.21910000000000002         -1.0116010525962338E-004
  0.22020000000000001         -8.8695371232461184E-005
  0.22130000000000000         -7.6716205512639135E-005
  0.22239999999999999         -6.5454994910396636E-005
  0.22350000000000003         -5.4403564718086272E-005
  0.22460000000000002         -4.2869280150625855E-005
  0.22570000000000001         -3.0633313144790009E-005
  0.22680000000000000         -1.7346641470794566E-005
  0.22789999999999999         -3.6865228594251676E-006
  0.22900000000000004          9.7041365734185092E-006
  0.23010000000000003          2.2067597456043586E-005
  0.23120000000000002          3.3513268135720864E-005
  0.23230000000000001          4.4023068767273799E-005
  0.23340000000000000          5.4097938118502498E-005
  0.23450000000000004          6.4255094912368804E-005
  0.23560000000000003          7.4724201112985611E-005
  0.23670000000000002          8.5743988165631890E-005
  0.23780000000000001          9.7169766377191991E-005
  0.23890000000000000          1.0852320701815188E-004
  0.23999999999999999          1.1926358274649829E-004
  0.24110000000000004          1.2929234071634710E-004
  0.24220000000000003          1.3809857773594558E-004
  0.24330000000000002          1.4574288798030466E-004
  0.24440000000000001          1.5258515486493707E-004
  0.24550000000000000          1.5944731421768665E-004
  0.24660000000000004          1.6646410222165287E-004
  0.24770000000000003          1.7383352678734809E-004
  0.24880000000000002          1.8103387265000492E-004
  0.24990000000000001          1.8749544688034803E-004
  0.25100000000000000          1.9320382853038609E-004
  0.25209999999999999          1.9827109645120800E-004
  0.25320000000000004          2.0300019241403788E-004
  0.25430000000000003          2.0708638476207852E-004
  0.25540000000000002          2.1025749447289854E-004
  0.25650000000000001          2.1265640680212528E-004
  0.25760000000000000          2.1483648743014783E-004
  0.25870000000000004          2.1702109370380640E-004
  0.25980000000000003          2.1896066027693450E-004
  0.26090000000000002          2.2037034796085209E-004
  0.26200000000000001          2.2083782823756337E-004
  0.26310000000000000          2.2017050650902092E-004
  0.26419999999999999          2.1923011809121817E-004
  0.26530000000000004          2.1891815413255244E-004
  0.26640000000000003          2.1905016910750419E-004
  0.26750000000000002          2.1880965505260974E-004
  0.26860000000000001          2.1719379583373666E-004
  0.26970000000000000          2.1379211102612317E-004
  0.27080000000000004          2.0951873739250004E-004
  0.27190000000000003          2.0570382184814662E-004
  0.27300000000000002          2.0237898570485413E-004
  0.27410000000000001          1.9902974599972367E-004
  0.27520000000000000          1.9506743410602212E-004
  0.27629999999999999          1.9074161536991596E-004
  0.27740000000000004          1.8645740055944771E-004
  0.27850000000000003          1.8282874953001738E-004
  0.27960000000000002          1.7955635848920792E-004
  0.28070000000000001          1.7505603318568319E-004
  0.28179999999999999          1.6919485642574728E-004
  0.28290000000000004          1.6216450603678823E-004
  0.28400000000000003          1.5461514703929424E-004
  0.28510000000000002          1.4774936425965279E-004
  0.28620000000000001          1.4214318071026355E-004
  0.28730000000000000          1.3727754412684590E-004
  0.28840000000000005          1.3269764895085245E-004
  0.28950000000000004          1.2768869055435061E-004
  0.29060000000000002          1.2255586625542492E-004
  0.29170000000000001          1.1744835501303896E-004
  0.29280000000000000          1.1161519796587527E-004
  0.29389999999999999          1.0523861419642344E-004
  0.29500000000000004          9.7839794761966914E-005
  0.29610000000000003          9.0658446424640715E-005
  0.29720000000000002          8.4898085333406925E-005
  0.29830000000000001          8.0893274571280926E-005
  0.29940000000000000          7.7369513746816665E-005
  0.30050000000000004          7.3368770244996995E-005
  0.30160000000000003          6.8134213506709784E-005
  0.30270000000000002          6.2787985370960087E-005
  0.30380000000000001          5.7824698160402477E-005
  0.30490000000000000          5.4383672249969095E-005
  0.30599999999999999          5.1740626076934859E-005
  0.30709999999999998          4.8199683078564703E-005
  0.30819999999999997          4.3221021769568324E-005
  0.30930000000000007          3.7722886190749705E-005
  0.31040000000000006          3.4106440580217168E-005
  0.31150000000000005          3.2770902180345729E-005
  0.31260000000000004          3.2244191970676184E-005
  0.31370000000000003          3.0750863516004756E-005
  0.31480000000000002          2.7952290110988542E-005
  0.31590000000000001          2.5002709662658162E-005
  0.31700000000000000          2.3465527192456648E-005
  0.31809999999999999          2.4263958039227873E-005
  0.31919999999999998          2.5660079700173810E-005
  0.32029999999999997          2.5644709239713848E-005
  0.32140000000000007          2.3234046238940209E-005
  0.32250000000000006          1.9696721210493706E-005
  0.32360000000000005          1.8862121578422375E-005
  0.32470000000000004          2.0978006432414986E-005
  0.32580000000000003          2.5337272745673545E-005
  0.32690000000000002          2.9068101866869256E-005
  0.32800000000000001          3.0258061087806709E-005
  0.32910000000000000          2.9418037229334004E-005
  0.33019999999999999          2.9777014788123779E-005
  0.33129999999999998          3.2820633350638673E-005
  0.33239999999999997          3.7346275348681957E-005
  0.33350000000000007          4.1023758967639878E-005
  0.33460000000000006          4.2411742469994351E-005
  0.33570000000000005          4.3075444409623742E-005
  0.33680000000000004          4.5831518946215510E-005
  0.33790000000000003          5.1670096581801772E-005
  0.33900000000000002          5.8902987802866846E-005
  0.34010000000000001          6.3911487814038992E-005
  0.34120000000000000          6.5770575019996613E-005
  0.34229999999999999          6.6702828917186707E-005
  0.34339999999999998          7.0046648033894598E-005
  0.34449999999999997          7.7273209171835333E-005
  0.34560000000000007          8.5989930084906518E-005
  0.34670000000000006          9.2993148427922279E-005
  0.34780000000000005          9.6215808298438787E-005
  0.34890000000000004          9.6914773166645318E-005
