 -0.20000000000000001          0.0000000000000000
 -0.19890000000000002          0.0000000000000000
 -0.19780000000000000          0.0000000000000000
 -0.19670000000000001          0.0000000000000000
 -0.19560000000000002          0.0000000000000000
 -0.19450000000000001          0.0000000000000000
 -0.19340000000000002          0.0000000000000000
 -0.19230000000000000          0.0000000000000000
 -0.19120000000000001          0.0000000000000000
 -0.19010000000000002          0.0000000000000000
 -0.18900000000000000          0.0000000000000000
 -0.18790000000000001          9.9407272280123928E-040
 -0.18680000000000002          3.9319697825962132E-038
 -0.18570000000000000          5.6813164256209696E-037
 -0.18460000000000001          4.4757725856881499E-036
 -0.18350000000000000          2.2620946677299317E-035
 -0.18240000000000001          7.8192667396374472E-035
 -0.18130000000000002          1.8230381432580437E-034
 -0.18020000000000000          2.3492587504856989E-034
 -0.17910000000000001         -1.0768958591384814E-034
 -0.17800000000000002         -1.2529355513124752E-033
 -0.17690000000000000         -2.5821667471360632E-033
 -0.17580000000000001         -8.0805869398424151E-034
 -0.17470000000000002          8.5742908937679295E-033
 -0.17360000000000000          2.0570888122529035E-032
 -0.17250000000000001          4.6701725669177299E-033
 -0.17140000000000000         -7.9274010710838640E-032
 -0.17030000000000001         -1.7338801458880272E-031
 -0.16920000000000002          3.0618838978573264E-032
 -0.16810000000000000          9.1297740406331838E-031
 -0.16700000000000001          1.8425663300551689E-030
 -0.16589999999999999         -3.2129817653878706E-031
 -0.16480000000000000         -9.5821228866601171E-030
 -0.16370000000000001         -2.0740259825569383E-029
 -0.16260000000000002         -5.0184005461463199E-030
 -0.16150000000000000          7.8610989485138693E-029
 -0.16040000000000001          2.0184670263551538E-028
 -0.15930000000000000          1.4147279518361014E-028
 -0.15820000000000001         -4.7094947893445795E-028
 -0.15710000000000002         -1.5862254652219738E-027
 -0.15600000000000000         -1.7741516425159554E-027
 -0.15490000000000001          1.7619212169971187E-027
 -0.15379999999999999          9.9135934254970782E-027
 -0.15270000000000000          1.5261034982957436E-026
 -0.15160000000000001         -3.0609975210440662E-029
 -0.15050000000000002         -4.8395611970250082E-026
 -0.14940000000000001         -1.0005803869746428E-025
 -0.14830000000000002         -5.9478553020781314E-026
 -0.14720000000000000          1.7303508649032179E-025
 -0.14610000000000001          5.1892098649388639E-025
 -0.14500000000000002          5.5046181485211180E-025
 -0.14390000000000000         -3.3381931103398099E-025
 -0.14280000000000001         -2.1335565569195957E-024
 -0.14169999999999999         -3.2795627984962949E-024
 -0.14060000000000000         -8.4357629760714118E-025
 -0.13950000000000001          6.6705510165636999E-024
 -0.13840000000000002          1.4813902187731408E-023
 -0.13730000000000001          1.1820203451410256E-023
 -0.13619999999999999         -1.3180163364409640E-023
 -0.13510000000000000         -5.2422075915899650E-023
 -0.13400000000000001         -6.6990875864935269E-023
 -0.13290000000000002         -4.7045274138838324E-024
 -0.13180000000000000          1.4102987681922198E-022
 -0.13070000000000001          2.6790238882769179E-022
 -0.12959999999999999          1.8133039495158609E-022
 -0.12850000000000000         -2.4336437181070012E-022
 -0.12740000000000001         -8.1781848706051161E-022
 -0.12630000000000002         -9.5839385378058145E-022
 -0.12520000000000001         -3.7611685736918286E-023
 -0.12410000000000000          1.8583678748512136E-021
 -0.12300000000000001          3.3456955656680271E-021
 -0.12190000000000001          2.2319241338982597E-021
 -0.12080000000000000         -2.5521579395911796E-021
 -0.11970000000000000         -8.6670877906119523E-021
 -0.11860000000000001         -1.0181607024582529E-020
 -0.11750000000000001         -1.4702654750957734E-021
 -0.11640000000000000          1.6064212618472057E-020
 -0.11530000000000000          2.9996771104872159E-020
 -0.11420000000000001          2.2276376177249375E-020
 -0.11310000000000001         -1.5061180193156218E-020
 -0.11200000000000000         -6.3875158319983291E-020
 -0.11090000000000001         -8.0988426594454387E-020
 -0.10980000000000001         -2.6864591938716165E-020
 -0.10870000000000000          9.0535170075521766E-020
 -0.10760000000000000          1.9339823933492465E-019
 -0.10650000000000001          1.7002215399826730E-019
 -0.10540000000000001         -3.2842815249331562E-020
 -0.10430000000000000         -3.2267028395865324E-019
 -0.10320000000000000         -4.6999523525862195E-019
 -0.10210000000000001         -2.5734408282319001E-019
 -0.10100000000000001          3.0474791672283164E-019
  -9.9900000000000003E-002     8.7172015263594545E-019
  -9.8799999999999999E-002     9.2619340809258910E-019
  -9.7700000000000009E-002     1.7941893868156677E-019
  -9.6600000000000005E-002    -1.0579035158730295E-018
  -9.5500000000000002E-002    -1.8983209827808604E-018
  -9.4400000000000012E-002    -1.4409402518636721E-018
  -9.3300000000000008E-002     4.2385243820281741E-019
  -9.2200000000000004E-002     2.6122680141008916E-018
  -9.1100000000000000E-002     3.3676499698697758E-018
  -9.0000000000000011E-002     1.5689317692003803E-018
  -8.8900000000000007E-002    -2.0758056112987602E-018
  -8.7800000000000003E-002    -5.0599415619644503E-018
  -8.6699999999999999E-002    -4.7026723292354470E-018
  -8.5600000000000009E-002    -4.1817490312280071E-019
  -8.4500000000000006E-002     5.1923301646423372E-018
  -8.3400000000000002E-002     7.7369776112330908E-018
  -8.2299999999999998E-002     4.3815186292311214E-018
  -8.1200000000000008E-002    -3.2861226351062432E-018
  -8.0100000000000005E-002    -9.5518697778173122E-018
  -7.9000000000000001E-002    -8.6073453235675120E-018
  -7.7899999999999997E-002     2.9891993816890686E-019
  -7.6800000000000007E-002     1.0906498799242328E-017
  -7.5700000000000003E-002     1.3778479812193790E-017
  -7.4600000000000000E-002     4.0222964230758804E-018
  -7.3500000000000010E-002    -1.2985255790966677E-017
  -7.2399999999999992E-002    -2.3524715527265138E-017
  -7.1300000000000002E-002    -1.5470543929620013E-017
  -7.0200000000000012E-002     1.0376050206288610E-017
  -6.9099999999999995E-002     3.7116583393266965E-017
  -6.8000000000000005E-002     4.1673686823944105E-017
  -6.6900000000000015E-002     1.2707555542900987E-017
  -6.5799999999999997E-002    -3.6621012870841546E-017
  -6.4700000000000008E-002    -7.2976844872188392E-017
  -6.3599999999999990E-002    -6.4676477854467884E-017
  -6.2500000000000000E-002    -7.0589914298631899E-018
  -6.1400000000000010E-002     6.8344798878013948E-017
  -6.0299999999999992E-002     1.1126422301318536E-016
  -5.9200000000000003E-002     8.7535455263693194E-017
  -5.8100000000000013E-002     6.4924260634138756E-018
  -5.6999999999999995E-002    -8.1857469163447498E-017
  -5.5900000000000005E-002    -1.2140061335341837E-016
  -5.4800000000000015E-002    -9.1805738780051247E-017
  -5.3699999999999998E-002    -2.3783350089392093E-017
  -5.2600000000000008E-002     2.8164934065891606E-017
  -5.1499999999999990E-002     3.6154572340867794E-017
  -5.0400000000000000E-002     2.8390823856290037E-017
  -4.9300000000000010E-002     6.3970224430025209E-017
  -4.8199999999999993E-002     1.6392434075332402E-016
  -4.7100000000000003E-002     2.5644732453379755E-016
  -4.6000000000000013E-002     2.0075343917905941E-016
  -4.4899999999999995E-002    -9.8819992146484506E-017
  -4.3800000000000006E-002    -5.6004108524692069E-016
  -4.2699999999999988E-002    -8.9105176721544863E-016
  -4.1599999999999998E-002    -7.3688478279335112E-016
  -4.0500000000000008E-002     4.6073625938236170E-017
  -3.9399999999999991E-002     1.1695412713169672E-015
  -3.8300000000000001E-002     1.9534731227370192E-015
  -3.7200000000000011E-002     1.6951367559121669E-015
  -3.6099999999999993E-002     1.9394424719520049E-016
  -3.5000000000000003E-002    -1.9230316056456469E-015
  -3.3900000000000013E-002    -3.3893282230551981E-015
  -3.2799999999999996E-002    -3.0187322503901284E-015
  -3.1700000000000006E-002    -5.7734512132637879E-016
  -3.0599999999999988E-002     2.7915669077824713E-015
  -2.9499999999999998E-002     5.0210173407785712E-015
  -2.8400000000000009E-002     4.3511642043320836E-015
  -2.7299999999999991E-002     6.4439487300248992E-016
  -2.6200000000000001E-002    -4.1410060127558719E-015
  -2.5100000000000011E-002    -6.8614975389012876E-015
  -2.3999999999999994E-002    -5.1606799447701229E-015
  -2.2900000000000004E-002     6.5692709603403171E-016
  -2.1800000000000014E-002     7.2161489633672422E-015
  -2.0699999999999996E-002     9.7723088979652720E-015
  -1.9600000000000006E-002     5.3240268605163257E-015
  -1.8499999999999989E-002    -4.7329854811306409E-015
  -1.7399999999999999E-002    -1.4418760646171466E-014
  -1.6300000000000009E-002    -1.6222344512628259E-014
  -1.5199999999999991E-002    -6.0962413875396537E-015
  -1.4100000000000001E-002     1.2592577940681929E-014
  -1.3000000000000012E-002     2.9192821120530010E-014
  -1.1899999999999994E-002     3.1011336483781002E-014
  -1.0800000000000004E-002     1.1490395799825057E-014
  -9.6999999999999864E-003    -2.3409324202390905E-014
  -8.5999999999999965E-003    -5.5389036185318069E-014
  -7.5000000000000067E-003    -6.2223067410355215E-014
  -6.3999999999999890E-003    -3.1108098139543544E-014
  -5.2999999999999992E-003     3.0379083986896080E-014
  -4.2000000000000093E-003     9.3336735638559903E-014
  -3.0999999999999917E-003     1.1972554566676286E-013
  -2.0000000000000018E-003     8.3286506760271023E-014
  -9.0000000000001190E-004    -1.1672925470727728E-014
   2.0000000000000573E-004    -1.2559849265226380E-013
   1.2999999999999956E-003    -1.9901742471899186E-013
   2.4000000000000132E-003    -1.8280658291378732E-013
   3.5000000000000031E-003    -6.8268876879731821E-014
   4.5999999999999930E-003     1.0087038219671121E-013
   5.7000000000000106E-003     2.4478482392106815E-013
   6.8000000000000005E-003     2.8715880584853637E-013
   7.8999999999999904E-003     1.9823488824847330E-013
   9.0000000000000080E-003     1.6293557960635717E-014
   1.0099999999999998E-002    -1.6808540778852354E-013
   1.1199999999999988E-002    -2.6021464713879561E-013
   1.2300000000000005E-002    -2.1668004033820881E-013
   1.3399999999999995E-002    -7.4887124767390040E-014
   1.4500000000000013E-002     6.4481961979147295E-014
   1.5600000000000003E-002     9.6653242321557281E-014
   1.6699999999999993E-002    -1.8664691171202570E-014
   1.7800000000000010E-002    -2.2140575234742138E-013
   1.8900000000000000E-002    -3.7436750205920022E-013
   1.9999999999999990E-002    -3.3750297478638003E-013
   2.1100000000000008E-002    -5.2031526331410005E-014
   2.2199999999999998E-002     4.1712442419399032E-013
   2.3300000000000015E-002     9.0983676755834741E-013
   2.4400000000000005E-002     1.2556043444550413E-012
   2.5499999999999995E-002     1.3613818189081583E-012
   2.6600000000000013E-002     1.2423034606232064E-012
   2.7700000000000002E-002     9.6922610996058589E-013
   2.8799999999999992E-002     5.6398554446404625E-013
   2.9900000000000010E-002    -8.3071970255390454E-014
   3.1000000000000000E-002    -1.2010544468699091E-012
   3.2099999999999990E-002    -3.0142461877186166E-012
   3.3200000000000007E-002    -5.5657206274317694E-012
   3.4299999999999997E-002    -8.6005534291611063E-012
   3.5400000000000015E-002    -1.1605375514756044E-011
   3.6500000000000005E-002    -1.4017575294955620E-011
   3.7599999999999995E-002    -1.5509248399436792E-011
   3.8700000000000012E-002    -1.6185594531314962E-011
   3.9800000000000002E-002    -1.6564792940099160E-011
   4.0899999999999992E-002    -1.7323250472989216E-011
   4.2000000000000010E-002    -1.8934171938655986E-011
   4.3099999999999999E-002    -2.1409880812672810E-011
   4.4200000000000017E-002    -2.4317735325407597E-011
   4.5300000000000007E-002    -2.7085795412107316E-011
   4.6399999999999997E-002    -2.9431630743648185E-011
   4.7500000000000014E-002    -3.1648787757188046E-011
   4.8600000000000004E-002    -3.4544020421911625E-011
   4.9699999999999994E-002    -3.9016054276252987E-011
   5.0800000000000012E-002    -4.5494732980877473E-011
   5.1900000000000002E-002    -5.3577517422631615E-011
   5.2999999999999992E-002    -6.2121807697934628E-011
   5.4099999999999981E-002    -6.9803614277663684E-011
   5.5200000000000027E-002    -7.5870865146043798E-011
   5.6300000000000017E-002    -8.0672142577231654E-011
   5.7400000000000007E-002    -8.5631828017351808E-011
   5.8499999999999996E-002    -9.2635794868289878E-011
   5.9599999999999986E-002    -1.0312938003576022E-010
   6.0700000000000032E-002    -1.1741348171501187E-010
   6.1800000000000022E-002    -1.3453670122398620E-010
   6.2900000000000011E-002    -1.5285929466646309E-010
   6.4000000000000001E-002    -1.7098653048996937E-010
   6.5099999999999991E-002    -1.8855511596527208E-010
   6.6199999999999981E-002    -2.0643682596688251E-010
   6.7300000000000026E-002    -2.2625756823657639E-010
   6.8400000000000016E-002    -2.4952614974260712E-010
   6.9500000000000006E-002    -2.7688915049672858E-010
   7.0599999999999996E-002    -3.0794378158560676E-010
   7.1699999999999986E-002    -3.4169930773764179E-010
   7.2800000000000031E-002    -3.7738451252877780E-010
   7.3900000000000021E-002    -4.1509390369398602E-010
   7.5000000000000011E-002    -4.5587483787912220E-010
   7.6100000000000001E-002    -5.0121445882567173E-010
   7.7199999999999991E-002    -5.5226651030082508E-010
   7.8299999999999981E-002    -6.0932497936150298E-010
   7.9400000000000026E-002    -6.7189481756102509E-010
   8.0500000000000016E-002    -7.3932221456018965E-010
   8.1600000000000006E-002    -8.1157602860315592E-010
   8.2699999999999996E-002    -8.8965446121136438E-010
   8.3799999999999986E-002    -9.7531760445690452E-010
   8.4900000000000031E-002    -1.0702813080243345E-009
   8.6000000000000021E-002    -1.1753802375835676E-009
   8.7100000000000011E-002    -1.2902723334207167E-009
   8.8200000000000001E-002    -1.4139456272488360E-009
   8.9299999999999990E-002    -1.5457876090252398E-009
   9.0399999999999980E-002    -1.6865785434916347E-009
   9.1500000000000026E-002    -1.8387561473431902E-009
   9.2600000000000016E-002    -2.0056929450618100E-009
   9.3700000000000006E-002    -2.1903234781461833E-009
   9.4799999999999995E-002    -2.3938979687443407E-009
   9.5899999999999985E-002    -2.6156352639361558E-009
   9.7000000000000031E-002    -2.8535760421277701E-009
   9.8100000000000021E-002    -3.1062488137223454E-009
   9.9200000000000010E-002    -3.3742511007517351E-009
  0.10030000000000000         -3.6608460707299173E-009
  0.10139999999999999         -3.9711829380451036E-009
  0.10249999999999998         -4.3105146119160054E-009
  0.10360000000000003         -4.6823420696284757E-009
  0.10470000000000002         -5.0874930934696749E-009
  0.10580000000000001         -5.5246127672603507E-009
  0.10690000000000000         -5.9918026096283938E-009
  0.10799999999999998         -6.4885101735967510E-009
  0.10910000000000003         -7.0167009980082184E-009
  0.11020000000000002         -7.5807564670071770E-009
  0.11130000000000001         -8.1862712164593177E-009
  0.11240000000000000         -8.8384695118293166E-009
  0.11349999999999999         -9.5411163414382827E-009
  0.11460000000000004         -1.0296397512377098E-008
  0.11570000000000003         -1.1105658614951608E-008
  0.11680000000000001         -1.1970443303255252E-008
  0.11790000000000000         -1.2893196732477463E-008
  0.11899999999999999         -1.3877310856003078E-008
  0.12009999999999998         -1.4926643032708853E-008
  0.12120000000000003         -1.6044987560803747E-008
  0.12230000000000002         -1.7235915805713375E-008
  0.12340000000000001         -1.8503119036950011E-008
  0.12450000000000000         -1.9850943999699666E-008
  0.12559999999999999         -2.1284687790057433E-008
  0.12670000000000003         -2.2810326072431053E-008
  0.12780000000000002         -2.4433770562382051E-008
  0.12890000000000001         -2.6160041244338572E-008
  0.13000000000000000         -2.7992895113015948E-008
  0.13109999999999999         -2.9935208090137166E-008
  0.13219999999999998         -3.1989955573408224E-008
  0.13330000000000003         -3.4161274697908084E-008
  0.13440000000000002         -3.6455109153621379E-008
  0.13550000000000001         -3.8879004904401882E-008
  0.13660000000000000         -4.1441293063826379E-008
  0.13769999999999999         -4.4149981448526887E-008
  0.13880000000000003         -4.7011944559471885E-008
  0.13990000000000002         -5.0032706866431909E-008
  0.14100000000000001         -5.3216908213471470E-008
  0.14210000000000000         -5.6569099626813113E-008
  0.14319999999999999         -6.0094535569987784E-008
  0.14429999999999998         -6.3799568295053177E-008
  0.14540000000000003         -6.7691658500734775E-008
  0.14650000000000002         -7.1778963217639102E-008
  0.14760000000000001         -7.6069802901201911E-008
  0.14870000000000000         -8.0572263527756149E-008
  0.14979999999999999         -8.5293912377437664E-008
  0.15090000000000003         -9.0241726979911618E-008
  0.15200000000000002         -9.5422201695782860E-008
  0.15310000000000001         -1.0084163193369022E-007
  0.15420000000000000         -1.0650634152398197E-007
  0.15529999999999999         -1.1242300246294690E-007
  0.15639999999999998         -1.1859875570507938E-007
  0.15750000000000003         -1.2504116853051528E-007
  0.15860000000000002         -1.3175811375276680E-007
  0.15970000000000001         -1.3875741444735468E-007
  0.16080000000000000         -1.4604677289753454E-007
  0.16189999999999999         -1.5363353611519415E-007
  0.16300000000000003         -1.6152463899743452E-007
  0.16410000000000002         -1.6972654748315108E-007
  0.16520000000000001         -1.7824538645072607E-007
  0.16630000000000000         -1.8708692550717387E-007
  0.16739999999999999         -1.9625663583155983E-007
  0.16850000000000004         -2.0575974701841915E-007
  0.16960000000000003         -2.1560133234288514E-007
  0.17070000000000002         -2.2578664982120245E-007
  0.17180000000000001         -2.3632127010841941E-007
  0.17290000000000000         -2.4721094860069570E-007
  0.17399999999999999         -2.5846134121820796E-007
  0.17510000000000003         -2.7007757807950838E-007
  0.17620000000000002         -2.8206372348904551E-007
  0.17730000000000001         -2.9442279014801898E-007
  0.17840000000000000         -3.0715679599779833E-007
  0.17949999999999999         -3.2026710528043623E-007
  0.18060000000000004         -3.3375505381627590E-007
  0.18170000000000003         -3.4762209111249831E-007
  0.18280000000000002         -3.6186995089337870E-007
  0.18390000000000001         -3.7650039530490176E-007
  0.18500000000000000         -3.9151481701082957E-007
  0.18609999999999999         -4.0691412550586392E-007
  0.18720000000000003         -4.2269832079000480E-007
  0.18830000000000002         -4.3886629441658442E-007
  0.18940000000000001         -4.5541554527517292E-007
  0.19050000000000000         -4.7234246380867262E-007
  0.19159999999999999         -4.8964284360408783E-007
  0.19270000000000004         -5.0731239298329456E-007
  0.19380000000000003         -5.2534699079842540E-007
  0.19490000000000002         -5.4374282854041667E-007
  0.19600000000000001         -5.6249621138704242E-007
  0.19710000000000000         -5.8160293292530696E-007
  0.19819999999999999         -6.0105799093435053E-007
  0.19930000000000003         -6.2085513263809844E-007
  0.20040000000000002         -6.4098651364474790E-007
  0.20150000000000001         -6.6144286847702460E-007
  0.20260000000000000         -6.8221396531953360E-007
  0.20369999999999999         -7.0328974288713653E-007
  0.20480000000000004         -7.2466093570255907E-007
  0.20590000000000003         -7.4631884672271553E-007
  0.20700000000000002         -7.6825472206110135E-007
  0.20810000000000001         -7.9045878464967245E-007
  0.20920000000000000         -8.1291989317833213E-007
  0.21029999999999999         -8.3562576946860645E-007
  0.21140000000000003         -8.5856356690783286E-007
  0.21250000000000002         -8.8172032519651111E-007
  0.21360000000000001         -9.0508291350488435E-007
  0.21470000000000000         -9.2863808731635800E-007
  0.21579999999999999         -9.5237265895775636E-007
  0.21690000000000004         -9.7627309969539056E-007
  0.21800000000000003         -1.0003257102653151E-006
  0.21910000000000002         -1.0245158819088829E-006
  0.22020000000000001         -1.0488283805898391E-006
  0.22130000000000000         -1.0732481996456045E-006
  0.22239999999999999         -1.0977607871609507E-006
  0.22350000000000003         -1.1223526144021889E-006
  0.22460000000000002         -1.1470103800093057E-006
  0.22570000000000001         -1.1717198731275857E-006
  0.22680000000000000         -1.1964665418418008E-006
  0.22789999999999999         -1.2212341289341566E-006
  0.22900000000000004         -1.2460062635000213E-006
  0.23010000000000003         -1.2707665746347629E-006
  0.23120000000000002         -1.2955002830494777E-006
  0.23230000000000001         -1.3201934052631259E-006
  0.23340000000000000         -1.3448332083498826E-006
  0.23450000000000004         -1.3694075278181117E-006
  0.23560000000000003         -1.3939040854893392E-006
  0.23670000000000002         -1.4183102621245780E-006
  0.23780000000000001         -1.4426127563638147E-006
  0.23890000000000000         -1.4667975847260095E-006
  0.23999999999999999         -1.4908511047906359E-006
  0.24110000000000004         -1.5147603562581935E-006
  0.24220000000000003         -1.5385131746370462E-006
  0.24330000000000002         -1.5620988733644481E-006
  0.24440000000000001         -1.5855081301197060E-006
  0.24550000000000000         -1.6087328731373418E-006
  0.24660000000000004         -1.6317645759045263E-006
  0.24770000000000003         -1.6545949392821058E-006
  0.24880000000000002         -1.6772149820099003E-006
  0.24990000000000001         -1.6996160638882429E-006
  0.25100000000000000         -1.7217901131516555E-006
  0.25209999999999999         -1.7437304222767125E-006
  0.25320000000000004         -1.7654308521741768E-006
  0.25430000000000003         -1.7868857185021625E-006
  0.25540000000000002         -1.8080899053529720E-006
  0.25650000000000001         -1.8290396610609605E-006
  0.25760000000000000         -1.8497321434551850E-006
  0.25870000000000004         -1.8701647377383779E-006
  0.25980000000000003         -1.8903347154264338E-006
  0.26090000000000002         -1.9102396890957607E-006
  0.26200000000000001         -1.9298781808174681E-006
  0.26310000000000000         -1.9492492810968542E-006
  0.26419999999999999         -1.9683538994286209E-006
  0.26530000000000004         -1.9871934000548208E-006
  0.26640000000000003         -2.0057677829754539E-006
  0.26750000000000002         -2.0240772755641956E-006
  0.26860000000000001         -2.0421221051947214E-006
  0.26970000000000000         -2.0599040908564348E-006
  0.27080000000000004         -2.0774273252754938E-006
  0.27190000000000003         -2.0946972654201090E-006
  0.27300000000000002         -2.1117182313901139E-006
  0.27410000000000001         -2.1284943159116665E-006
  0.27520000000000000         -2.1450293843372492E-006
  0.27629999999999999         -2.1613284388877219E-006
  0.27740000000000004         -2.1773967091576196E-006
  0.27850000000000003         -2.1932394247414777E-006
  0.27960000000000002         -2.2088611331128050E-006
  0.28070000000000001         -2.2242652448767330E-006
  0.28179999999999999         -2.2394576717488235E-006
  0.28290000000000004         -2.2544454623130150E-006
  0.28400000000000003         -2.2692370293952990E-006
  0.28510000000000002         -2.2838414679426933E-006
  0.28620000000000001         -2.2982671907811891E-006
  0.28730000000000000         -2.3125207917473745E-006
  0.28840000000000005         -2.3266084099304862E-006
  0.28950000000000004         -2.3405352749250596E-006
  0.29060000000000002         -2.3543077531940071E-006
  0.29170000000000001         -2.3679319838265656E-006
  0.29280000000000000         -2.3814138785382966E-006
  0.29389999999999999         -2.3947609406604897E-006
  0.29500000000000004         -2.4079806735244347E-006
  0.29610000000000003         -2.4210819447034737E-006
  0.29720000000000002         -2.4340736217709491E-006
  0.29830000000000001         -2.4469625259371242E-006
  0.29940000000000000         -2.4597534320491832E-006
  0.30050000000000004         -2.4724506602069596E-006
  0.30160000000000003         -2.4850592126313131E-006
  0.30270000000000002         -2.4975854557851562E-006
  0.30380000000000001         -2.5100355287577258E-006
  0.30490000000000000         -2.5224155706382589E-006
  0.30599999999999999         -2.5347299015265889E-006
  0.30709999999999998         -2.5469817046541721E-006
  0.30819999999999997         -2.5591753001208417E-006
  0.30930000000000007         -2.5713163722684840E-006
  0.31040000000000006         -2.5834119696810376E-006
  0.31150000000000005         -2.5954661850846605E-006
  0.31260000000000004         -2.6074808374687564E-006
  0.31370000000000003         -2.6194563815806760E-006
  0.31480000000000002         -2.6313946364098229E-006
  0.31590000000000001         -2.6432992399350042E-006
  0.31700000000000000         -2.6551733753876761E-006
  0.31809999999999999         -2.6670193165045930E-006
  0.31919999999999998         -2.6788356990437023E-006
  0.32029999999999997         -2.6906211587629514E-006
  0.32140000000000007         -2.7023756956623401E-006
  0.32250000000000006         -2.7141020382259740E-006
  0.32360000000000005         -2.7258047339273617E-006
  0.32470000000000004         -2.7374844648875296E-006
  0.32580000000000003         -2.7491387299960479E-006
  0.32690000000000002         -2.7607625270320568E-006
  0.32800000000000001         -2.7723510811483720E-006
  0.32910000000000000         -2.7839028007292654E-006
  0.33019999999999999         -2.7954190500167897E-006
  0.33129999999999998         -2.8068993742635939E-006
  0.33239999999999997         -2.8183399081171956E-006
  0.33350000000000007         -2.8297354219830595E-006
  0.33460000000000006         -2.8410811410140013E-006
  0.33570000000000005         -2.8523754735942930E-006
  0.33680000000000004         -2.8636177376029082E-006
  0.33790000000000003         -2.8748045224347152E-006
  0.33900000000000002         -2.8859290068794508E-006
  0.34010000000000001         -2.8969818686164217E-006
  0.34120000000000000         -2.9079576506774174E-006
  0.34229999999999999         -2.9188538519520080E-006
  0.34339999999999998         -2.9296693355718162E-006
  0.34449999999999997         -2.9404000088106841E-006
  0.34560000000000007         -2.9510370040952694E-006
  0.34670000000000006         -2.9615700896101771E-006
  0.34780000000000005         -2.9719908525294159E-006
  0.34890000000000004         -2.9822949727531523E-006
