 -0.20000000000000001          0.0000000000000000
 -0.19890000000000002          0.0000000000000000
 -0.19780000000000000          0.0000000000000000
 -0.19670000000000001          0.0000000000000000
 -0.19560000000000002          0.0000000000000000
 -0.19450000000000001          0.0000000000000000
 -0.19340000000000002          0.0000000000000000
 -0.19230000000000000          0.0000000000000000
 -0.19120000000000001          0.0000000000000000
 -0.19010000000000002          0.0000000000000000
 -0.18900000000000000          1.0132416562245119E-036
 -0.18790000000000001         -1.4439102780350877E-035
 -0.18680000000000002          6.2489100610495296E-034
 -0.18570000000000000          1.5939486665379286E-033
 -0.18460000000000001         -5.9187514422924700E-033
 -0.18350000000000000          3.4927875069005417E-032
 -0.18240000000000001          3.8204457426442267E-031
 -0.18130000000000002          3.5269403197693324E-031
 -0.18020000000000000         -4.4083189780695527E-030
 -0.17910000000000001         -1.1953737846619249E-029
 -0.17800000000000002          2.5198604081628010E-029
 -0.17690000000000000          1.6438714855006490E-028
 -0.17580000000000001          1.0456369595038983E-028
 -0.17470000000000002         -1.1144643031124538E-027
 -0.17360000000000000         -3.0791702469245018E-027
 -0.17250000000000001          1.2438221804256419E-027
 -0.17140000000000000          2.2268306136992889E-026
 -0.17030000000000001          3.9051936652408163E-026
 -0.16920000000000002         -4.3711553130274019E-026
 -0.16810000000000000         -2.9782782805611178E-025
 -0.16700000000000001         -3.9634437707799181E-025
 -0.16589999999999999          6.0680699386842779E-025
 -0.16480000000000000          3.0476053490642034E-024
 -0.16370000000000001          3.5607264329676786E-024
 -0.16260000000000002         -5.5205685215942342E-024
 -0.16150000000000000         -2.5393981586254404E-023
 -0.16040000000000001         -2.9452241803284069E-023
 -0.15930000000000000          3.6097899525122615E-023
 -0.15820000000000001          1.7737753286238119E-022
 -0.15710000000000002          2.2251496741232603E-022
 -0.15600000000000000         -1.6481290977370645E-022
 -0.15490000000000001         -1.0493063749273794E-021
 -0.15379999999999999         -1.4993373597249961E-021
 -0.15270000000000000          3.7584675770612243E-022
 -0.15160000000000001          5.2418285975675479E-021
 -0.15050000000000002          8.8363407377263792E-021
 -0.14940000000000001          1.6212559262228738E-021
 -0.14830000000000002         -2.1727606464305796E-020
 -0.14720000000000000         -4.4988094925945993E-020
 -0.14610000000000001         -2.5300067051777344E-020
 -0.14500000000000002          7.1245828716319471E-020
 -0.14390000000000000          1.9588668296081972E-019
 -0.14280000000000001          1.7885101456756376E-019
 -0.14169999999999999         -1.5795052570791277E-019
 -0.14060000000000000         -7.1890391114075518E-019
 -0.13950000000000001         -9.2012955381711600E-019
 -0.13840000000000002          2.6997483674001638E-020
 -0.13730000000000001          2.1569865641807863E-018
 -0.13619999999999999          3.7718178617886981E-018
 -0.13510000000000000          1.8948346232941025E-018
 -0.13400000000000001         -4.8785429215831027E-018
 -0.13290000000000002         -1.2612018663692950E-017
 -0.13180000000000000         -1.1721872235731773E-017
 -0.13070000000000001          5.8170533591893361E-018
 -0.12959999999999999          3.4027331811899874E-017
 -0.12850000000000000          4.6895294219187144E-017
 -0.12740000000000001          1.2914900771146592E-017
 -0.12630000000000002         -6.9632255870615982E-017
 -0.12520000000000001         -1.4328096992354445E-016
 -0.12410000000000000         -1.1028073173463941E-016
 -0.12300000000000001          8.2507408131787563E-017
 -0.12190000000000001          3.4222571582753010E-016
 -0.12080000000000000          4.2159521761432020E-016
 -0.11970000000000000          8.6342217451583400E-017
 -0.11860000000000001         -6.0470354436886384E-016
 -0.11750000000000001         -1.1486191340033124E-015
 -0.11640000000000000         -8.4199394825108451E-016
 -0.11530000000000000          5.8127482480604671E-016
 -0.11420000000000001          2.3628255114201829E-015
 -0.11310000000000001          2.8630427242453413E-015
 -0.11200000000000000          7.4346972280442446E-016
 -0.11090000000000001         -3.4409815627281862E-015
 -0.10980000000000001         -6.6855831953166727E-015
 -0.10870000000000000         -5.1993855388113817E-015
 -0.10760000000000000          2.1914112421260934E-015
 -0.10650000000000001          1.1448408376629662E-014
 -0.10540000000000001          1.4595961632802960E-014
 -0.10430000000000000          5.5558398729055672E-015
 -0.10320000000000000         -1.3019795948288580E-014
 -0.10210000000000001         -2.8179508829466113E-014
 -0.10100000000000001         -2.4327619725563604E-014
  -9.9900000000000003E-002     3.2015228074405537E-015
  -9.8799999999999999E-002     3.9140819898348875E-014
  -9.7700000000000009E-002     5.4343424833909471E-014
  -9.6600000000000005E-002     2.7222234544126665E-014
  -9.5500000000000002E-002    -3.3584808924787962E-014
  -9.4400000000000012E-002    -8.6023344751749026E-014
  -9.3300000000000008E-002    -8.0951399555016790E-014
  -9.2200000000000004E-002    -4.0788930867337141E-015
  -9.1100000000000000E-002     9.9684149823531243E-014
  -9.0000000000000011E-002     1.4756472682241756E-013
  -8.8900000000000007E-002     8.1200129085912121E-014
  -8.7800000000000003E-002    -7.3886399385922341E-014
  -8.6699999999999999E-002    -2.0630131175418398E-013
  -8.5600000000000009E-002    -1.9322170003322620E-013
  -8.4500000000000006E-002    -6.5487158000510602E-015
  -8.3400000000000002E-002     2.3548754634651614E-013
  -8.2299999999999998E-002     3.3288714666734887E-013
  -8.1200000000000008E-002     1.5918273914717479E-013
  -8.0100000000000005E-002    -2.0601349673497055E-013
  -7.9000000000000001E-002    -4.9109913184686160E-013
  -7.7899999999999997E-002    -4.2001740085083339E-013
  -7.6800000000000007E-002     4.6047831482121451E-014
  -7.5700000000000003E-002     6.1054834148491222E-013
  -7.4600000000000000E-002     8.0966792515360653E-013
  -7.3500000000000010E-002     3.6867573880924875E-013
  -7.2399999999999992E-002    -5.1333893733018776E-013
  -7.1300000000000002E-002    -1.2116938312087266E-012
  -7.0200000000000012E-002    -1.0965231543938470E-012
  -6.9099999999999995E-002    -5.7919862211496670E-014
  -6.8000000000000005E-002     1.2808818675852374E-012
  -6.6900000000000015E-002     1.9100034054364556E-012
  -6.5799999999999997E-002     1.1735865100906406E-012
  -6.4700000000000008E-002    -6.2334501709643275E-013
  -6.3599999999999990E-002    -2.2682582808547513E-012
  -6.2500000000000000E-002    -2.4430063007285785E-012
  -6.1400000000000010E-002    -7.6432003087711919E-013
  -6.0299999999999992E-002     1.7413174851696467E-012
  -5.9200000000000003E-002     3.2208582589204893E-012
  -5.8100000000000013E-002     2.3522169455281183E-012
  -5.6999999999999995E-002    -4.9525802296029875E-013
  -5.5900000000000005E-002    -3.2837198672003298E-012
  -5.4800000000000015E-002    -3.7040761083351192E-012
  -5.3699999999999998E-002    -1.0395851931035982E-012
  -5.2600000000000008E-002     2.9620166996230379E-012
  -5.1499999999999990E-002     5.1101189252333867E-012
  -5.0400000000000000E-002     3.1839535348521242E-012
  -4.9300000000000010E-002    -2.0131769515319142E-012
  -4.8199999999999993E-002    -6.7345053145206890E-012
  -4.7100000000000003E-002    -6.8413061674044151E-012
  -4.6000000000000013E-002    -1.1771090829490460E-012
  -4.4899999999999995E-002     6.8702929630071186E-012
  -4.3800000000000006E-002     1.1247301701100554E-011
  -4.2699999999999988E-002     7.6527395531655884E-012
  -4.1599999999999998E-002    -2.6471472583389222E-012
  -4.0500000000000008E-002    -1.2815770146501482E-011
  -3.9399999999999991E-002    -1.4924013413963877E-011
  -3.8300000000000001E-002    -6.0621659601911571E-012
  -3.7200000000000011E-002     8.5521954101830389E-012
  -3.6099999999999993E-002     1.8440979646094924E-011
  -3.5000000000000003E-002     1.5348779539015034E-011
  -3.3900000000000013E-002     7.5157402816463520E-014
  -3.2799999999999996E-002    -1.6885257081433735E-011
  -3.1700000000000006E-002    -2.2307928074227767E-011
  -3.0599999999999988E-002    -1.0356982632631073E-011
  -2.9499999999999998E-002     1.1747229057557096E-011
  -2.8400000000000009E-002     2.7646196096298148E-011
  -2.7299999999999991E-002     2.3571715759840295E-011
  -2.6200000000000001E-002    -3.4494583296511283E-013
  -2.5100000000000011E-002    -2.8209190192085565E-011
  -2.3999999999999994E-002    -3.8708133920373200E-011
  -2.2900000000000004E-002    -2.1133535893502753E-011
  -2.1800000000000014E-002     1.4807237033731546E-011
  -2.0699999999999996E-002     4.3942103428173951E-011
  -1.9600000000000006E-002     4.3362750890008073E-011
  -1.8499999999999989E-002     1.0609312907361446E-011
  -1.7399999999999999E-002    -3.1961475133179817E-011
  -1.6300000000000009E-002    -5.1841642090266760E-011
  -1.5199999999999991E-002    -3.0946942924936494E-011
  -1.4100000000000001E-002     1.8034273727152161E-011
  -1.3000000000000012E-002     5.7564696065437460E-011
  -1.1899999999999994E-002     5.1841513720729537E-011
  -1.0800000000000004E-002    -4.0130052059161869E-012
  -9.6999999999999864E-003    -7.4687339646217765E-011
  -8.5999999999999965E-003    -1.0541956196874480E-010
  -7.5000000000000067E-003    -6.1003223306155263E-011
  -6.3999999999999890E-003     4.4135996940530831E-011
  -5.2999999999999992E-003     1.4851991858577662E-010
  -4.2000000000000093E-003     1.8079018837546812E-010
  -3.0999999999999917E-003     1.0798929112043609E-010
  -2.0000000000000018E-003    -3.8721567618971164E-011
  -9.0000000000001190E-004    -1.8059558015703914E-010
   2.0000000000000573E-004    -2.4031887591036138E-010
   1.2999999999999956E-003    -1.8993892569874049E-010
   2.4000000000000132E-003    -6.4212850314770975E-011
   3.5000000000000031E-003     6.9013468551037960E-011
   4.5999999999999930E-003     1.5772452788276325E-010
   5.7000000000000106E-003     1.9575323306764147E-010
   6.8000000000000005E-003     2.1089444079969155E-010
   7.8999999999999904E-003     2.2247996500635026E-010
   9.0000000000000080E-003     2.0674041645296626E-010
   1.0099999999999998E-002     1.0515515541653642E-010
   1.1199999999999988E-002    -1.2251687164788194E-010
   1.2300000000000005E-002    -4.3842129926474627E-010
   1.3399999999999995E-002    -7.1179356853079412E-010
   1.4500000000000013E-002    -7.7448775170907425E-010
   1.5600000000000003E-002    -5.2124576876977358E-010
   1.6699999999999993E-002     9.4794155164334981E-012
   1.7800000000000010E-002     6.3342836531532498E-010
   1.8900000000000000E-002     1.1072908145948190E-009
   1.9999999999999990E-002     1.2538119431582118E-009
   2.1100000000000008E-002     1.0465553978988851E-009
   2.2199999999999998E-002     6.0220778363984095E-010
   2.3300000000000015E-002     9.2153812358830578E-011
   2.4400000000000005E-002    -3.6012132165197386E-010
   2.5499999999999995E-002    -7.2449068966307095E-010
   2.6600000000000013E-002    -1.0304084252510393E-009
   2.7700000000000002E-002    -1.2968820461978225E-009
   2.8799999999999992E-002    -1.4978999152148731E-009
   2.9900000000000010E-002    -1.6019886528439997E-009
   3.1000000000000000E-002    -1.6537605729283200E-009
   3.2099999999999990E-002    -1.8145855928963783E-009
   3.3200000000000007E-002    -2.2963690948785143E-009
   3.4299999999999997E-002    -3.2035079033931879E-009
   3.5400000000000015E-002    -4.3856669407205118E-009
   3.6500000000000005E-002    -5.4259303716719387E-009
   3.7599999999999995E-002    -5.8149982606892081E-009
   3.8700000000000012E-002    -5.2340416445417759E-009
   3.9800000000000002E-002    -3.7765208737994271E-009
   4.0899999999999992E-002    -1.9571195775114347E-009
   4.2000000000000010E-002    -4.8375137229328402E-010
   4.3099999999999999E-002     7.6045864050300338E-011
   4.4200000000000017E-002    -4.6976295076106567E-010
   4.5300000000000007E-002    -1.9377577320511818E-009
   4.6399999999999997E-002    -3.9760177372727412E-009
   4.7500000000000014E-002    -6.3047438381147458E-009
   4.8600000000000004E-002    -8.8015434940302839E-009
   4.9699999999999994E-002    -1.1373375130574459E-008
   5.0800000000000012E-002    -1.3741120241661520E-008
   5.1900000000000002E-002    -1.5358398997022960E-008
   5.2999999999999992E-002    -1.5608945247436168E-008
   5.4099999999999981E-002    -1.4218068500326808E-008
   5.5200000000000027E-002    -1.1619817108510233E-008
   5.6300000000000017E-002    -8.9924263591001363E-009
   5.7400000000000007E-002    -7.8529298619400834E-009
   5.8499999999999996E-002    -9.3817842383714378E-009
   5.9599999999999986E-002    -1.3842929469376486E-008
   6.0700000000000032E-002    -2.0434461234231094E-008
   6.1800000000000022E-002    -2.7659051937689583E-008
   6.2900000000000011E-002    -3.3998517778854875E-008
   6.4000000000000001E-002    -3.8513125133476933E-008
   6.5099999999999991E-002    -4.1066677169965260E-008
   6.6199999999999981E-002    -4.2139809863783739E-008
   6.7300000000000026E-002    -4.2449915582665199E-008
   6.8400000000000016E-002    -4.2671633337931780E-008
   6.9500000000000006E-002    -4.3408476813056041E-008
   7.0599999999999996E-002    -4.5324810571401031E-008
   7.1699999999999986E-002    -4.9199055496274013E-008
   7.2800000000000031E-002    -5.5722445324590808E-008
   7.3900000000000021E-002    -6.5096337209524791E-008
   7.5000000000000011E-002    -7.6698903228589188E-008
   7.6100000000000001E-002    -8.9121492408139602E-008
   7.7199999999999991E-002    -1.0067058298091069E-007
   7.8299999999999981E-002    -1.1012206613258968E-007
   7.9400000000000026E-002    -1.1731700055861438E-007
   8.0500000000000016E-002    -1.2325004661306593E-007
   8.1600000000000006E-002    -1.2959372952536796E-007
   8.2699999999999996E-002    -1.3793503228498594E-007
   8.3799999999999986E-002    -1.4915606527665659E-007
   8.4900000000000031E-002    -1.6327203411492519E-007
   8.6000000000000021E-002    -1.7973484034428111E-007
   8.7100000000000011E-002    -1.9793191086137085E-007
   8.8200000000000001E-002    -2.1753677970082208E-007
   8.9299999999999990E-002    -2.3852740582697152E-007
   9.0399999999999980E-002    -2.6094582494806673E-007
   9.1500000000000026E-002    -2.8464327783694898E-007
   9.2600000000000016E-002    -3.0923186500331212E-007
   9.3700000000000006E-002    -3.3428682399971876E-007
   9.4799999999999995E-002    -3.5965857136943669E-007
   9.5899999999999985E-002    -3.8568887816836650E-007
   9.7000000000000031E-002    -4.1320924992760411E-007
   9.8100000000000021E-002    -4.4334203153084673E-007
   9.9200000000000010E-002    -4.7721601958983229E-007
  0.10030000000000000         -5.1570282266766299E-007
  0.10139999999999999         -5.5921725561347557E-007
  0.10249999999999998         -6.0758139852623572E-007
  0.10360000000000003         -6.5998165155178867E-007
  0.10470000000000002         -7.1509538202008116E-007
  0.10580000000000001         -7.7145728027971927E-007
  0.10690000000000000         -8.2803063605751959E-007
  0.10799999999999998         -8.8478532234148588E-007
  0.10910000000000003         -9.4298553676708252E-007
  0.11020000000000002         -1.0049511729448568E-006
  0.11130000000000001         -1.0733039061960881E-006
  0.11240000000000000         -1.1499944321258226E-006
  0.11349999999999999         -1.2355587841739180E-006
  0.11460000000000004         -1.3289763955981471E-006
  0.11570000000000003         -1.4281973790275515E-006
  0.11680000000000001         -1.5310720300476532E-006
  0.11790000000000000         -1.6362381529688719E-006
  0.11899999999999999         -1.7435842210034025E-006
  0.12009999999999998         -1.8541749113865080E-006
  0.12120000000000003         -1.9698090909514576E-006
  0.12230000000000002         -2.0924996988469502E-006
  0.12340000000000001         -2.2240481030166848E-006
  0.12450000000000000         -2.3657639758312143E-006
  0.12559999999999999         -2.5182630452036392E-006
  0.12670000000000003         -2.6812876967596821E-006
  0.12780000000000002         -2.8536621812236262E-006
  0.12890000000000001         -3.0335404517245479E-006
  0.13000000000000000         -3.2190289402933558E-006
  0.13109999999999999         -3.4090041935996851E-006
  0.13219999999999998         -3.6037570225744275E-006
  0.13330000000000003         -3.8050914099585498E-006
  0.13440000000000002         -4.0157615330826957E-006
  0.13550000000000001         -4.2384795051475521E-006
  0.13660000000000000         -4.4749745029548649E-006
  0.13769999999999999         -4.7255225581466220E-006
  0.13880000000000003         -4.9891032176674344E-006
  0.13990000000000002         -5.2640261856140569E-006
  0.14100000000000001         -5.5486721066699829E-006
  0.14210000000000000         -5.8420432651473675E-006
  0.14319999999999999         -6.1439532146323472E-006
  0.14429999999999998         -6.4549458329565823E-006
  0.14540000000000003         -6.7760179263132159E-006
  0.14650000000000002         -7.1083095463109203E-006
  0.14760000000000001         -7.4529034463921562E-006
  0.14870000000000000         -7.8106713772285730E-006
  0.14979999999999999         -8.1821126514114439E-006
  0.15090000000000003         -8.5672245404566638E-006
  0.15200000000000002         -8.9654913608683273E-006
  0.15310000000000001         -9.3759972514817491E-006
  0.15420000000000000         -9.7976526376442052E-006
  0.15529999999999999         -1.0229533472738694E-005
  0.15639999999999998         -1.0671197742340155E-005
  0.15750000000000003         -1.1122845535282977E-005
  0.15860000000000002         -1.1585269021452405E-005
  0.15970000000000001         -1.2059567779942881E-005
  0.16080000000000000         -1.2546765901788604E-005
  0.16189999999999999         -1.3047331776760984E-005
  0.16300000000000003         -1.3560857041738927E-005
  0.16410000000000002         -1.4086129340284970E-005
  0.16520000000000001         -1.4621407899539918E-005
  0.16630000000000000         -1.5164941942202859E-005
  0.16739999999999999         -1.5715546396677382E-005
  0.16850000000000004         -1.6272873835987411E-005
  0.16960000000000003         -1.6837408111314289E-005
  0.17070000000000002         -1.7410116925020702E-005
  0.17180000000000001         -1.7991822460317053E-005
  0.17290000000000000         -1.8582612028694712E-005
  0.17399999999999999         -1.9181650714017451E-005
  0.17510000000000003         -1.9787397832260467E-005
  0.17620000000000002         -2.0398041669977829E-005
  0.17730000000000001         -2.1012032448197715E-005
  0.17840000000000000         -2.1628344256896526E-005
  0.17949999999999999         -2.2246491425903514E-005
  0.18060000000000004         -2.2866313884151168E-005
  0.18170000000000003         -2.3487731596105732E-005
  0.18280000000000002         -2.4110604499583133E-005
  0.18390000000000001         -2.4734577891649678E-005
  0.18500000000000000         -2.5359015126014128E-005
  0.18609999999999999         -2.5982792067225091E-005
  0.18720000000000003         -2.6604086087900214E-005
  0.18830000000000002         -2.7220679839956574E-005
  0.18940000000000001         -2.7830541512230411E-005
  0.19050000000000000         -2.8432439648895524E-005
  0.19159999999999999         -2.9026285119471140E-005
  0.19270000000000004         -2.9612705475301482E-005
  0.19380000000000003         -3.0192028134479187E-005
  0.19490000000000002         -3.0763767426833510E-005
  0.19600000000000001         -3.1326515454566106E-005
  0.19710000000000000         -3.1878524168860167E-005
  0.19819999999999999         -3.2418167393188924E-005
  0.19930000000000003         -3.2943942642305046E-005
  0.20040000000000002         -3.3454747608629987E-005
  0.20150000000000001         -3.3949625503737479E-005
  0.20260000000000000         -3.4427670470904559E-005
  0.20369999999999999         -3.4888154914369807E-005
  0.20480000000000004         -3.5330671380506828E-005
  0.20590000000000003         -3.5755307180806994E-005
  0.20700000000000002         -3.6161909520160407E-005
  0.20810000000000001         -3.6549710785038769E-005
  0.20920000000000000         -3.6917517718393356E-005
  0.21029999999999999         -3.7263940612319857E-005
  0.21140000000000003         -3.7587808037642390E-005
  0.21250000000000002         -3.7888083170400932E-005
  0.21360000000000001         -3.8163856515893713E-005
  0.21470000000000000         -3.8414262235164642E-005
  0.21579999999999999         -3.8639143895125017E-005
  0.21690000000000004         -3.8839374610688537E-005
  0.21800000000000003         -3.9016162190819159E-005
  0.21910000000000002         -3.9169957744888961E-005
  0.22020000000000001         -3.9300000935327262E-005
  0.22130000000000000         -3.9404847484547645E-005
  0.22239999999999999         -3.9483365981141105E-005
  0.22350000000000003         -3.9535389078082517E-005
  0.22460000000000002         -3.9561371522722766E-005
  0.22570000000000001         -3.9561538869747892E-005
  0.22680000000000000         -3.9535068935947493E-005
  0.22789999999999999         -3.9481015846831724E-005
  0.22900000000000004         -3.9399754314217716E-005
  0.23010000000000003         -3.9293488953262568E-005
  0.23120000000000002         -3.9164882764453068E-005
  0.23230000000000001         -3.9015412767184898E-005
  0.23340000000000000         -3.8844802475068718E-005
  0.23450000000000004         -3.8651578506687656E-005
  0.23560000000000003         -3.8434402085840702E-005
  0.23670000000000002         -3.8193113141460344E-005
  0.23780000000000001         -3.7928781239315867E-005
  0.23890000000000000         -3.7642574170604348E-005
  0.23999999999999999         -3.7335710658226162E-005
  0.24110000000000004         -3.7009474908700213E-005
  0.24220000000000003         -3.6665380321210250E-005
  0.24330000000000002         -3.6305420508142561E-005
  0.24440000000000001         -3.5931498132413253E-005
  0.24550000000000000         -3.5544817365007475E-005
  0.24660000000000004         -3.5145400033798069E-005
  0.24770000000000003         -3.4732525818981230E-005
  0.24880000000000002         -3.4305612643947825E-005
  0.24990000000000001         -3.3864849683595821E-005
  0.25100000000000000         -3.3411401091143489E-005
  0.25209999999999999         -3.2947220461210236E-005
  0.25320000000000004         -3.2474450563313439E-005
  0.25430000000000003         -3.1995296012610197E-005
  0.25540000000000002         -3.1512121495325118E-005
  0.25650000000000001         -3.1026764190755785E-005
  0.25760000000000000         -3.0540406442014500E-005
  0.25870000000000004         -3.0053297450649552E-005
  0.25980000000000003         -2.9564902433776297E-005
  0.26090000000000002         -2.9074801204842515E-005
  0.26200000000000001         -2.8583621315192431E-005
  0.26310000000000000         -2.8092686989111826E-005
  0.26419999999999999         -2.7603429771261290E-005
  0.26530000000000004         -2.7117057470604777E-005
  0.26640000000000003         -2.6634641471900977E-005
  0.26750000000000002         -2.6158128093811683E-005
  0.26860000000000001         -2.5690305847092532E-005
  0.26970000000000000         -2.5233242922695354E-005
  0.27080000000000004         -2.4786730136838742E-005
  0.27190000000000003         -2.4349428713321686E-005
  0.27300000000000002         -2.3920611056382768E-005
  0.27410000000000001         -2.3501228497480042E-005
  0.27520000000000000         -2.3093383788364008E-005
  0.27629999999999999         -2.2698299289913848E-005
  0.27740000000000004         -2.2315463866107166E-005
  0.27850000000000003         -2.1943680621916428E-005
  0.27960000000000002         -2.1582822228083387E-005
  0.28070000000000001         -2.1235520762274973E-005
  0.28179999999999999         -2.0906294594169594E-005
  0.28290000000000004         -2.0597526599885896E-005
  0.28400000000000003         -2.0307377781136893E-005
  0.28510000000000002         -2.0032372049172409E-005
  0.28620000000000001         -1.9770026483456604E-005
  0.28730000000000000         -1.9520639398251660E-005
  0.28840000000000005         -1.9286917449790053E-005
  0.28950000000000004         -1.9070859707426280E-005
  0.29060000000000002         -1.8872908185585402E-005
  0.29170000000000001         -1.8692484445637092E-005
  0.29280000000000000         -1.8528564396547154E-005
  0.29389999999999999         -1.8380886103841476E-005
  0.29500000000000004         -1.8250051653012633E-005
  0.29610000000000003         -1.8135793652618304E-005
  0.29720000000000002         -1.8037255358649418E-005
  0.29830000000000001         -1.7954353097593412E-005
  0.29940000000000000         -1.7888172806124203E-005
  0.30050000000000004         -1.7839873180491850E-005
  0.30160000000000003         -1.7808953998610377E-005
  0.30270000000000002         -1.7793010556488298E-005
  0.30380000000000001         -1.7789376215660013E-005
  0.30490000000000000         -1.7796310203266330E-005
  0.30599999999999999         -1.7814627426560037E-005
  0.30709999999999998         -1.7847747585619800E-005
  0.30819999999999997         -1.7898708392749541E-005
  0.30930000000000007         -1.7967584426514804E-005
  0.31040000000000006         -1.8050903236144222E-005
  0.31150000000000005         -1.8143597117159516E-005
  0.31260000000000004         -1.8242128135170788E-005
  0.31370000000000003         -1.8347258446738124E-005
  0.31480000000000002         -1.8462877051206306E-005
  0.31590000000000001         -1.8591728803585283E-005
  0.31700000000000000         -1.8732718672254123E-005
  0.31809999999999999         -1.8881963114836253E-005
  0.31919999999999998         -1.9036693629459478E-005
  0.32029999999999997         -1.9197612346033566E-005
  0.32140000000000007         -1.9366967535461299E-005
  0.32250000000000006         -1.9545183022273704E-005
  0.32360000000000005         -1.9730161511688493E-005
  0.32470000000000004         -1.9918583348044194E-005
  0.32580000000000003         -2.0109069737372920E-005
  0.32690000000000002         -2.0304014469729736E-005
  0.32800000000000001         -2.0505398424575105E-005
  0.32910000000000000         -2.0711018805741332E-005
  0.33019999999999999         -2.0915544155286625E-005
  0.33129999999999998         -2.1115509298397228E-005
  0.33239999999999997         -2.1312596800271422E-005
  0.33350000000000007         -2.1512687453650869E-005
  0.33460000000000006         -2.1720636141253635E-005
  0.33570000000000005         -2.1935204131295905E-005
  0.33680000000000004         -2.2149495634948835E-005
  0.33790000000000003         -2.2355668988893740E-005
  0.33900000000000002         -2.2550912035512738E-005
  0.34010000000000001         -2.2738695406587794E-005
  0.34120000000000000         -2.2925170924281701E-005
  0.34229999999999999         -2.3113423594622873E-005
  0.34339999999999998         -2.3301359760807827E-005
  0.34449999999999997         -2.3484946723328903E-005
  0.34560000000000007         -2.3661372324568219E-005
  0.34670000000000006         -2.3829486963222735E-005
  0.34780000000000005         -2.3989005057956092E-005
  0.34890000000000004         -2.4140410459949635E-005
