 -0.20000000000000001          0.0000000000000000
 -0.19890000000000002          0.0000000000000000
 -0.19780000000000000          0.0000000000000000
 -0.19670000000000001          0.0000000000000000
 -0.19560000000000002          0.0000000000000000
 -0.19450000000000001          0.0000000000000000
 -0.19340000000000002          0.0000000000000000
 -0.19230000000000000          0.0000000000000000
 -0.19120000000000001          0.0000000000000000
 -0.19010000000000002          0.0000000000000000
 -0.18900000000000000          0.0000000000000000
 -0.18790000000000001          0.0000000000000000
 -0.18680000000000002          0.0000000000000000
 -0.18570000000000000          1.4012984643248171E-042
 -0.18460000000000001          4.7352677706464218E-041
 -0.18350000000000000          5.2470499957871315E-040
 -0.18240000000000001          3.9739128877109979E-039
 -0.18130000000000002          1.9851193415687691E-038
 -0.18020000000000000          5.7723586747442758E-038
 -0.17910000000000001          7.4765416364196591E-038
 -0.17800000000000002         -2.9618147022437628E-038
 -0.17690000000000000         -1.4517269361085357E-037
 -0.17580000000000001         -3.7869626888326797E-037
 -0.17470000000000002         -4.5021785194252341E-036
 -0.17360000000000000         -1.7845269853413752E-035
 -0.17250000000000001         -8.3893677244618329E-036
 -0.17140000000000000          1.3923655969149367E-034
 -0.17030000000000001          3.9965724269103111E-034
 -0.16920000000000002         -1.0247967786074616E-034
 -0.16810000000000000         -2.8687105765512812E-033
 -0.16700000000000001         -5.3889715667402195E-033
 -0.16589999999999999          5.5529585388096981E-033
 -0.16480000000000000          4.0690260048699598E-032
 -0.16370000000000001          5.2007837373812025E-032
 -0.16260000000000002         -9.9377056489844220E-032
 -0.16150000000000000         -4.3783788548354648E-031
 -0.16040000000000001         -3.8271933153168168E-031
 -0.15930000000000000          1.2001771931217578E-030
 -0.15820000000000001          3.8733358884453507E-030
 -0.15710000000000002          2.2371758339651921E-030
 -0.15600000000000000         -1.1481453180639658E-029
 -0.15490000000000001         -3.0068135885446080E-029
 -0.15379999999999999         -1.1367620188496989E-029
 -0.15270000000000000          9.2623152980838789E-029
 -0.15160000000000001          2.1472580543374600E-028
 -0.15050000000000002          6.5147234541102861E-029
 -0.14940000000000001         -6.4216888803636087E-028
 -0.14830000000000002         -1.4381175043422094E-027
 -0.14720000000000000         -5.2785488285301900E-028
 -0.14610000000000001          3.8046237605864526E-027
 -0.14500000000000002          8.9515621441404992E-027
 -0.14390000000000000          4.8436067284289902E-027
 -0.14280000000000001         -1.8808049435670563E-026
 -0.14169999999999999         -5.0553091079247151E-026
 -0.14060000000000000         -3.9523573784629265E-026
 -0.13950000000000001          7.3476963739638033E-026
 -0.13840000000000002          2.5233205028452667E-025
 -0.13730000000000001          2.6855990518105441E-025
 -0.13619999999999999         -1.9154828375522644E-025
 -0.13510000000000000         -1.0848125262216686E-024
 -0.13400000000000001         -1.5158194021712651E-024
 -0.13290000000000002          5.6093333631580226E-027
 -0.13180000000000000          3.8832352535578270E-024
 -0.13070000000000001          7.1499433663883192E-024
 -0.12959999999999999          3.5661384132079473E-024
 -0.12850000000000000         -1.0796370070377398E-023
 -0.12740000000000001         -2.8177287963709491E-023
 -0.12630000000000002         -2.5863344358530043E-023
 -0.12520000000000001          1.8190080133948967E-023
 -0.12410000000000000          9.1441783705328816E-023
 -0.12300000000000001          1.2337681059105860E-022
 -0.12190000000000001          1.9228904238763740E-023
 -0.12080000000000000         -2.3315017556634949E-022
 -0.11970000000000000         -4.5415431657299624E-022
 -0.11860000000000001         -3.1077242256586523E-022
 -0.11750000000000001          3.9595501150682327E-022
 -0.11640000000000000          1.3287256028567696E-021
 -0.11530000000000000          1.5176513525522154E-021
 -0.11420000000000001         -8.7148801081394259E-024
 -0.11310000000000001         -2.9941015981191174E-021
 -0.11200000000000000         -5.1398232532110514E-021
 -0.11090000000000001         -3.0937865554545605E-021
 -0.10980000000000001          4.4105314689973618E-021
 -0.10870000000000000          1.3265277379249829E-020
 -0.10760000000000000          1.4370964211053206E-020
 -0.10650000000000001          1.7776161345991520E-022
 -0.10540000000000001         -2.5453365268151014E-020
 -0.10430000000000000         -4.2915807158696056E-020
 -0.10320000000000000         -2.7052681824018213E-020
 -0.10210000000000001          2.9154542913754055E-020
 -0.10100000000000001          9.4278879668011665E-020
  -9.9900000000000003E-002     1.0605936623214168E-019
  -9.8799999999999999E-002     1.7044979021908588E-020
  -9.7700000000000009E-002    -1.4628394449907072E-019
  -9.6600000000000005E-002    -2.6508615731456250E-019
  -9.5500000000000002E-002    -1.9413785512482070E-019
  -9.4400000000000012E-002     1.0683173966676453E-019
  -9.3300000000000008E-002     4.7388484529399942E-019
  -9.2200000000000004E-002     5.8968387549804087E-019
  -9.1100000000000000E-002     2.1286789960531497E-019
  -9.0000000000000011E-002    -5.5008792864725798E-019
  -8.8900000000000007E-002    -1.1765231802670884E-018
  -8.7800000000000003E-002    -1.0265310367807308E-018
  -8.6699999999999999E-002     1.0965776991780927E-019
  -8.5600000000000009E-002     1.6287351697291626E-018
  -8.4500000000000006E-002     2.3297620534714217E-018
  -8.3400000000000002E-002     1.2727527198405621E-018
  -8.2299999999999998E-002    -1.2662231628802216E-018
  -8.1200000000000008E-002    -3.5942552714980652E-018
  -8.0100000000000005E-002    -3.6200484173586937E-018
  -7.9000000000000001E-002    -5.8946126051568753E-019
  -7.7899999999999997E-002     3.8061785308438446E-018
  -7.6800000000000007E-002     6.1709150213849272E-018
  -7.5700000000000003E-002     3.9139394851441903E-018
  -7.4600000000000000E-002    -2.2060516093949817E-018
  -7.3500000000000010E-002    -7.8103394325798062E-018
  -7.2399999999999992E-002    -7.8287359294029856E-018
  -7.1300000000000002E-002    -8.9167557472105754E-019
  -7.0200000000000012E-002     8.4074554741828478E-018
  -6.9099999999999995E-002     1.2068415417457802E-017
  -6.8000000000000005E-002     5.1034115575153370E-018
  -6.6900000000000015E-002    -8.9583164031125365E-018
  -6.5799999999999997E-002    -1.8802733493810253E-017
  -6.4700000000000008E-002    -1.3461198971817438E-017
  -6.3599999999999990E-002     7.3992257050572761E-018
  -6.2500000000000000E-002     2.9728953933217070E-017
  -6.1400000000000010E-002     3.3210040970750530E-017
  -6.0299999999999992E-002     7.4862798470835819E-018
  -5.9200000000000003E-002    -3.5451994907067304E-017
  -5.8100000000000013E-002    -6.4625457354285614E-017
  -5.6999999999999995E-002    -5.0669904642723822E-017
  -5.5900000000000005E-002     9.1287983273597155E-018
  -5.4800000000000015E-002     8.1152506140760405E-017
  -5.3699999999999998E-002     1.1291846512428321E-016
  -5.2600000000000008E-002     6.9883037180007359E-017
  -5.1499999999999990E-002    -3.3693511495175524E-017
  -5.0400000000000000E-002    -1.3557146132609302E-016
  -4.9300000000000010E-002    -1.6350659469165004E-016
  -4.8199999999999993E-002    -8.7331644578205028E-017
  -4.7100000000000003E-002     5.3010670266293730E-017
  -4.6000000000000013E-002     1.6876030331210504E-016
  -4.4899999999999995E-002     1.8302015591869039E-016
  -4.3800000000000006E-002     8.8191892562925476E-017
  -4.2699999999999988E-002    -4.5602348056040208E-017
  -4.1599999999999998E-002    -1.2312223428849234E-016
  -4.0500000000000008E-002    -1.0087836823509616E-016
  -3.9399999999999991E-002    -2.5917765582993298E-017
  -3.8300000000000001E-002     2.6758275383937005E-018
  -3.7200000000000011E-002    -7.2264648982225136E-017
  -3.6099999999999993E-002    -1.9221315007902912E-016
  -3.5000000000000003E-002    -2.0361945456543314E-016
  -3.3900000000000013E-002     1.9811503411875822E-017
  -3.2799999999999996E-002     4.3541045733293585E-016
  -3.1700000000000006E-002     7.9226099108819950E-016
  -3.0599999999999988E-002     7.6093315989664398E-016
  -2.9499999999999998E-002     1.7386511942230049E-016
  -2.8400000000000009E-002    -7.8764106163563773E-016
  -2.7299999999999991E-002    -1.6192956492765034E-015
  -2.6200000000000001E-002    -1.7597697108315247E-015
  -2.5100000000000011E-002    -9.4752652430332663E-016
  -2.3999999999999994E-002     5.6836895436564736E-016
  -2.2900000000000004E-002     2.1192222239216352E-015
  -2.1800000000000014E-002     2.9613012989839187E-015
  -2.0699999999999996E-002     2.6497007475786375E-015
  -1.9600000000000006E-002     1.2100436339975893E-015
  -1.8499999999999989E-002    -9.5074736708526111E-016
  -1.7399999999999999E-002    -3.2453768794934610E-015
  -1.6300000000000009E-002    -5.0154624987104775E-015
  -1.5199999999999991E-002    -5.5107739084633758E-015
  -1.4100000000000001E-002    -3.9399297084401208E-015
  -1.3000000000000012E-002     1.4953490534069856E-016
  -1.1899999999999994E-002     6.1769331342268873E-015
  -1.0800000000000004E-002     1.1989832683547558E-014
  -9.6999999999999864E-003     1.4188671769346361E-014
  -8.5999999999999965E-003     9.6858471628413420E-015
  -7.5000000000000067E-003    -2.0076842901524785E-015
  -6.3999999999999890E-003    -1.7159948998866567E-014
  -5.2999999999999992E-003    -2.8390330247840025E-014
  -4.2000000000000093E-003    -2.7951931405329616E-014
  -3.0999999999999917E-003    -1.2449291306225550E-014
  -2.0000000000000018E-003     1.3737586067351978E-014
  -9.0000000000001190E-004     3.8984660904193072E-014
   2.0000000000000573E-004     4.9604316151603128E-014
   1.2999999999999956E-003     3.7419747205350018E-014
   2.4000000000000132E-003     5.4024993808817531E-015
   3.5000000000000031E-003    -3.2516541136106206E-014
   4.5999999999999930E-003    -5.8199315321454809E-014
   5.7000000000000106E-003    -5.9174609385714144E-014
   6.8000000000000005E-003    -3.5712633615321912E-014
   7.8999999999999904E-003    -3.8903079772911221E-016
   9.0000000000000080E-003     2.9968594879997701E-014
   1.0099999999999998E-002     4.4828652915425080E-014
   1.1199999999999988E-002     4.5672541676379172E-014
   1.2300000000000005E-002     4.2415987985388454E-014
   1.3399999999999995E-002     4.2655410318259354E-014
   1.4500000000000013E-002     4.1860879861207664E-014
   1.5600000000000003E-002     2.3420650726961589E-014
   1.6699999999999993E-002    -2.8601171995004671E-014
   1.7800000000000010E-002    -1.1084891143008091E-013
   1.8900000000000000E-002    -1.8992656568555394E-013
   1.9999999999999990E-002    -2.1145502612351236E-013
   2.1100000000000008E-002    -1.2964222794245583E-013
   2.2199999999999998E-002     5.6811953280883412E-014
   2.3300000000000015E-002     2.8555966185422887E-013
   2.4400000000000005E-002     4.4659653579415259E-013
   2.5499999999999995E-002     4.3349568726314125E-013
   2.6600000000000013E-002     2.0709077356607930E-013
   2.7700000000000002E-002    -1.6475708330184607E-013
   2.8799999999999992E-002    -5.2124591535390730E-013
   2.9900000000000010E-002    -6.8000423000813548E-013
   3.1000000000000000E-002    -5.3511654742738335E-013
   3.2099999999999990E-002    -1.2909860897317160E-013
   3.3200000000000007E-002     3.4822296955672183E-013
   3.4299999999999997E-002     6.4598294161749559E-013
   3.5400000000000015E-002     5.8739113833333745E-013
   3.6500000000000005E-002     1.8243548761519984E-013
   3.7599999999999995E-002    -3.5137688657142785E-013
   3.8700000000000012E-002    -6.8650722042859491E-013
   3.9800000000000002E-002    -5.6180293707061568E-013
   4.0899999999999992E-002     5.3508003014296132E-014
   4.2000000000000010E-002     9.0502117518903580E-013
   4.3099999999999999E-002     1.5532034209134182E-012
   4.4200000000000017E-002     1.5891438555695747E-012
   4.5300000000000007E-002     8.5498925647686796E-013
   4.6399999999999997E-002    -4.5584591873773506E-013
   4.7500000000000014E-002    -1.8839545808807534E-012
   4.8600000000000004E-002    -2.9345425828913863E-012
   4.9699999999999994E-002    -3.3219312717269744E-012
   5.0800000000000012E-002    -3.0781813729896523E-012
   5.1900000000000002E-002    -2.4510090138041285E-012
   5.2999999999999992E-002    -1.6478536200500993E-012
   5.4099999999999981E-002    -5.9325444947203043E-013
   5.5200000000000027E-002     1.1197056736661493E-012
   5.6300000000000017E-002     4.0092950660819415E-012
   5.7400000000000007E-002     8.3155348926111650E-012
   5.8499999999999996E-002     1.3676847848698159E-011
   5.9599999999999986E-002     1.9111505780711191E-011
   6.0700000000000032E-002     2.3387784764405950E-011
   6.1800000000000022E-002     2.5630747524374442E-011
   6.2900000000000011E-002     2.5837328804234616E-011
   6.4000000000000001E-002     2.4977818424698484E-011
   6.5099999999999991E-002     2.4572692838842336E-011
   6.6199999999999981E-002     2.5941427825304508E-011
   6.7300000000000026E-002     2.9539870549655234E-011
   6.8400000000000016E-002     3.4784564117984473E-011
   6.9500000000000006E-002     4.0491825170629880E-011
   7.0599999999999996E-002     4.5683467425616797E-011
   7.1699999999999986E-002     5.0261649009453180E-011
   7.2800000000000031E-002     5.5105690843770816E-011
   7.3900000000000021E-002     6.1490278147058319E-011
   7.5000000000000011E-002     7.0169071941794670E-011
   7.6100000000000001E-002     8.0727584339523872E-011
   7.7199999999999991E-002     9.1693347359367294E-011
   7.8299999999999981E-002     1.0143574868948235E-010
   7.9400000000000026E-002     1.0935621852503630E-010
   8.0500000000000016E-002     1.1660418464121136E-010
   8.1600000000000006E-002     1.2576178987089293E-010
   8.2699999999999996E-002     1.3954137845217929E-010
   8.3799999999999986E-002     1.5918966145278546E-010
   8.4900000000000031E-002     1.8357552977743552E-010
   8.6000000000000021E-002     2.0963245028760014E-010
   8.7100000000000011E-002     2.3405691274014373E-010
   8.8200000000000001E-002     2.5537086334459502E-010
   8.9299999999999990E-002     2.7513244460486419E-010
   9.0399999999999980E-002     2.9747451724126961E-010
   9.1500000000000026E-002     3.2708599717601317E-010
   9.2600000000000016E-002     3.6669747793816043E-010
   9.3700000000000006E-002     4.1551362350844556E-010
   9.4799999999999995E-002     4.6957648880407987E-010
   9.5899999999999985E-002     5.2396853522651554E-010
   9.7000000000000031E-002     5.7568239064664795E-010
   9.8100000000000021E-002     6.2554067481457309E-010
   9.9200000000000010E-002     6.7804328818255044E-010
  0.10030000000000000          7.3918710041809277E-010
  0.10139999999999999          8.1347739655512896E-010
  0.10249999999999998          9.0183444045877081E-010
  0.10360000000000003          1.0015859253087456E-009
  0.10470000000000002          1.1085194984161717E-009
  0.10580000000000001          1.2197586274353966E-009
  0.10690000000000000          1.3357484007769926E-009
  0.10799999999999998          1.4601895248489427E-009
  0.10910000000000003          1.5980077261446013E-009
  0.11020000000000002          1.7526550211144354E-009
  0.11130000000000001          1.9244446036736917E-009
  0.11240000000000000          2.1109918257877780E-009
  0.11349999999999999          2.3095125811778416E-009
  0.11460000000000004          2.5195443509318238E-009
  0.11570000000000003          2.7443447514485797E-009
  0.11680000000000001          2.9899915876541172E-009
  0.11790000000000000          3.2626357171494647E-009
  0.11899999999999999          3.5655396413147855E-009
  0.12009999999999998          3.8977558958208647E-009
  0.12120000000000003          4.2553636170339360E-009
  0.12230000000000002          4.6346464444013691E-009
  0.12340000000000001          5.0353752278908814E-009
  0.12450000000000000          5.4622377732016503E-009
  0.12559999999999999          5.9234968041721459E-009
  0.12670000000000003          6.4276211020342089E-009
  0.12780000000000002          6.9798420376798731E-009
  0.12890000000000001          7.5806729782357252E-009
  0.13000000000000000          8.2272730850263542E-009
  0.13109999999999999          8.9168397110483966E-009
  0.13219999999999998          9.6499981339093210E-009
  0.13330000000000003          1.0432171571039817E-008
  0.13440000000000002          1.1272113908944448E-008
  0.13550000000000001          1.2178539066098892E-008
  0.13660000000000000          1.3156917333390084E-008
  0.13769999999999999          1.4208402454585212E-008
  0.13880000000000003          1.5331584890532213E-008
  0.13990000000000002          1.6525966373137635E-008
  0.14100000000000001          1.7795064977121910E-008
  0.14210000000000000          1.9147201157920790E-008
  0.14319999999999999          2.0593493132992080E-008
  0.14429999999999998          2.2144231337506426E-008
  0.14540000000000003          2.3805863946790851E-008
  0.14650000000000002          2.5580339624298176E-008
  0.14760000000000001          2.7467217833532231E-008
  0.14870000000000000          2.9467249973436083E-008
  0.14979999999999999          3.1585280169110774E-008
  0.15090000000000003          3.3830854562211243E-008
  0.15200000000000002          3.6216263765709300E-008
  0.15310000000000001          3.8753267261881774E-008
  0.15420000000000000          4.1450427090694575E-008
  0.15529999999999999          4.4312514546618331E-008
  0.15639999999999998          4.7342197717625822E-008
  0.15750000000000003          5.0542819707288800E-008
  0.15860000000000002          5.3920707898669207E-008
  0.15970000000000001          5.7485713966798357E-008
  0.16080000000000000          6.1249942007179925E-008
  0.16189999999999999          6.5225570722304838E-008
  0.16300000000000003          6.9423158777226490E-008
  0.16410000000000002          7.3851147419645713E-008
  0.16520000000000001          7.8516649182347464E-008
  0.16630000000000000          8.3426762387261988E-008
  0.16739999999999999          8.8589409585893009E-008
  0.16850000000000004          9.4013394402736594E-008
  0.16960000000000003          9.9707953893357626E-008
  0.17070000000000002          1.0568225405904741E-007
  0.17180000000000001          1.1194550353366139E-007
  0.17290000000000000          1.1850745806896157E-007
  0.17399999999999999          1.2537901739051449E-007
  0.17510000000000003          1.3257225361940073E-007
  0.17620000000000002          1.4009957283178665E-007
  0.17730000000000001          1.4797255687426514E-007
  0.17840000000000000          1.5620101123658969E-007
  0.17949999999999999          1.6479273767799896E-007
  0.18060000000000004          1.7375435845679021E-007
  0.18170000000000003          1.8309253846382489E-007
  0.18280000000000002          1.9281503682577750E-007
  0.18390000000000001          2.0293106217650347E-007
  0.18500000000000000          2.1345108791592793E-007
  0.18609999999999999          2.2438597113705328E-007
  0.18720000000000003          2.3574632734835177E-007
  0.18830000000000002          2.4754191940701276E-007
  0.18940000000000001          2.5978141593441251E-007
  0.19050000000000000          2.7247236289440480E-007
  0.19159999999999999          2.8562101306306431E-007
  0.19270000000000004          2.9923231181783194E-007
  0.19380000000000003          3.1331020977631852E-007
  0.19490000000000002          3.2785854386929714E-007
  0.19600000000000001          3.4288183314856724E-007
  0.19710000000000000          3.5838584722114319E-007
  0.19819999999999999          3.7437763467096374E-007
  0.19930000000000003          3.9086458514248079E-007
  0.20040000000000002          4.0785292299005960E-007
  0.20150000000000001          4.2534657040960155E-007
  0.20260000000000000          4.4334629478726129E-007
  0.20369999999999999          4.6185010660337866E-007
  0.20480000000000004          4.8085433945743716E-007
  0.20590000000000003          5.0035566800943343E-007
  0.20700000000000002          5.2035164799235645E-007
  0.20810000000000001          5.4084125622466672E-007
  0.20920000000000000          5.6182420848926995E-007
  0.21029999999999999          5.8329987950855866E-007
  0.21140000000000003          6.0526622291945387E-007
  0.21250000000000002          6.2771914599579759E-007
  0.21360000000000001          6.5065319176937919E-007
  0.21470000000000000          6.7406170956019196E-007
  0.21579999999999999          6.9793651391591993E-007
  0.21690000000000004          7.2226771408168133E-007
  0.21800000000000003          7.4704365715660970E-007
  0.21910000000000002          7.7225172390171792E-007
  0.22020000000000001          7.9787895401750575E-007
  0.22130000000000000          8.2391261457814835E-007
  0.22239999999999999          8.5034059793542838E-007
  0.22350000000000003          8.7715091012796620E-007
  0.22460000000000002          9.0433127297728788E-007
  0.22570000000000001          9.3186827143654227E-007
  0.22680000000000000          9.5974655778263696E-007
  0.22789999999999999          9.8794839686888736E-007
  0.22900000000000004          1.0164540071855299E-006
  0.23010000000000003          1.0452416745465598E-006
  0.23120000000000002          1.0742899121396476E-006
  0.23230000000000001          1.1035776878998149E-006
  0.23340000000000000          1.1330851066304604E-006
  0.23450000000000004          1.1627922731349827E-006
  0.23560000000000003          1.1926787237825920E-006
  0.23670000000000002          1.2227236538819852E-006
  0.23780000000000001          1.2529054629339953E-006
  0.23890000000000000          1.2832020956921042E-006
  0.23999999999999999          1.3135903600414167E-006
  0.24110000000000004          1.3440450175039587E-006
  0.24220000000000003          1.3745390106123523E-006
  0.24330000000000002          1.4050443724045181E-006
  0.24440000000000001          1.4355330222315388E-006
  0.24550000000000000          1.4659789258075762E-006
  0.24660000000000004          1.4963590047045727E-006
  0.24770000000000003          1.5266517721101991E-006
  0.24880000000000002          1.5568359685858013E-006
  0.24990000000000001          1.5868886293901596E-006
  0.25100000000000000          1.6167844023584621E-006
  0.25209999999999999          1.6464969121443573E-006
  0.25320000000000004          1.6759995560278185E-006
  0.25430000000000003          1.7052662997230073E-006
  0.25540000000000002          1.7342724731861381E-006
  0.25650000000000001          1.7629943158681272E-006
  0.25760000000000000          1.7914099998961319E-006
  0.25870000000000004          1.8194982658314984E-006
  0.25980000000000003          1.8472385363565991E-006
  0.26090000000000002          1.8746113710221834E-006
  0.26200000000000001          1.9015963061974617E-006
  0.26310000000000000          1.9281733329989947E-006
  0.26419999999999999          1.9543224425433436E-006
  0.26530000000000004          1.9800256723101484E-006
  0.26640000000000003          2.0052648324053735E-006
  0.26750000000000002          2.0300228698033607E-006
  0.26860000000000001          2.0542834135994781E-006
  0.26970000000000000          2.0780319118784973E-006
  0.27080000000000004          2.1012549495935673E-006
  0.27190000000000003          2.1239407033135649E-006
  0.27300000000000002          2.1460787138494197E-006
  0.27410000000000001          2.1676592041330878E-006
  0.27520000000000000          2.1886733065912267E-006
  0.27629999999999999          2.2091139726398978E-006
  0.27740000000000004          2.2289741536951624E-006
  0.27850000000000003          2.2482468011730816E-006
  0.27960000000000002          2.2669244117423659E-006
  0.28070000000000001          2.2850008463137783E-006
  0.28179999999999999          2.3024726942821871E-006
  0.28290000000000004          2.3193383640318643E-006
  0.28400000000000003          2.3355974008154590E-006
  0.28510000000000002          2.3512511688750237E-006
  0.28620000000000001          2.3663017145736376E-006
  0.28730000000000000          2.3807538127584849E-006
  0.28840000000000005          2.3946126930241007E-006
  0.28950000000000004          2.4078838123386959E-006
  0.29060000000000002          2.4205710360547528E-006
  0.29170000000000001          2.4326766379090259E-006
  0.29280000000000000          2.4442044832539978E-006
  0.29389999999999999          2.4551620754209580E-006
  0.29500000000000004          2.4655603283463279E-006
  0.29610000000000003          2.4754133391979849E-006
  0.29720000000000002          2.4847342956491048E-006
  0.29830000000000001          2.4935357032518368E-006
  0.29940000000000000          2.5018284759426024E-006
  0.30050000000000004          2.5096246645261999E-006
  0.30160000000000003          2.5169372293021297E-006
  0.30270000000000002          2.5237809495592955E-006
  0.30380000000000001          2.5301699224655749E-006
  0.30490000000000000          2.5361166535731172E-006
  0.30599999999999999          2.5416359221708262E-006
  0.30709999999999998          2.5467440991633339E-006
  0.30819999999999997          2.5514616481814301E-006
  0.30930000000000007          2.5558092602295801E-006
  0.31040000000000006          2.5598062620701967E-006
  0.31150000000000005          2.5634701614762889E-006
  0.31260000000000004          2.5668175567261642E-006
  0.31370000000000003          2.5698657282191562E-006
  0.31480000000000002          2.5726328658493003E-006
  0.31590000000000001          2.5751389785000356E-006
  0.31700000000000000          2.5774043024284765E-006
  0.31809999999999999          2.5794483917707112E-006
  0.31919999999999998          2.5812885269260732E-006
  0.32029999999999997          2.5829440346569754E-006
  0.32140000000000007          2.5844346964731812E-006
  0.32250000000000006          2.5857816581265070E-006
  0.32360000000000005          2.5870065201161196E-006
  0.32470000000000004          2.5881295186991338E-006
  0.32580000000000003          2.5891699806379620E-006
  0.32690000000000002          2.5901474600686925E-006
  0.32800000000000001          2.5910817385010887E-006
  0.32910000000000000          2.5919930521922652E-006
  0.33019999999999999          2.5928998184099328E-006
  0.33129999999999998          2.5938184080587234E-006
  0.33239999999999997          2.5947656467906199E-006
  0.33350000000000007          2.5957610887417104E-006
  0.33460000000000006          2.5968276986532146E-006
  0.33570000000000005          2.5979882138926769E-006
  0.33680000000000004          2.5992637802119134E-006
  0.33790000000000003          2.6006721327576088E-006
  0.33900000000000002          2.6022278234449914E-006
  0.34010000000000001          2.6039449494419387E-006
  0.34120000000000000          2.6058405637741089E-006
  0.34229999999999999          2.6079335384565638E-006
  0.34339999999999998          2.6102429728780407E-006
  0.34449999999999997          2.6127886485483032E-006
  0.34560000000000007          2.6155889827350620E-006
  0.34670000000000006          2.6186610284639755E-006
  0.34780000000000005          2.6220200197712984E-006
  0.34890000000000004          2.6256800538249081E-006
