 -0.20000000000000001          0.0000000000000000
 -0.19890000000000002          0.0000000000000000
 -0.19780000000000000          0.0000000000000000
 -0.19670000000000001          3.9519073777305458E-012
 -0.19560000000000002          1.5153501717324325E-011
 -0.19450000000000001          2.2114508141379829E-011
 -0.19340000000000002         -1.2488890130391006E-012
 -0.19230000000000000         -6.0509292021393435E-011
 -0.19120000000000001         -9.8649970137199006E-011
 -0.19010000000000002         -1.9594274119905108E-011
 -0.18900000000000000          1.9005688689510691E-010
 -0.18790000000000001          3.4201122489641023E-010
 -0.18680000000000002          1.2718887054674610E-010
 -0.18570000000000000         -5.2973780917398017E-010
 -0.18460000000000001         -1.1158333146354948E-009
 -0.18350000000000000         -6.9837940985806313E-010
 -0.18240000000000001          1.1509810882159854E-009
 -0.18130000000000002          3.3015983280648697E-009
 -0.18020000000000000          3.1927469557047061E-009
 -0.17910000000000001         -1.0729607202719649E-009
 -0.17800000000000002         -7.8297244243685782E-009
 -0.17690000000000000         -1.1133082900016689E-008
 -0.17580000000000001         -4.5899350986644549E-009
 -0.17470000000000002          1.1760571183572210E-008
 -0.17360000000000000          2.7406489522263655E-008
 -0.17250000000000001          2.6200890346217420E-008
 -0.17140000000000000         -3.4554567540645564E-010
 -0.17030000000000001         -4.0870485662480860E-008
 -0.16920000000000002         -6.5785563663212088E-008
 -0.16810000000000000         -4.6864084168873887E-008
 -0.16700000000000001          1.7020697740122159E-008
 -0.16589999999999999          8.9676326808785234E-008
 -0.16480000000000000          1.1676409883421002E-007
 -0.16370000000000001          6.5413416905357735E-008
 -0.16260000000000002         -4.4720557923483284E-008
 -0.16150000000000000         -1.4624838229337911E-007
 -0.16040000000000001         -1.6637727640045341E-007
 -0.15930000000000000         -7.8310172568762937E-008
 -0.15820000000000001          7.6020384653929796E-008
 -0.15710000000000002          2.0919104315453296E-007
 -0.15600000000000000          2.4126455855366657E-007
 -0.15490000000000001          1.4683627114209230E-007
 -0.15379999999999999         -3.1545337009220020E-008
 -0.15270000000000000         -2.0691933855232492E-007
 -0.15160000000000001         -2.9271376433825935E-007
 -0.15050000000000002         -2.4935573605944228E-007
 -0.14940000000000001         -1.1645376218893944E-007
 -0.14830000000000002         -1.3768815421144609E-008
 -0.14720000000000000         -9.4946869921841426E-008
 -0.14610000000000001         -4.5650668312191556E-007
 -0.14500000000000002         -1.0429400845168857E-006
 -0.14390000000000000         -1.6180139255084214E-006
 -0.14280000000000001         -1.8524387996876612E-006
 -0.14169999999999999         -1.5027007975731976E-006
 -0.14060000000000000         -5.7564477629057365E-007
 -0.13950000000000001          6.3850507103779819E-007
 -0.13840000000000002          1.6990878748401883E-006
 -0.13730000000000001          2.2284650640358450E-006
 -0.13619999999999999          2.0645181848522043E-006
 -0.13510000000000000          1.2700064644377562E-006
 -0.13400000000000001          3.8502495414149962E-008
 -0.13290000000000002         -1.3922441439717659E-006
 -0.13180000000000000         -2.7534738364920486E-006
 -0.13070000000000001         -3.7286647511791671E-006
 -0.12959999999999999         -4.0046115827863105E-006
 -0.12850000000000000         -3.4202171264041681E-006
 -0.12740000000000001         -2.1162170469324337E-006
 -0.12630000000000002         -5.3945541367284022E-007
 -0.12520000000000001          7.4741979005921166E-007
 -0.12410000000000000          1.3351975667319493E-006
 -0.12300000000000001          1.1267738955211826E-006
 -0.12190000000000001          2.9139297907931905E-007
 -0.12080000000000000         -9.0280167341916240E-007
 -0.11970000000000000         -2.2112756141723366E-006
 -0.11860000000000001         -3.4132372093154117E-006
 -0.11750000000000001         -4.2729898268589750E-006
 -0.11640000000000000         -4.5968536142027006E-006
 -0.11530000000000000         -4.3939376155321952E-006
 -0.11420000000000001         -3.9790033952158410E-006
 -0.11310000000000001         -3.8444750316557474E-006
 -0.11200000000000000         -4.3273416849842761E-006
 -0.11090000000000001         -5.3259200285538100E-006
 -0.10980000000000001         -6.3354214034916367E-006
 -0.10870000000000000         -6.8172953433531802E-006
 -0.10760000000000000         -6.6140187300334219E-006
 -0.10650000000000001         -6.0630950429185759E-006
 -0.10540000000000001         -5.7243692026531789E-006
 -0.10430000000000000         -5.9758003772003576E-006
 -0.10320000000000000         -6.8283416112535633E-006
 -0.10210000000000001         -8.0727340900921263E-006
 -0.10100000000000001         -9.5438317657681182E-006
  -9.9900000000000003E-002    -1.1204480870219413E-005
  -9.8799999999999999E-002    -1.2989636161364615E-005
  -9.7700000000000009E-002    -1.4649036529590376E-005
  -9.6600000000000005E-002    -1.5849011106183752E-005
  -9.5500000000000002E-002    -1.6500327546964400E-005
  -9.4400000000000012E-002    -1.6975243852357380E-005
  -9.3300000000000008E-002    -1.7918093362823129E-005
  -9.2200000000000004E-002    -1.9738341507036239E-005
  -9.1100000000000000E-002    -2.2233765776036307E-005
  -9.0000000000000011E-002    -2.4729415599722415E-005
  -8.8900000000000007E-002    -2.6651463485904969E-005
  -8.7800000000000003E-002    -2.8024327548337169E-005
  -8.6699999999999999E-002    -2.9424008971545845E-005
  -8.5600000000000009E-002    -3.1430095987161621E-005
  -8.4500000000000006E-002    -3.4101856726920232E-005
  -8.3400000000000002E-002    -3.6987134080845863E-005
  -8.2299999999999998E-002    -3.9644812204642221E-005
  -8.1200000000000008E-002    -4.2150411900365725E-005
  -8.0100000000000005E-002    -4.5067117753205821E-005
  -7.9000000000000001E-002    -4.8901863920036703E-005
  -7.7899999999999997E-002    -5.3588042646879330E-005
  -7.6800000000000007E-002    -5.8522546169115230E-005
  -7.5700000000000003E-002    -6.3132400100585073E-005
  -7.4600000000000000E-002    -6.7410757765173912E-005
  -7.3500000000000010E-002    -7.1889349783305079E-005
  -7.2399999999999992E-002    -7.7074735600035638E-005
  -7.1300000000000002E-002    -8.2916245446540415E-005
  -7.0200000000000012E-002    -8.8838773081079125E-005
  -6.9099999999999995E-002    -9.4313225417863578E-005
  -6.8000000000000005E-002    -9.9399141618050635E-005
  -6.6900000000000015E-002    -1.0473139991518110E-004
  -6.5799999999999997E-002    -1.1098310642410070E-004
  -6.4700000000000008E-002    -1.1834079487016425E-004
  -6.3599999999999990E-002    -1.2648904521483928E-004
  -6.2500000000000000E-002    -1.3505535025615245E-004
  -6.1400000000000010E-002    -1.4400815416593105E-004
  -6.0299999999999992E-002    -1.5359569806605577E-004
  -5.9200000000000003E-002    -1.6391660028602928E-004
  -5.8100000000000013E-002    -1.7464277334511280E-004
  -5.6999999999999995E-002    -1.8523454491514713E-004
  -5.5900000000000005E-002    -1.9546356634236872E-004
  -5.4800000000000015E-002    -2.0571524510160089E-004
  -5.3699999999999998E-002    -2.1672090224456042E-004
  -5.2600000000000008E-002    -2.2897667076904327E-004
  -5.1499999999999990E-002    -2.4238851619884372E-004
  -5.0400000000000000E-002    -2.5646900758147240E-004
  -4.9300000000000010E-002    -2.7084551402367651E-004
  -4.8199999999999993E-002    -2.8554472373798490E-004
  -4.7100000000000003E-002    -3.0079417047090828E-004
  -4.6000000000000013E-002    -3.1661413959227502E-004
  -4.4899999999999995E-002    -3.3269962295889854E-004
  -4.3800000000000006E-002    -3.4874252742156386E-004
  -4.2699999999999988E-002    -3.6487050238065422E-004
  -4.1599999999999998E-002    -3.8168541505001485E-004
  -4.0500000000000008E-002    -3.9980531437322497E-004
  -3.9399999999999991E-002    -4.1935199988074601E-004
  -3.8300000000000001E-002    -4.3987840763293207E-004
  -3.7200000000000011E-002    -4.6082327025942504E-004
  -3.6099999999999993E-002    -4.8203772166743875E-004
  -3.5000000000000003E-002    -5.0381442997604609E-004
  -3.3900000000000013E-002    -5.2644620882347226E-004
  -3.2799999999999996E-002    -5.4976186947897077E-004
  -3.1700000000000006E-002    -5.7316530728712678E-004
  -3.0599999999999988E-002    -5.9616821818053722E-004
  -2.9499999999999998E-002    -6.1887176707386971E-004
  -2.8400000000000009E-002    -6.4192415447905660E-004
  -2.7299999999999991E-002    -6.6595367388799787E-004
  -2.6200000000000001E-002    -6.9107947638258338E-004
  -2.5100000000000011E-002    -7.1692053461447358E-004
  -2.3999999999999994E-002    -7.4306828901171684E-004
  -2.2900000000000004E-002    -7.6947273919358850E-004
  -2.1800000000000014E-002    -7.9636165173724294E-004
  -2.0699999999999996E-002    -8.2380772801116109E-004
  -1.9600000000000006E-002    -8.5145025514066219E-004
  -1.8499999999999989E-002    -8.7872811127454042E-004
  -1.7399999999999999E-002    -9.0537394862622023E-004
  -1.6300000000000009E-002    -9.3169137835502625E-004
  -1.5199999999999991E-002    -9.5827458426356316E-004
  -1.4100000000000001E-002    -9.8547502420842648E-004
  -1.3000000000000012E-002    -1.0130931623280048E-003
  -1.1899999999999994E-002    -1.0406383080407977E-003
  -1.0800000000000004E-002    -1.0677706450223923E-003
  -9.6999999999999864E-003    -1.0945200920104980E-003
  -8.5999999999999965E-003    -1.1210306547582150E-003
  -7.5000000000000067E-003    -1.1471600737422705E-003
  -6.3999999999999890E-003    -1.1724397772923112E-003
  -5.2999999999999992E-003    -1.1965179583057761E-003
  -4.2000000000000093E-003    -1.2195546878501773E-003
  -3.0999999999999917E-003    -1.2420893181115389E-003
  -2.0000000000000018E-003    -1.2645331444218755E-003
  -9.0000000000001190E-004    -1.2867309851571918E-003
   2.0000000000000573E-004    -1.3080091448500752E-003
   1.2999999999999956E-003    -1.3278014957904816E-003
   2.4000000000000132E-003    -1.3461423804983497E-003
   3.5000000000000031E-003    -1.3634600909426808E-003
   4.5999999999999930E-003    -1.3800808228552341E-003
   5.7000000000000106E-003    -1.3957829214632511E-003
   6.8000000000000005E-003    -1.4098868705332279E-003
   7.8999999999999904E-003    -1.4219419099390507E-003
   9.0000000000000080E-003    -1.4321407070383430E-003
   1.0099999999999998E-002    -1.4410719741135836E-003
   1.1199999999999988E-002    -1.4490128960460424E-003
   1.2300000000000005E-002    -1.4555274974554777E-003
   1.3399999999999995E-002    -1.4597552362829447E-003
   1.4500000000000013E-002    -1.4611372025683522E-003
   1.5600000000000003E-002    -1.4599673449993134E-003
   1.6699999999999993E-002    -1.4570439234375954E-003
   1.7800000000000010E-002    -1.4529571635648608E-003
   1.8900000000000000E-002    -1.4475218486040831E-003
   1.9999999999999990E-002    -1.4400035142898560E-003
   2.1100000000000008E-002    -1.4298196183517575E-003
   2.2199999999999998E-002    -1.4170025242492557E-003
   2.3300000000000015E-002    -1.4019443187862635E-003
   2.4400000000000005E-002    -1.3850748073309660E-003
   2.5499999999999995E-002    -1.3662542914971709E-003
   2.6600000000000013E-002    -1.3449126854538918E-003
   2.7700000000000002E-002    -1.3207073789089918E-003
   2.8799999999999992E-002    -1.2938249856233597E-003
   2.9900000000000010E-002    -1.2646690011024475E-003
   3.1000000000000000E-002    -1.2337220832705498E-003
   3.2099999999999990E-002    -1.2008710764348507E-003
   3.3200000000000007E-002    -1.1658425210043788E-003
   3.4299999999999997E-002    -1.1283357162028551E-003
   3.5400000000000015E-002    -1.0883345967158675E-003
   3.6500000000000005E-002    -1.0459610493853688E-003
   3.7599999999999995E-002    -1.0012618731707335E-003
   3.8700000000000012E-002    -9.5427565975114703E-004
   3.9800000000000002E-002    -9.0505747357383370E-004
   4.0899999999999992E-002    -8.5384835256263614E-004
   4.2000000000000010E-002    -8.0091337440535426E-004
   4.3099999999999999E-002    -7.4624107219278812E-004
   4.4200000000000017E-002    -6.8981805816292763E-004
   4.5300000000000007E-002    -6.3156912801787257E-004
   4.6399999999999997E-002    -5.7175749680027366E-004
   4.7500000000000014E-002    -5.1083235302940011E-004
   4.8600000000000004E-002    -4.4901057844981551E-004
   4.9699999999999994E-002    -3.8619001861661673E-004
   5.0800000000000012E-002    -3.2172168721444905E-004
   5.1900000000000002E-002    -2.5534763699397445E-004
   5.2999999999999992E-002    -1.8739620281849056E-004
   5.4099999999999981E-002    -1.1865641135955229E-004
   5.5200000000000027E-002    -4.9648759159026667E-005
   5.6300000000000017E-002     1.9523806258803234E-005
   5.7400000000000007E-002     8.9309847680851817E-005
   5.8499999999999996E-002     1.6003353812266141E-004
   5.9599999999999986E-002     2.3129794863052666E-004
   6.0700000000000032E-002     3.0234348378144205E-004
   6.1800000000000022E-002     3.7261223769746721E-004
   6.2900000000000011E-002     4.4210811029188335E-004
   6.4000000000000001E-002     5.1138701383024454E-004
   6.5099999999999991E-002     5.8104074560105801E-004
   6.6199999999999981E-002     6.5072148572653532E-004
   6.7300000000000026E-002     7.1955547900870442E-004
   6.8400000000000016E-002     7.8709184890612960E-004
   6.9500000000000006E-002     8.5296749603003263E-004
   7.0599999999999996E-002     9.1772637097164989E-004
   7.1699999999999986E-002     9.8167150281369686E-004
   7.2800000000000031E-002     1.0446368250995874E-003
   7.3900000000000021E-002     1.1060144752264023E-003
   7.5000000000000011E-002     1.1653975816443563E-003
   7.6100000000000001E-002     1.2227207189425826E-003
   7.7199999999999991E-002     1.2781785335391760E-003
   7.8299999999999981E-002     1.3319642748683691E-003
   7.9400000000000026E-002     1.3839319581165910E-003
   8.0500000000000016E-002     1.4336529420688748E-003
   8.1600000000000006E-002     1.4811804285272956E-003
   8.2699999999999996E-002     1.5267687849700451E-003
   8.3799999999999986E-002     1.5701475786045194E-003
   8.4900000000000031E-002     1.6114645404741168E-003
   8.6000000000000021E-002     1.6501252539455891E-003
   8.7100000000000011E-002     1.6858230810612440E-003
   8.8200000000000001E-002     1.7185170436277986E-003
   8.9299999999999990E-002     1.7484098207205534E-003
   9.0399999999999980E-002     1.7756124725565314E-003
   9.1500000000000026E-002     1.7999500269070268E-003
   9.2600000000000016E-002     1.8211501883342862E-003
   9.3700000000000006E-002     1.8393781501799822E-003
   9.4799999999999995E-002     1.8549624364823103E-003
   9.5899999999999985E-002     1.8686578841879964E-003
   9.7000000000000031E-002     1.8805909203365445E-003
   9.8100000000000021E-002     1.8903568852692842E-003
   9.9200000000000010E-002     1.8970470409840345E-003
  0.10030000000000000          1.8999322783201933E-003
  0.10139999999999999          1.8995594000443816E-003
  0.10249999999999998          1.8964337650686502E-003
  0.10360000000000003          1.8912797095254064E-003
  0.10470000000000002          1.8840490374714136E-003
  0.10580000000000001          1.8741607200354338E-003
  0.10690000000000000          1.8611170817166567E-003
  0.10799999999999998          1.8453537486493587E-003
  0.10910000000000003          1.8278310308232903E-003
  0.11020000000000002          1.8090277444571257E-003
  0.11130000000000001          1.7888885922729969E-003
  0.11240000000000000          1.7664714250713587E-003
  0.11349999999999999          1.7411492299288511E-003
  0.11460000000000004          1.7130883643403649E-003
  0.11570000000000003          1.6829975647851825E-003
  0.11680000000000001          1.6517726471647620E-003
  0.11790000000000000          1.6194600611925125E-003
  0.11899999999999999          1.5859960112720728E-003
  0.12009999999999998          1.5509327640756965E-003
  0.12120000000000003          1.5143554192036390E-003
  0.12230000000000002          1.4767381362617016E-003
  0.12340000000000001          1.4384835958480835E-003
  0.12450000000000000          1.3992980821058154E-003
  0.12559999999999999          1.3594659976661205E-003
  0.12670000000000003          1.3188301818445325E-003
  0.12780000000000002          1.2773495400324464E-003
  0.12890000000000001          1.2346741277724504E-003
  0.13000000000000000          1.1911772890016437E-003
  0.13109999999999999          1.1467391159385443E-003
  0.13219999999999998          1.1021039681509137E-003
  0.13330000000000003          1.0579349473118782E-003
  0.13440000000000002          1.0142953833565116E-003
  0.13550000000000001          9.7114878008142114E-004
  0.13660000000000000          9.2791498173028231E-004
  0.13769999999999999          8.8437279919162393E-004
  0.13880000000000003          8.4073067409917712E-004
  0.13990000000000002          7.9765188274905086E-004
  0.14100000000000001          7.5557793024927378E-004
  0.14210000000000000          7.1451399708166718E-004
  0.14319999999999999          6.7362672416493297E-004
  0.14429999999999998          6.3220004085451365E-004
  0.14540000000000003          5.9048447292298079E-004
  0.14650000000000002          5.4929807083681226E-004
  0.14760000000000001          5.0973566249012947E-004
  0.14870000000000000          4.7200324479490519E-004
  0.14979999999999999          4.3568143155425787E-004
  0.15090000000000003          3.9990071672946215E-004
  0.15200000000000002          3.6470734630711377E-004
  0.15310000000000001          3.3044186420738697E-004
  0.15420000000000000          2.9780121985822916E-004
  0.15529999999999999          2.6687103672884405E-004
  0.15639999999999998          2.3636297555640340E-004
  0.15750000000000003          2.0602002041414380E-004
  0.15860000000000002          1.7537965322844684E-004
  0.15970000000000001          1.4535913942381740E-004
  0.16080000000000000          1.1671787797240540E-004
  0.16189999999999999          9.0313988039270043E-005
  0.16300000000000003          6.5880718466360122E-005
  0.16410000000000002          4.2997085984097794E-005
  0.16520000000000001          2.1264848328428343E-005
  0.16630000000000000          7.5028100354757044E-007
  0.16739999999999999         -1.8532477042754181E-005
  0.16850000000000004         -3.7285943108145148E-005
  0.16960000000000003         -5.5500855523860082E-005
  0.17070000000000002         -7.3549199441913515E-005
  0.17180000000000001         -9.0952220489270985E-005
  0.17290000000000000         -1.0718866542447358E-004
  0.17399999999999999         -1.2198908370919526E-004
  0.17510000000000003         -1.3525671965908259E-004
  0.17620000000000002         -1.4731816190760583E-004
  0.17730000000000001         -1.5821975830476731E-004
  0.17840000000000000         -1.6819871962070465E-004
  0.17949999999999999         -1.7706418293528259E-004
  0.18060000000000004         -1.8497300334274769E-004
  0.18170000000000003         -1.9230850739404559E-004
  0.18280000000000002         -1.9944095402024686E-004
  0.18390000000000001         -2.0647910423576832E-004
  0.18500000000000000         -2.1307887800503522E-004
  0.18609999999999999         -2.1887003094889224E-004
  0.18720000000000003         -2.2354457178153098E-004
  0.18830000000000002         -2.2742143482901156E-004
  0.18940000000000001         -2.3084763961378485E-004
  0.19050000000000000         -2.3365464585367590E-004
  0.19159999999999999         -2.3598672123625875E-004
  0.19270000000000004         -2.3724729544483125E-004
  0.19380000000000003         -2.3738532036077231E-004
  0.19490000000000002         -2.3665482876822352E-004
  0.19600000000000001         -2.3575781960971653E-004
  0.19710000000000000         -2.3480375239159912E-004
  0.19819999999999999         -2.3389545094687492E-004
  0.19930000000000003         -2.3314128338824958E-004
  0.20040000000000002         -2.3266485368367285E-004
  0.20150000000000001         -2.3233385581988841E-004
  0.20260000000000000         -2.3173070803750306E-004
  0.20369999999999999         -2.3048477305565029E-004
  0.20480000000000004         -2.2808721405453980E-004
  0.20590000000000003         -2.2467917005997151E-004
  0.20700000000000002         -2.2089638514444232E-004
  0.20810000000000001         -2.1704850951209664E-004
  0.20920000000000000         -2.1363529958762228E-004
  0.21029999999999999         -2.1009033662267029E-004
  0.21140000000000003         -2.0627510093618184E-004
  0.21250000000000002         -2.0217444398440421E-004
  0.21360000000000001         -1.9824097398668528E-004
  0.21470000000000000         -1.9481533672660589E-004
  0.21579999999999999         -1.9178249931428581E-004
  0.21690000000000004         -1.8880081188399345E-004
  0.21800000000000003         -1.8553229165263474E-004
  0.21910000000000002         -1.8170170369558036E-004
  0.22020000000000001         -1.7744199431035668E-004
  0.22130000000000000         -1.7316950834356248E-004
  0.22239999999999999         -1.6901711933314800E-004
  0.22350000000000003         -1.6505936218891293E-004
  0.22460000000000002         -1.6088047414086759E-004
  0.22570000000000001         -1.5664698730688542E-004
  0.22680000000000000         -1.5246853581629694E-004
  0.22789999999999999         -1.4893252227921039E-004
  0.22900000000000004         -1.4576883404515684E-004
  0.23010000000000003         -1.4293220010586083E-004
  0.23120000000000002         -1.4000614464748651E-004
  0.23230000000000001         -1.3667809253092855E-004
  0.23340000000000000         -1.3288049376569688E-004
  0.23450000000000004         -1.2859901471529156E-004
  0.23560000000000003         -1.2392837379593402E-004
  0.23670000000000002         -1.1955064110225067E-004
  0.23780000000000001         -1.1563679436221719E-004
  0.23890000000000000         -1.1249023373238742E-004
  0.23999999999999999         -1.1001813982147723E-004
  0.24110000000000004         -1.0784947517095134E-004
  0.24220000000000003         -1.0543943790253252E-004
  0.24330000000000002         -1.0260186536470428E-004
  0.24440000000000001         -9.9678582046180964E-005
  0.24550000000000000         -9.6892283181659877E-005
  0.24660000000000004         -9.4226117653306574E-005
  0.24770000000000003         -9.1380359663162380E-005
  0.24880000000000002         -8.8131302618421614E-005
  0.24990000000000001         -8.4688072092831135E-005
  0.25100000000000000         -8.1707781646400690E-005
  0.25209999999999999         -7.9441189882345498E-005
  0.25320000000000004         -7.7916462032590061E-005
  0.25430000000000003         -7.6656717283185571E-005
  0.25540000000000002         -7.4646850407589227E-005
  0.25650000000000001         -7.1639813540969044E-005
  0.25760000000000000         -6.8267763708718121E-005
  0.25870000000000004         -6.5620719396974891E-005
  0.25980000000000003         -6.3931904151104391E-005
  0.26090000000000002         -6.2947154219727963E-005
  0.26200000000000001         -6.1748265579808503E-005
  0.26310000000000000         -5.9636498917825520E-005
  0.26419999999999999         -5.6490305723855272E-005
  0.26530000000000004         -5.3373209084384143E-005
  0.26640000000000003         -5.0932376325363293E-005
  0.26750000000000002         -4.9523729103384539E-005
  0.26860000000000001         -4.8670513933757320E-005
  0.26970000000000000         -4.7487352276220918E-005
  0.27080000000000004         -4.5696448069065809E-005
  0.27190000000000003         -4.3854830437339842E-005
  0.27300000000000002         -4.2205967474728823E-005
  0.27410000000000001         -4.0972558053908870E-005
  0.27520000000000000         -3.9713777368888259E-005
  0.27629999999999999         -3.8088201108621433E-005
  0.27740000000000004         -3.5882592783309519E-005
  0.27850000000000003         -3.3112759410869330E-005
  0.27960000000000002         -3.0322029488161206E-005
  0.28070000000000001         -2.8049249522155151E-005
  0.28179999999999999         -2.6293080736650154E-005
  0.28290000000000004         -2.5201603421010077E-005
  0.28400000000000003         -2.3971000700839795E-005
  0.28510000000000002         -2.2790747607359663E-005
  0.28620000000000001         -2.1509558791876771E-005
  0.28730000000000000         -1.9869372408720665E-005
  0.28840000000000005         -1.8174847355112433E-005
  0.28950000000000004         -1.6447353118564934E-005
  0.29060000000000002         -1.4707507034472656E-005
  0.29170000000000001         -1.2996479199500754E-005
  0.29280000000000000         -1.0953355740639381E-005
  0.29389999999999999         -8.6964982983772643E-006
  0.29500000000000004         -6.1900068430986721E-006
  0.29610000000000003         -3.7480151604540879E-006
  0.29720000000000002         -2.0109291654080153E-006
  0.29830000000000001         -7.0332401946870959E-007
  0.29940000000000000          4.8587298806523904E-007
  0.30050000000000004          2.1365053726185579E-006
  0.30160000000000003          4.4742851059709210E-006
  0.30270000000000002          7.2158100010710768E-006
  0.30380000000000001          9.8407381301512942E-006
  0.30490000000000000          1.2013962077617180E-005
  0.30599999999999999          1.3721483810513746E-005
  0.30709999999999998          1.5514693586737849E-005
  0.30819999999999997          1.7834858226706274E-005
  0.30930000000000007          2.0620784198399633E-005
  0.31040000000000006          2.3350416086032055E-005
  0.31150000000000005          2.5738683689269237E-005
  0.31260000000000004          2.7759579097619280E-005
  0.31370000000000003          2.9745900974376127E-005
  0.31480000000000002          3.1761937862029299E-005
  0.31590000000000001          3.4125638194382191E-005
  0.31700000000000000          3.6676774470834062E-005
  0.31809999999999999          3.9007361920084804E-005
  0.31919999999999998          4.1103492549154907E-005
  0.32029999999999997          4.3222236854489893E-005
  0.32140000000000007          4.5772052544634789E-005
  0.32250000000000006          4.9329606554238126E-005
  0.32360000000000005          5.3105264669284225E-005
  0.32470000000000004          5.6819641031324863E-005
  0.32580000000000003          5.9731442888733000E-005
  0.32690000000000002          6.1746453866362572E-005
  0.32800000000000001          6.3554951339028776E-005
  0.32910000000000000          6.5381835156586021E-005
  0.33019999999999999          6.7800450779031962E-005
  0.33129999999999998          7.0561371103394777E-005
  0.33239999999999997          7.3601906478870660E-005
  0.33350000000000007          7.6632488344330341E-005
  0.33460000000000006          7.9658551840111613E-005
  0.33570000000000005          8.2786798884626478E-005
  0.33680000000000004          8.5911648056935519E-005
  0.33790000000000003          8.9002627646550536E-005
  0.33900000000000002          9.1822883405257016E-005
  0.34010000000000001          9.4306305982172489E-005
  0.34120000000000000          9.6431656857021153E-005
  0.34229999999999999          9.8396143584977835E-005
  0.34339999999999998          1.0021159687312320E-004
  0.34449999999999997          1.0206415754510090E-004
  0.34560000000000007          1.0446854139445350E-004
  0.34670000000000006          1.0762630699900910E-004
  0.34780000000000005          1.1134053056593984E-004
  0.34890000000000004          1.1520206317072734E-004
