 -0.20000000000000001          0.0000000000000000
 -0.19890000000000002          0.0000000000000000
 -0.19780000000000000          0.0000000000000000
 -0.19670000000000001          0.0000000000000000
 -0.19560000000000002          0.0000000000000000
 -0.19450000000000001          0.0000000000000000
 -0.19340000000000002          0.0000000000000000
 -0.19230000000000000          0.0000000000000000
 -0.19120000000000001          0.0000000000000000
 -0.19010000000000002          5.4622141747117065E-030
 -0.18900000000000000         -6.0450661778720148E-029
 -0.18790000000000001         -3.1769350731334644E-028
 -0.18680000000000002          7.0323247100135118E-028
 -0.18570000000000000          6.1383608966059303E-027
 -0.18460000000000001          2.8015950159107081E-027
 -0.18350000000000000         -5.9269443251139526E-026
 -0.18240000000000001         -1.4718694959510737E-025
 -0.18130000000000002          1.7539205496370244E-025
 -0.18020000000000000          1.4717943569498514E-024
 -0.17910000000000001          2.0997767440971268E-024
 -0.17800000000000002         -4.1957259350821212E-024
 -0.17690000000000000         -2.0744157731843122E-023
 -0.17580000000000001         -2.3707423792162658E-023
 -0.17470000000000002          4.7334863399423147E-023
 -0.17360000000000000          2.0614422298459199E-022
 -0.17250000000000001          2.3639788435870819E-022
 -0.17140000000000000         -3.2361093816083270E-022
 -0.17030000000000001         -1.5591568967380716E-021
 -0.16920000000000002         -2.0296116292113797E-021
 -0.16810000000000000          1.2372410628903778E-021
 -0.16700000000000001          9.1623589512038099E-021
 -0.16589999999999999          1.4313819278540290E-020
 -0.16480000000000000          3.1587442149114919E-022
 -0.16370000000000001         -4.1434197434642872E-020
 -0.16260000000000002         -8.1131496528683383E-020
 -0.16150000000000000         -4.1864912964538648E-020
 -0.16040000000000001          1.3651888349742617E-019
 -0.15930000000000000          3.6612701877034496E-019
 -0.15820000000000001          3.4262405168254022E-019
 -0.15710000000000002         -2.5890680794606168E-019
 -0.15600000000000000         -1.2940127091492468E-018
 -0.15490000000000001         -1.7676243780459506E-018
 -0.15379999999999999         -2.7975969514639966E-019
 -0.15270000000000000          3.4061068373182849E-018
 -0.15160000000000001          6.7050458088354247E-018
 -0.15050000000000002          4.7262325010324886E-018
 -0.14940000000000001         -5.5120962691691051E-018
 -0.14830000000000002         -1.9222676547191174E-017
 -0.14720000000000000         -2.2554068709270913E-017
 -0.14610000000000001         -1.7188172063877186E-018
 -0.14500000000000002          3.9896813532674046E-017
 -0.14390000000000000          7.1214295040405301E-017
 -0.14280000000000001          4.7730041879983807E-017
 -0.14169999999999999         -4.7218503463013664E-017
 -0.14060000000000000         -1.6254101683644954E-016
 -0.13950000000000001         -1.8793116030264221E-016
 -0.13840000000000002         -3.4506937748503020E-017
 -0.13730000000000001          2.5494953205503553E-016
 -0.13619999999999999          4.6864485380964239E-016
 -0.13510000000000000          3.4590109766478492E-016
 -0.13400000000000001         -1.8216384531368569E-016
 -0.13290000000000002         -8.1784805647973900E-016
 -0.13180000000000000         -1.0043797992395089E-015
 -0.13070000000000001         -3.4830442130372099E-016
 -0.12959999999999999          9.1934055007137413E-016
 -0.12850000000000000          1.8876292283404430E-015
 -0.12740000000000001          1.5494830878846856E-015
 -0.12630000000000002         -2.8191617588963587E-016
 -0.12520000000000001         -2.4855171750387843E-015
 -0.12410000000000000         -3.2098648114215877E-015
 -0.12300000000000001         -1.3476395834769589E-015
 -0.12190000000000001          2.1932382921933209E-015
 -0.12080000000000000          4.7035464275323440E-015
 -0.11970000000000000          3.6462269632103229E-015
 -0.11860000000000001         -9.3675110054394946E-016
 -0.11750000000000001         -5.7323649272451524E-015
 -0.11640000000000000         -6.3345553777990719E-015
 -0.11530000000000000         -1.0592029479593594E-015
 -0.11420000000000001          6.7292574846265253E-015
 -0.11310000000000001          1.0360537704449599E-014
 -0.11200000000000000          5.1375750035513937E-015
 -0.11090000000000001         -6.7955869406601151E-015
 -0.10980000000000001         -1.6549888765199708E-014
 -0.10870000000000000         -1.4679079281851130E-014
 -0.10760000000000000          6.3523426461749386E-016
 -0.10650000000000001          2.0162148860192186E-014
 -0.10540000000000001          2.8930129098532140E-014
 -0.10430000000000000          1.7432415781075752E-014
 -0.10320000000000000         -9.6398490386406972E-015
 -0.10210000000000001         -3.4769946931400078E-014
 -0.10100000000000001         -3.9429366754028736E-014
  -9.9900000000000003E-002    -1.8131561857937135E-014
  -9.8799999999999999E-002     1.6230194813983412E-014
  -9.7700000000000009E-002     4.0780645191047099E-014
  -9.6600000000000005E-002     3.9255613191492567E-014
  -9.5500000000000002E-002     1.4301055253755114E-014
  -9.4400000000000012E-002    -1.4445426937416926E-014
  -9.3300000000000008E-002    -2.5735637511586744E-014
  -9.2200000000000004E-002    -1.3994995991890771E-014
  -9.1100000000000000E-002     5.4274199372229218E-015
  -9.0000000000000011E-002     8.4785312925712668E-015
  -8.8900000000000007E-002    -1.6058414838214345E-014
  -8.7800000000000003E-002    -5.2463370832974560E-014
  -8.6699999999999999E-002    -6.4712842831778083E-014
  -8.5600000000000009E-002    -2.2783370242501766E-014
  -8.4500000000000006E-002     6.8377215781817435E-014
  -8.3400000000000002E-002     1.6001609759452862E-013
  -8.2299999999999998E-002     1.8316778486755086E-013
  -8.1200000000000008E-002     9.4784233630254566E-014
  -8.0100000000000005E-002    -8.3055673341485281E-014
  -7.9000000000000001E-002    -2.6183176178411205E-013
  -7.7899999999999997E-002    -3.3240616747857998E-013
  -7.6800000000000007E-002    -2.3389864806273863E-013
  -7.5700000000000003E-002    -4.6122965607413733E-017
  -7.4600000000000000E-002     2.5300107061448918E-013
  -7.3500000000000010E-002     3.9484133193892768E-013
  -7.2399999999999992E-002     3.6048491665677251E-013
  -7.1300000000000002E-002     1.8511749208180439E-013
  -7.0200000000000012E-002    -3.0954764847299782E-014
  -6.9099999999999995E-002    -1.9823580982031991E-013
  -6.8000000000000005E-002    -2.9255940660506685E-013
  -6.6900000000000015E-002    -3.4359367022569753E-013
  -6.5799999999999997E-002    -3.7086021645142686E-013
  -6.4700000000000008E-002    -3.3158184856683925E-013
  -6.3599999999999990E-002    -1.4099672492919046E-013
  -6.2500000000000000E-002     2.3622109043136552E-013
  -6.1400000000000010E-002     6.9659035484281873E-013
  -6.0299999999999992E-002     1.0011407935300864E-012
  -5.9200000000000003E-002     9.0072789721631907E-013
  -5.8100000000000013E-002     3.1389875507908949E-013
  -5.6999999999999995E-002    -5.6966416176265633E-013
  -5.5900000000000005E-002    -1.3508204971257598E-012
  -5.4800000000000015E-002    -1.6277890493854308E-012
  -5.3699999999999998E-002    -1.2230597394233267E-012
  -5.2600000000000008E-002    -2.8529633625158646E-013
  -5.1499999999999990E-002     7.9708722261484510E-013
  -5.0400000000000000E-002     1.6090032951832089E-012
  -4.9300000000000010E-002     1.9076010302626623E-012
  -4.8199999999999993E-002     1.6864475311031968E-012
  -4.7100000000000003E-002     1.0858148147968594E-012
  -4.6000000000000013E-002     2.3919443357424408E-013
  -4.4899999999999995E-002    -8.1232503362782538E-013
  -4.3800000000000006E-002    -2.0608892196960493E-012
  -4.2699999999999988E-002    -3.3665565994656088E-012
  -4.1599999999999998E-002    -4.3235844592037775E-012
  -4.0500000000000008E-002    -4.3054748134763177E-012
  -3.9399999999999991E-002    -2.7332717252720462E-012
  -3.8300000000000001E-002     5.5090253105877229E-013
  -3.7200000000000011E-002     5.0386539558744392E-012
  -3.6099999999999993E-002     9.6432159132908701E-012
  -3.5000000000000003E-002     1.3140212008766472E-011
  -3.3900000000000013E-002     1.4744844234471088E-011
  -3.2799999999999996E-002     1.4488492003361664E-011
  -3.1700000000000006E-002     1.3160843942428002E-011
  -3.0599999999999988E-002     1.1860895945958738E-011
  -2.9499999999999998E-002     1.1458734135161297E-011
  -2.8400000000000009E-002     1.2312047215079502E-011
  -2.7299999999999991E-002     1.4367068298937191E-011
  -2.6200000000000001E-002     1.7469248270174376E-011
  -2.5100000000000011E-002     2.1562206881098334E-011
  -2.3999999999999994E-002     2.6587737220196139E-011
  -2.2900000000000004E-002     3.2201762090178221E-011
  -2.1800000000000014E-002     3.7627834875708643E-011
  -2.0699999999999996E-002     4.1891854568598674E-011
  -1.9600000000000006E-002     4.4370330326559682E-011
  -1.8499999999999989E-002     4.5295364681230410E-011
  -1.7399999999999999E-002     4.5837039025498072E-011
  -1.6300000000000009E-002     4.7655823731673763E-011
  -1.5199999999999991E-002     5.2174001230476108E-011
  -1.4100000000000001E-002     5.9988312928194176E-011
  -1.3000000000000012E-002     7.0725890422007609E-011
  -1.1899999999999994E-002     8.3350139290505609E-011
  -1.0800000000000004E-002     9.6677638117270703E-011
  -9.6999999999999864E-003     1.0981816844779502E-010
  -8.5999999999999965E-003     1.2237677537996206E-010
  -7.5000000000000067E-003     1.3442898183502194E-010
  -6.3999999999999890E-003     1.4638336376382455E-010
  -5.2999999999999992E-003     1.5885041892982343E-010
  -4.2000000000000093E-003     1.7257593964981055E-010
  -3.0999999999999917E-003     1.8841746218800637E-010
  -2.0000000000000018E-003     2.0728348204546165E-010
  -9.0000000000001190E-004     2.2995826076677162E-010
   2.0000000000000573E-004     2.5682689308581530E-010
   1.2999999999999956E-003     2.8765423376597710E-010
   2.4000000000000132E-003     3.2163952057295830E-010
   3.5000000000000031E-003     3.5784650243009253E-010
   4.5999999999999930E-003     3.9582714883579229E-010
   5.7000000000000106E-003     4.3602288446464854E-010
   6.8000000000000005E-003     4.7959125559771110E-010
   7.8999999999999904E-003     5.2770438019322796E-010
   9.0000000000000080E-003     5.8082016973770578E-010
   1.0099999999999998E-002     6.3853627940702040E-010
   1.1199999999999988E-002     7.0022387888002413E-010
   1.2300000000000005E-002     7.6599643294983366E-010
   1.3399999999999995E-002     8.3722817567633001E-010
   1.4500000000000013E-002     9.1614210662172013E-010
   1.5600000000000003E-002     1.0047283005576446E-009
   1.6699999999999993E-002     1.1038210345759580E-009
   1.7800000000000010E-002     1.2130498827644942E-009
   1.8900000000000000E-002     1.3316743263658282E-009
   1.9999999999999990E-002     1.4595951114415584E-009
   2.1100000000000008E-002     1.5977266176747662E-009
   2.2199999999999998E-002     1.7474888203139471E-009
   2.3300000000000015E-002     1.9099182235748913E-009
   2.4400000000000005E-002     2.0851873561156253E-009
   2.5499999999999995E-002     2.2729433890589235E-009
   2.6600000000000013E-002     2.4732158543372407E-009
   2.7700000000000002E-002     2.6872366554187010E-009
   2.8799999999999992E-002     2.9176501215033568E-009
   2.9900000000000010E-002     3.1680391643362782E-009
   3.1000000000000000E-002     3.4420728489692465E-009
   3.2099999999999990E-002     3.7426683974217667E-009
   3.3200000000000007E-002     4.0714533966479394E-009
   3.4299999999999997E-002     4.4286929679060449E-009
   3.5400000000000015E-002     4.8137316355223447E-009
   3.6500000000000005E-002     5.2258419813711043E-009
   3.7599999999999995E-002     5.6651225932569105E-009
   3.8700000000000012E-002     6.1330043266139000E-009
   3.9800000000000002E-002     6.6321268477054218E-009
   4.0899999999999992E-002     7.1658088351966853E-009
   4.2000000000000010E-002     7.7376220986025146E-009
   4.3099999999999999E-002     8.3513729265405345E-009
   4.4200000000000017E-002     9.0112717288093336E-009
   4.5300000000000007E-002     9.7217238703706244E-009
   4.6399999999999997E-002     1.0486493451367096E-008
   4.7500000000000014E-002     1.1307729863574423E-008
   4.8600000000000004E-002     1.2185797260144682E-008
   4.9699999999999994E-002     1.3120453168369295E-008
   5.0800000000000012E-002     1.4112796264953431E-008
   5.1900000000000002E-002     1.5166651934350739E-008
   5.2999999999999992E-002     1.6288279169884845E-008
   5.4099999999999981E-002     1.7484611092299929E-008
   5.5200000000000027E-002     1.8761333819838910E-008
   5.6300000000000017E-002     2.0122199018146603E-008
   5.7400000000000007E-002     2.1569842800772676E-008
   5.8499999999999996E-002     2.3107165958435871E-008
   5.9599999999999986E-002     2.4738003645552453E-008
   6.0700000000000032E-002     2.6466745239872580E-008
   6.1800000000000022E-002     2.8297598930748791E-008
   6.2900000000000011E-002     3.0234524217576109E-008
   6.4000000000000001E-002     3.2281999295946662E-008
   6.5099999999999991E-002     3.4445882590716792E-008
   6.6199999999999981E-002     3.6733435848645968E-008
   6.7300000000000026E-002     3.9152368458417186E-008
   6.8400000000000016E-002     4.1709661502409290E-008
   6.9500000000000006E-002     4.4411070376781936E-008
   7.0599999999999996E-002     4.7261515589980263E-008
   7.1699999999999986E-002     5.0265811069039046E-008
   7.2800000000000031E-002     5.3429026536377933E-008
   7.3900000000000021E-002     5.6756420008241548E-008
   7.5000000000000011E-002     6.0253476874549960E-008
   7.6100000000000001E-002     6.3926222537702415E-008
   7.7199999999999991E-002     6.7781648738218792E-008
   7.8299999999999981E-002     7.1827493286491517E-008
   7.9400000000000026E-002     7.6071401622357371E-008
   8.0500000000000016E-002     8.0520131007233431E-008
   8.1600000000000006E-002     8.5179635789245367E-008
   8.2699999999999996E-002     9.0055976897929213E-008
   8.3799999999999986E-002     9.5156238444360497E-008
   8.4900000000000031E-002     1.0048830034747880E-007
   8.6000000000000021E-002     1.0605957356801810E-007
   8.7100000000000011E-002     1.1187589166183898E-007
   8.8200000000000001E-002     1.1794175946988616E-007
   8.9299999999999990E-002     1.2426194473391661E-007
   9.0399999999999980E-002     1.3084304839594552E-007
   9.1500000000000026E-002     1.3769334827884450E-007
   9.2600000000000016E-002     1.4482115773262194E-007
   9.3700000000000006E-002     1.5223305638301099E-007
   9.4799999999999995E-002     1.5993377644463180E-007
   9.5899999999999985E-002     1.6792776591501024E-007
   9.7000000000000031E-002     1.7622075176859653E-007
   9.8100000000000021E-002     1.8481966890249169E-007
   9.9200000000000010E-002     1.9373094062302698E-007
  0.10030000000000000          2.0295875913234340E-007
  0.10139999999999999          2.1250534132377652E-007
  0.10249999999999998          2.2237288987980719E-007
  0.10360000000000003          2.3256548331573867E-007
  0.10470000000000002          2.4308917545567965E-007
  0.10580000000000001          2.5395019065399538E-007
  0.10690000000000000          2.6515300532992114E-007
  0.10799999999999998          2.7669989322021138E-007
  0.10910000000000003          2.8859227541033761E-007
  0.11020000000000002          3.0083197088970337E-007
  0.11130000000000001          3.1342122497335367E-007
  0.11240000000000000          3.2636137348163174E-007
  0.11349999999999999          3.3965181955863954E-007
  0.11460000000000004          3.5329082948010182E-007
  0.11570000000000003          3.6727703900396591E-007
  0.11680000000000001          3.8161039128681296E-007
  0.11790000000000000          3.9629151160625042E-007
  0.11899999999999999          4.1132011574518401E-007
  0.12009999999999998          4.2669407207540644E-007
  0.12120000000000003          4.4241022578717093E-007
  0.12230000000000002          4.5846599050491932E-007
  0.12340000000000001          4.7485960408266692E-007
  0.12450000000000000          4.9158870751853101E-007
  0.12559999999999999          5.0864838385678013E-007
  0.12670000000000003          5.2603121503125294E-007
  0.12780000000000002          5.4372924296330893E-007
  0.12890000000000001          5.6173627172029228E-007
  0.13000000000000000          5.8004775382869411E-007
  0.13109999999999999          5.9865914181500557E-007
  0.13219999999999998          6.1756333025186905E-007
  0.13330000000000003          6.3675059891465935E-007
  0.13440000000000002          6.5621088651823811E-007
  0.13550000000000001          6.7593617814054596E-007
  0.13660000000000000          6.9592044837918365E-007
  0.13769999999999999          7.1615727392781992E-007
  0.13880000000000003          7.3663716193550499E-007
  0.13990000000000002          7.5734783422376495E-007
  0.14100000000000001          7.7827672839703155E-007
  0.14210000000000000          7.9941344210965326E-007
  0.14319999999999999          8.2074956253563869E-007
  0.14429999999999998          8.4227605157138896E-007
  0.14540000000000003          8.6398125631603762E-007
  0.14650000000000002          8.8585193225299008E-007
  0.14760000000000001          9.0787654016821762E-007
  0.14870000000000000          9.3004672407914768E-007
  0.14979999999999999          9.5235571961893584E-007
  0.15090000000000003          9.7479482974449638E-007
  0.15200000000000002          9.9735120784316678E-007
  0.15310000000000001          1.0200095630352735E-006
  0.15420000000000000          1.0427563665871276E-006
  0.15529999999999999          1.0655824098648736E-006
  0.15639999999999998          1.0884813264055992E-006
  0.15750000000000003          1.1114454991911771E-006
  0.15860000000000002          1.1344631047904841E-006
  0.15970000000000001          1.1575202734093182E-006
  0.16080000000000000          1.1806057500507450E-006
  0.16189999999999999          1.2037140777465538E-006
  0.16300000000000003          1.2268425280126394E-006
  0.16410000000000002          1.2499866670623305E-006
  0.16520000000000001          1.2731373999486095E-006
  0.16630000000000000          1.2962827895535156E-006
  0.16739999999999999          1.3194130588090047E-006
  0.16850000000000004          1.3425246834231075E-006
  0.16960000000000003          1.3656183455168502E-006
  0.17070000000000002          1.3886935903428821E-006
  0.17180000000000001          1.4117456430540187E-006
  0.17290000000000000          1.4347670003189705E-006
  0.17399999999999999          1.4577526599168777E-006
  0.17510000000000003          1.4807021671003895E-006
  0.17620000000000002          1.5036188187877997E-006
  0.17730000000000001          1.5265047750290250E-006
  0.17840000000000000          1.5493587852688506E-006
  0.17949999999999999          1.5721784620836843E-006
  0.18060000000000004          1.5949638054735260E-006
  0.18170000000000003          1.6177192492250470E-006
  0.18280000000000002          1.6404510461143218E-006
  0.18390000000000001          1.6631635162411840E-006
  0.18500000000000000          1.6858575691003352E-006
  0.18609999999999999          1.7085343415601528E-006
  0.18720000000000003          1.7311991769020096E-006
  0.18830000000000002          1.7538624206281384E-006
  0.18940000000000001          1.7765360098564997E-006
  0.19050000000000000          1.7992281300394097E-006
  0.19159999999999999          1.8219434423372149E-006
  0.19270000000000004          1.8446869489707751E-006
  0.19380000000000003          1.8674680859476211E-006
  0.19490000000000002          1.8903006093751173E-006
  0.19600000000000001          1.9131980479869526E-006
  0.19710000000000000          1.9361689282959560E-006
  0.19819999999999999          1.9592168882809347E-006
  0.19930000000000003          1.9823453385470202E-006
  0.20040000000000002          2.0055638287885813E-006
  0.20150000000000001          2.0288873656681972E-006
  0.20260000000000000          2.0523334569588769E-006
  0.20369999999999999          2.0759164272021735E-006
  0.20480000000000004          2.0996453713451046E-006
  0.20590000000000003          2.1235250642348547E-006
  0.20700000000000002          2.1475625544553623E-006
  0.20810000000000001          2.1717696654377505E-006
  0.20920000000000000          2.1961598122288706E-006
  0.21029999999999999          2.2207441361388192E-006
  0.21140000000000003          2.2455299131252104E-006
  0.21250000000000002          2.2705219180352287E-006
  0.21360000000000001          2.2957278815738391E-006
  0.21470000000000000          2.3211580355564365E-006
  0.21579999999999999          2.3468246581614949E-006
  0.21690000000000004          2.3727384359517600E-006
  0.21800000000000003          2.3989048258954426E-006
  0.21910000000000002          2.4253261017292971E-006
  0.22020000000000001          2.4520038550690515E-006
  0.22130000000000000          2.4789405870251358E-006
  0.22239999999999999          2.5061419819394359E-006
  0.22350000000000003          2.5336153157695662E-006
  0.22460000000000002          2.5613646812416846E-006
  0.22570000000000001          2.5893912152241683E-006
  0.22680000000000000          2.6176919618592365E-006
  0.22789999999999999          2.6462639652891085E-006
  0.22900000000000004          2.6751058612717316E-006
  0.23010000000000003          2.7042183319281321E-006
  0.23120000000000002          2.7336025141266873E-006
  0.23230000000000001          2.7632563615043182E-006
  0.23340000000000000          2.7931735075981123E-006
  0.23450000000000004          2.8233444027137011E-006
  0.23560000000000003          2.8537617708934704E-006
  0.23670000000000002          2.8844222015322885E-006
  0.23780000000000001          2.9153252398828045E-006
  0.23890000000000000          2.9464670205925358E-006
  0.23999999999999999          2.9778357202303596E-006
  0.24110000000000004          3.0094142857706174E-006
  0.24220000000000003          3.0411874831770547E-006
  0.24330000000000002          3.0731468996236799E-006
  0.24440000000000001          3.1052882150106598E-006
  0.24550000000000000          3.1376055176224327E-006
  0.24660000000000004          3.1700849376647966E-006
  0.24770000000000003          3.2027066936279880E-006
  0.24880000000000002          3.2354521408706205E-006
  0.24990000000000001          3.2683108202036237E-006
  0.25100000000000000          3.3012781841534888E-006
  0.25209999999999999          3.3343465020152507E-006
  0.25320000000000004          3.3674989481369266E-006
  0.25430000000000003          3.4007132398983231E-006
  0.25540000000000002          3.4339693684160011E-006
  0.25650000000000001          3.4672573292482411E-006
  0.25760000000000000          3.5005723475478590E-006
  0.25870000000000004          3.5339064652362140E-006
  0.25980000000000003          3.5672414924192708E-006
  0.26090000000000002          3.6005533274874324E-006
  0.26200000000000001          3.6338246900413651E-006
  0.26310000000000000          3.6670503504865337E-006
  0.26419999999999999          3.7002316730649909E-006
  0.26530000000000004          3.7333643376769032E-006
  0.26640000000000003          3.7664296996808844E-006
  0.26750000000000002          3.7994025205989601E-006
  0.26860000000000001          3.8322641557897441E-006
  0.26970000000000000          3.8650118767691310E-006
  0.27080000000000004          3.8976518226263579E-006
  0.27190000000000003          3.9301876313402317E-006
  0.27300000000000002          3.9626070247322787E-006
  0.27410000000000001          3.9948913581611123E-006
  0.27520000000000000          4.0270242607221007E-006
  0.27629999999999999          4.0590066419099458E-006
  0.27740000000000004          4.0908507799031213E-006
  0.27850000000000003          4.1225653149012942E-006
  0.27960000000000002          4.1541438804415520E-006
  0.28070000000000001          4.1855696508719120E-006
  0.28179999999999999          4.2168312575086020E-006
  0.28290000000000004          4.2479373405512888E-006
  0.28400000000000003          4.2789056351466570E-006
  0.28510000000000002          4.3097502384625841E-006
  0.28620000000000001          4.3404711504990701E-006
  0.28730000000000000          4.3710592763090972E-006
  0.28840000000000005          4.4015091589244548E-006
  0.28950000000000004          4.4318312575342134E-006
  0.29060000000000002          4.4620469452638645E-006
  0.29170000000000001          4.4921730477653909E-006
  0.29280000000000000          4.5222145672596525E-006
  0.29389999999999999          4.5521696847572457E-006
  0.29500000000000004          4.5820411287422758E-006
  0.29610000000000003          4.6118443606246728E-006
  0.29720000000000002          4.6416007535299286E-006
  0.29830000000000001          4.6713253141206224E-006
  0.29940000000000000          4.7010230446176138E-006
  0.30050000000000004          4.7306966735050082E-006
  0.30160000000000003          4.7603575694665778E-006
  0.30270000000000002          4.7900275603751652E-006
  0.30380000000000001          4.8197275646089111E-006
  0.30490000000000000          4.8494698603462894E-006
  0.30599999999999999          4.8792562665767036E-006
  0.30709999999999998          4.9090899665316101E-006
  0.30819999999999997          4.9389823288947809E-006
  0.30930000000000007          4.9689538172970060E-006
  0.31040000000000006          4.9990235311270226E-006
  0.31150000000000005          5.0291987463424448E-006
  0.31260000000000004          5.0594794629432727E-006
  0.31370000000000003          5.0898706831503659E-006
  0.31480000000000002          5.1203860493842512E-006
  0.31590000000000001          5.1510423872969113E-006
  0.31700000000000000          5.1818497013300657E-006
  0.31809999999999999          5.2128084462310653E-006
  0.31919999999999998          5.2439108912949450E-006
  0.32029999999999997          5.2751533985428978E-006
  0.32140000000000007          5.3065436986798886E-006
  0.32250000000000006          5.3380922508949880E-006
  0.32360000000000005          5.3698063311458100E-006
  0.32470000000000004          5.4016818467061967E-006
  0.32580000000000003          5.4337069741450250E-006
  0.32690000000000002          5.4658721637679264E-006
  0.32800000000000001          5.4981746870907955E-006
  0.32910000000000000          5.5306145441136323E-006
  0.33019999999999999          5.5631844588788226E-006
  0.33129999999999998          5.5958689699764363E-006
  0.33239999999999997          5.6286503422597889E-006
  0.33350000000000007          5.6615144785610028E-006
  0.33460000000000006          5.6944522839330602E-006
  0.33570000000000005          5.7274523896921892E-006
  0.33680000000000004          5.7604952417023014E-006
  0.33790000000000003          5.7935567383538000E-006
  0.33900000000000002          5.8266136875317898E-006
  0.34010000000000001          5.8596492635842878E-006
  0.34120000000000000          5.8926484598487150E-006
  0.34229999999999999          5.9255867199681234E-006
  0.34339999999999998          5.9584299378911965E-006
  0.34449999999999997          5.9911394600931089E-006
  0.34560000000000007          6.0236861827434041E-006
  0.34670000000000006          6.0560546444321517E-006
  0.34780000000000005          6.0882302932441235E-006
  0.34890000000000004          6.1201840253488626E-006
