 -0.20000000000000001          0.0000000000000000
 -0.19890000000000002          0.0000000000000000
 -0.19780000000000000          0.0000000000000000
 -0.19670000000000001          0.0000000000000000
 -0.19560000000000002          0.0000000000000000
 -0.19450000000000001          0.0000000000000000
 -0.19340000000000002          0.0000000000000000
 -0.19230000000000000          0.0000000000000000
 -0.19120000000000001          0.0000000000000000
 -0.19010000000000002          0.0000000000000000
 -0.18900000000000000         -1.9517799686937958E-027
 -0.18790000000000001         -3.8008159659748057E-026
 -0.18680000000000002         -3.0835877601416625E-025
 -0.18570000000000000         -1.3352604808416880E-024
 -0.18460000000000001         -2.6913013328639342E-024
 -0.18350000000000000          3.3760986656965847E-024
 -0.18240000000000001          4.1961313307013143E-023
 -0.18130000000000002          1.3787728571937121E-022
 -0.18020000000000000          1.9636453132683710E-022
 -0.17910000000000001         -2.2533356111579347E-022
 -0.17800000000000002         -1.8820224938721026E-021
 -0.17690000000000000         -4.6096275416490533E-021
 -0.17580000000000001         -4.4193388422577775E-021
 -0.17470000000000002          8.2523488018832408E-021
 -0.17360000000000000          4.0988815604745619E-020
 -0.17250000000000001          7.5511198469646229E-020
 -0.17140000000000000          4.1445671334467778E-020
 -0.17030000000000001         -1.5978547080049681E-019
 -0.16920000000000002         -5.1948219428400767E-019
 -0.16810000000000000         -7.1338578927441393E-019
 -0.16700000000000001         -7.6991257230050876E-020
 -0.16589999999999999          1.8539671447454608E-018
 -0.16480000000000000          4.2172434547102341E-018
 -0.16370000000000001          4.0764581416343213E-018
 -0.16260000000000002         -2.1371441556468643E-018
 -0.16150000000000000         -1.4115737891543911E-017
 -0.16040000000000001         -2.2868226942834878E-017
 -0.15930000000000000         -1.2480554021759285E-017
 -0.15820000000000001          2.6001286009442777E-017
 -0.15710000000000002          7.4231737418435439E-017
 -0.15600000000000000          8.1182496401049128E-017
 -0.15490000000000001         -3.7144417193698762E-018
 -0.15379999999999999         -1.6422024641949139E-016
 -0.15270000000000000         -2.7364746672831899E-016
 -0.15160000000000001         -1.5298157504730492E-016
 -0.15050000000000002          2.5170028719958843E-016
 -0.14940000000000001          6.9455145251812048E-016
 -0.14830000000000002          6.8040176713423739E-016
 -0.14720000000000000         -1.3944614736885881E-016
 -0.14610000000000001         -1.4406260133935887E-015
 -0.14500000000000002         -2.1042936917427518E-015
 -0.14390000000000000         -9.3359420874953268E-016
 -0.14280000000000001          2.0583002262233169E-015
 -0.14169999999999999          4.8983140304569451E-015
 -0.14060000000000000          4.6147176588373119E-015
 -0.13950000000000001         -1.9034677915420327E-016
 -0.13840000000000002         -7.1397745436121637E-015
 -0.13730000000000001         -1.0842049676942304E-014
 -0.13619999999999999         -7.1232260609216565E-015
 -0.13510000000000000          2.4725838289671584E-015
 -0.13400000000000001          1.0859167365773366E-014
 -0.13290000000000002          1.1856928131925674E-014
 -0.13180000000000000          7.5557558121405397E-015
 -0.13070000000000001          7.4474516384057630E-015
 -0.12959999999999999          1.6110197350411790E-014
 -0.12850000000000000          1.9855629659437483E-014
 -0.12740000000000001         -8.8522608636247037E-015
 -0.12630000000000002         -8.1244716900255587E-014
 -0.12520000000000001         -1.5687123366796285E-013
 -0.12410000000000000         -1.4526566256313489E-013
 -0.12300000000000001          2.8745614829434052E-014
 -0.12190000000000001          3.2684301771133961E-013
 -0.12080000000000000          5.5419037414683459E-013
 -0.11970000000000000          4.5246846634011684E-013
 -0.11860000000000001         -8.8545876631308112E-014
 -0.11750000000000001         -8.4897643385858923E-013
 -0.11640000000000000         -1.3163431933013725E-012
 -0.11530000000000000         -1.0033052947472365E-012
 -0.11420000000000001          1.3483154480062320E-013
 -0.11310000000000001          1.5214347793765515E-012
 -0.11200000000000000          2.2488269926790316E-012
 -0.11090000000000001          1.7102687538753103E-012
 -0.10980000000000001          1.0773967032114487E-013
 -0.10870000000000000         -1.6215489237816905E-012
 -0.10760000000000000         -2.4802486453534556E-012
 -0.10650000000000001         -2.1615393936552652E-012
 -0.10540000000000001         -1.2002948548278658E-012
 -0.10430000000000000         -3.3423350892514136E-013
 -0.10320000000000000          3.4170089717802665E-013
 -0.10210000000000001          1.5076196584543067E-012
 -0.10100000000000001          3.6817389414967039E-012
  -9.9900000000000003E-002     5.9767230227436574E-012
  -9.8799999999999999E-002     5.9597765091068400E-012
  -9.7700000000000009E-002     1.3668575819802964E-012
  -9.6600000000000005E-002    -7.2853381313797705E-012
  -9.5500000000000002E-002    -1.5490251442651370E-011
  -9.4400000000000012E-002    -1.6760089843748105E-011
  -9.3300000000000008E-002    -7.2583289205396806E-012
  -9.2200000000000004E-002     1.0137091686901467E-011
  -9.1100000000000000E-002     2.5965578645537057E-011
  -9.0000000000000011E-002     2.9485920649552355E-011
  -8.8900000000000007E-002     1.6065074617821473E-011
  -8.7800000000000003E-002    -8.6556734002485314E-012
  -8.6699999999999999E-002    -3.1345100126589642E-011
  -8.5600000000000009E-002    -3.9028367343485471E-011
  -8.4500000000000006E-002    -2.7119225268212865E-011
  -8.3400000000000002E-002    -1.8601784609190153E-012
  -8.2299999999999998E-002     2.4182423424834454E-011
  -8.1200000000000008E-002     3.9757606928869649E-011
  -8.0100000000000005E-002     4.0037948650928357E-011
  -7.9000000000000001E-002     2.6408866413141219E-011
  -7.7899999999999997E-002     3.0314546446003066E-012
  -7.6800000000000007E-002    -2.5347848819912144E-011
  -7.5700000000000003E-002    -5.2164640662599737E-011
  -7.4600000000000000E-002    -6.6913960483638846E-011
  -7.3500000000000010E-002    -5.7006954712335300E-011
  -7.2399999999999992E-002    -1.5555617557949653E-011
  -7.1300000000000002E-002     4.9170955501720570E-011
  -7.0200000000000012E-002     1.1087285256561330E-010
  -6.9099999999999995E-002     1.3463026526938648E-010
  -6.8000000000000005E-002     9.6028157647864987E-011
  -6.6900000000000015E-002    -7.6318741907763221E-013
  -6.5799999999999997E-002    -1.1839471070196339E-010
  -6.4700000000000008E-002    -2.0082323304304595E-010
  -6.3599999999999990E-002    -2.0106927234309069E-010
  -6.2500000000000000E-002    -1.0770535158188821E-010
  -6.1400000000000010E-002     4.5013257010673158E-011
  -6.0299999999999992E-002     1.9031844156192079E-010
  -5.9200000000000003E-002     2.5999893904504745E-010
  -5.8100000000000013E-002     2.1810520056675387E-010
  -5.6999999999999995E-002     7.9968628940996211E-011
  -5.5900000000000005E-002    -9.3665575295887038E-011
  -5.4800000000000015E-002    -2.2474047622900173E-010
  -5.3699999999999998E-002    -2.5389976232581546E-010
  -5.2600000000000008E-002    -1.6641549249740706E-010
  -5.1499999999999990E-002     3.2999111256037938E-012
  -5.0400000000000000E-002     1.8738870177781308E-010
  -4.9300000000000010E-002     3.0958663410629583E-010
  -4.8199999999999993E-002     3.0842525755581107E-010
  -4.7100000000000003E-002     1.5481776971526529E-010
  -4.6000000000000013E-002    -1.3350645589049748E-010
  -4.4899999999999995E-002    -4.8110398997991410E-010
  -4.3800000000000006E-002    -7.5786088515883421E-010
  -4.2699999999999988E-002    -8.1125750561739096E-010
  -4.1599999999999998E-002    -5.3091658847037593E-010
  -4.0500000000000008E-002     7.8540091097423215E-011
  -3.9399999999999991E-002     8.6232027074473194E-010
  -3.8300000000000001E-002     1.5572175771083607E-009
  -3.7200000000000011E-002     1.9081067836879129E-009
  -3.6099999999999993E-002     1.8037225046896310E-009
  -3.5000000000000003E-002     1.3502010620669580E-009
  -3.3900000000000013E-002     8.2771089982003332E-010
  -3.2799999999999996E-002     5.4425652873391073E-010
  -3.1700000000000006E-002     6.6740618587246558E-010
  -3.0599999999999988E-002     1.1327564441998561E-009
  -2.9499999999999998E-002     1.6830637994402764E-009
  -2.8400000000000009E-002     2.0133394951216133E-009
  -2.7299999999999991E-002     1.9364472247929143E-009
  -2.6200000000000001E-002     1.4780603407871240E-009
  -2.5100000000000011E-002     8.5771478808283064E-010
  -2.3999999999999994E-002     3.7904732130833452E-010
  -2.2900000000000004E-002     2.9571542436990228E-010
  -2.1800000000000014E-002     7.1930716938339856E-010
  -2.0699999999999996E-002     1.6005122782658532E-009
  -1.9600000000000006E-002     2.7715736372613264E-009
  -1.8499999999999989E-002     4.0121750366495235E-009
  -1.7399999999999999E-002     5.1035429216028660E-009
  -1.6300000000000009E-002     5.8597167118534799E-009
  -1.5199999999999991E-002     6.1511187254836841E-009
  -1.4100000000000001E-002     5.9425295795278998E-009
  -1.3000000000000012E-002     5.3463096172379210E-009
  -1.1899999999999994E-002     4.6553583210595662E-009
  -1.0800000000000004E-002     4.3009436012653168E-009
  -9.6999999999999864E-003     4.7070733977250256E-009
  -8.5999999999999965E-003     6.0831997217292155E-009
  -7.5000000000000067E-003     8.2668014655951083E-009
  -6.3999999999999890E-003     1.0735706545972334E-008
  -5.2999999999999992E-003     1.2828346385163059E-008
  -4.2000000000000093E-003     1.4077179422145036E-008
  -3.0999999999999917E-003     1.4466605691154655E-008
  -2.0000000000000018E-003     1.4450011853739397E-008
  -9.0000000000001190E-004     1.4701682538031946E-008
   2.0000000000000573E-004     1.5749318293956094E-008
   1.2999999999999956E-003     1.7712828537241876E-008
   2.4000000000000132E-003     2.0304971926066173E-008
   3.5000000000000031E-003     2.3075722666021647E-008
   4.5999999999999930E-003     2.5725240604401733E-008
   5.7000000000000106E-003     2.8276515351421949E-008
   6.8000000000000005E-003     3.1004912415255603E-008
   7.8999999999999904E-003     3.4190055231420047E-008
   9.0000000000000080E-003     3.7871739522188363E-008
   1.0099999999999998E-002     4.1784723237014987E-008
   1.1199999999999988E-002     4.5528544490025524E-008
   1.2300000000000005E-002     4.8873438629470911E-008
   1.3399999999999995E-002     5.2005308504021741E-008
   1.4500000000000013E-002     5.5531515386064711E-008
   1.5600000000000003E-002     6.0201621465694188E-008
   1.6699999999999993E-002     6.6477134907927393E-008
   1.7800000000000010E-002     7.4207235911671887E-008
   1.8900000000000000E-002     8.2642387155829056E-008
   1.9999999999999990E-002     9.0832649846106506E-008
   2.1100000000000008E-002     9.8207692644791678E-008
   2.2199999999999998E-002     1.0498349922727357E-007
   2.3300000000000015E-002     1.1211231054630844E-007
   2.4400000000000005E-002     1.2076755240286730E-007
   2.5499999999999995E-002     1.3166422263566346E-007
   2.6600000000000013E-002     1.4464198727637267E-007
   2.7700000000000002E-002     1.5878195824825525E-007
   2.8799999999999992E-002     1.7298502541507332E-007
   2.9900000000000010E-002     1.8664508161236881E-007
   3.1000000000000000E-002     2.0000470613013022E-007
   3.2099999999999990E-002     2.1400150274075713E-007
   3.3200000000000007E-002     2.2973729585373803E-007
   3.4299999999999997E-002     2.4791347641439643E-007
   3.5400000000000015E-002     2.6855352075472183E-007
   3.6500000000000005E-002     2.9112842980794085E-007
   3.7599999999999995E-002     3.1495852681473480E-007
   3.8700000000000012E-002     3.3963149803639681E-007
   3.9800000000000002E-002     3.6520330581879534E-007
   4.0899999999999992E-002     3.9209558622133045E-007
   4.2000000000000010E-002     4.2078690398739127E-007
   4.3099999999999999E-002     4.5151767835704959E-007
   4.4200000000000017E-002     4.8421566134493332E-007
   4.5300000000000007E-002     5.1870034667444997E-007
   4.6399999999999997E-002     5.5501857332274085E-007
   4.7500000000000014E-002     5.9363361515352153E-007
   4.8600000000000004E-002     6.3527249949402176E-007
   4.9699999999999994E-002     6.8048899493078352E-007
   5.0800000000000012E-002     7.2925064387163729E-007
   5.1900000000000002E-002     7.8089794897095999E-007
   5.2999999999999992E-002     8.3457234723027796E-007
   5.4099999999999981E-002     8.8984307922146400E-007
   5.5200000000000027E-002     9.4708190090386779E-007
   5.6300000000000017E-002     1.0073044904856943E-006
   5.7400000000000007E-002     1.0715907592384610E-006
   5.8499999999999996E-002     1.1405046507206862E-006
   5.9599999999999986E-002     1.2139240652686567E-006
   6.0700000000000032E-002     1.2913512819068274E-006
   6.1800000000000022E-002     1.3723990832659183E-006
   6.2900000000000011E-002     1.4570790654033772E-006
   6.4000000000000001E-002     1.5457203517144080E-006
   6.5099999999999991E-002     1.6386629795306362E-006
   6.6199999999999981E-002     1.7360270021526958E-006
   6.7300000000000026E-002     1.8377405694991467E-006
   6.8400000000000016E-002     1.9437879927863833E-006
   6.9500000000000006E-002     2.0544682683976134E-006
   7.0599999999999996E-002     2.1704643131670309E-006
   7.1699999999999986E-002     2.2926374185772147E-006
   7.2800000000000031E-002     2.4216026304202387E-006
   7.3900000000000021E-002     2.5572669528628467E-006
   7.5000000000000011E-002     2.6986233478965005E-006
   7.6100000000000001E-002     2.8440629193937639E-006
   7.7199999999999991E-002     2.9922464364062762E-006
   7.8299999999999981E-002     3.1431791285285726E-006
   7.9400000000000026E-002     3.2987861686706310E-006
   8.0500000000000016E-002     3.4623769806785276E-006
   8.1600000000000006E-002     3.6369751796883065E-006
   8.2699999999999996E-002     3.8234043131524231E-006
   8.3799999999999986E-002     4.0194267967308406E-006
   8.4900000000000031E-002     4.2207097976643126E-006
   8.6000000000000021E-002     4.4231896936253179E-006
   8.7100000000000011E-002     4.6254272092483006E-006
   8.8200000000000001E-002     4.8294923544744961E-006
   8.9299999999999990E-002     5.0398639359627850E-006
   9.0399999999999980E-002     5.2611171668104362E-006
   9.1500000000000026E-002     5.4957749853201676E-006
   9.2600000000000016E-002     5.7434040172665846E-006
   9.3700000000000006E-002     6.0011448113073129E-006
   9.4799999999999995E-002     6.2650651670992374E-006
   9.5899999999999985E-002     6.5316294239892159E-006
   9.7000000000000031E-002     6.7989167291671038E-006
   9.8100000000000021E-002     7.0672881520295050E-006
   9.9200000000000010E-002     7.3392284321016632E-006
  0.10030000000000000          7.6183632700121962E-006
  0.10139999999999999          7.9079445640672930E-006
  0.10249999999999998          8.2094129538745619E-006
  0.10360000000000003          8.5218562162481248E-006
  0.10470000000000002          8.8427195805707015E-006
  0.10580000000000001          9.1691572379204445E-006
  0.10690000000000000          9.4990309662534855E-006
  0.10799999999999998          9.8310893008601852E-006
  0.10910000000000003          1.0164675586565863E-005
  0.11020000000000002          1.0499707059352659E-005
  0.11130000000000001          1.0837190529855434E-005
  0.11240000000000000          1.1179711691511329E-005
  0.11349999999999999          1.1530817573657259E-005
  0.11460000000000004          1.1893007467733696E-005
  0.11570000000000003          1.2265658369869925E-005
  0.11680000000000001          1.2644657545024529E-005
  0.11790000000000000          1.3024295185459778E-005
  0.11899999999999999          1.3400252100836951E-005
  0.12009999999999998          1.3771659723715857E-005
  0.12120000000000003          1.4140916391625069E-005
  0.12230000000000002          1.4511725566990208E-005
  0.12340000000000001          1.4887033103150316E-005
  0.12450000000000000          1.5268255083356053E-005
  0.12559999999999999          1.5655565221095458E-005
  0.12670000000000003          1.6048134057200514E-005
  0.12780000000000002          1.6443727872683667E-005
  0.12890000000000001          1.6838597730384208E-005
  0.13000000000000000          1.7228387150680646E-005
  0.13109999999999999          1.7610074792173691E-005
  0.13219999999999998          1.7983664292842150E-005
  0.13330000000000003          1.8352156985201873E-005
  0.13440000000000002          1.8719905710895546E-005
  0.13550000000000001          1.9090075511485338E-005
  0.13660000000000000          1.9463017451926135E-005
  0.13769999999999999          1.9836797946481965E-005
  0.13880000000000003          2.0208777641528286E-005
  0.13990000000000002          2.0576526367221959E-005
  0.14100000000000001          2.0937599401804619E-005
  0.14210000000000000          2.1289226424414665E-005
  0.14319999999999999          2.1629026377922855E-005
  0.14429999999999998          2.1956726413918659E-005
  0.14540000000000003          2.2275329683907330E-005
  0.14650000000000002          2.2590000298805535E-005
  0.14760000000000001          2.2904952857061289E-005
  0.14870000000000000          2.3220291041070595E-005
  0.14979999999999999          2.3531705664936453E-005
  0.15090000000000003          2.3833204977563582E-005
  0.15200000000000002          2.4120856323861517E-005
  0.15310000000000001          2.4394441425101832E-005
  0.15420000000000000          2.4655942979734391E-005
  0.15529999999999999          2.4906763428589329E-005
  0.15639999999999998          2.5146699044853449E-005
  0.15750000000000003          2.5375305995112285E-005
  0.15860000000000002          2.5593735699658282E-005
  0.15970000000000001          2.5804802135098726E-005
  0.16080000000000000          2.6010509827756323E-005
  0.16189999999999999          2.6209645511698909E-005
  0.16300000000000003          2.6397519832244143E-005
  0.16410000000000002          2.6569099645712413E-005
  0.16520000000000001          2.6722818802227266E-005
  0.16630000000000000          2.6860818252316676E-005
  0.16739999999999999          2.6986184820998460E-005
  0.16850000000000004          2.7100290026282892E-005
  0.16960000000000003          2.7202349883737043E-005
  0.17070000000000002          2.7291553124086931E-005
  0.17180000000000001          2.7369005692889914E-005
  0.17290000000000000          2.7437024982646108E-005
  0.17399999999999999          2.7496353141032159E-005
  0.17510000000000003          2.7544063414097764E-005
  0.17620000000000002          2.7575044441618957E-005
  0.17730000000000001          2.7585814677877352E-005
  0.17840000000000000          2.7577401851885952E-005
  0.17949999999999999          2.7554317057365552E-005
  0.18060000000000004          2.7520625735633075E-005
  0.18170000000000003          2.7477068215375766E-005
  0.18280000000000002          2.7421419872553088E-005
  0.18390000000000001          2.7351667085895315E-005
  0.18500000000000000          2.7268220947007649E-005
  0.18609999999999999          2.7173045964445919E-005
  0.18720000000000003          2.7066515031037852E-005
  0.18830000000000002          2.6945832360070199E-005
  0.18940000000000001          2.6807107133208774E-005
  0.19050000000000000          2.6648240236681886E-005
  0.19159999999999999          2.6470723241800442E-005
  0.19270000000000004          2.6279134544893168E-005
  0.19380000000000003          2.6077595975948498E-005
  0.19490000000000002          2.5866702344501391E-005
  0.19600000000000001          2.5644123525125906E-005
  0.19710000000000000          2.5407582143088803E-005
  0.19819999999999999          2.5156641640933231E-005
  0.19930000000000003          2.4892080546123907E-005
  0.20040000000000002          2.4614259018562734E-005
  0.20150000000000001          2.4321521777892485E-005
  0.20260000000000000          2.4011167624848895E-005
  0.20369999999999999          2.3682425307924859E-005
  0.20480000000000004          2.3337235688813962E-005
  0.20590000000000003          2.2979034838499501E-005
  0.20700000000000002          2.2610687665292062E-005
  0.20810000000000001          2.2232763512874953E-005
  0.20920000000000000          2.1843783542863093E-005
  0.21029999999999999          2.1442210709210485E-005
  0.21140000000000003          2.1027692127972841E-005
  0.21250000000000002          2.0599978597601876E-005
  0.21360000000000001          2.0157987819402479E-005
  0.21470000000000000          1.9699607946677133E-005
  0.21579999999999999          1.9222856280975975E-005
  0.21690000000000004          1.8728705981629901E-005
  0.21800000000000003          1.8221737263957039E-005
  0.21910000000000002          1.7707021470414475E-005
  0.22020000000000001          1.7187028788612224E-005
  0.22130000000000000          1.6660527762724087E-005
  0.22239999999999999          1.6123649402288720E-005
  0.22350000000000003          1.5573250493616797E-005
  0.22460000000000002          1.5009311937319580E-005
  0.22570000000000001          1.4433250726142433E-005
  0.22680000000000000          1.3845547982782591E-005
  0.22789999999999999          1.3245303307485301E-005
  0.22900000000000004          1.2631805475393776E-005
  0.23010000000000003          1.2006612450932153E-005
  0.23120000000000002          1.1373474990250543E-005
  0.23230000000000001          1.0736731383076403E-005
  0.23340000000000000          1.0099076462211087E-005
  0.23450000000000004          9.4601073215017095E-006
  0.23560000000000003          8.8165425040642731E-006
  0.23670000000000002          8.1647503975545987E-006
  0.23780000000000001          7.5023831414000597E-006
  0.23890000000000000          6.8292506512079854E-006
  0.23999999999999999          6.1476075643440709E-006
  0.24110000000000004          5.4606880439678207E-006
  0.24220000000000003          4.7720450311317109E-006
  0.24330000000000002          4.0849149627320003E-006
  0.24440000000000001          3.4009076443908270E-006
  0.24550000000000000          2.7197791041544406E-006
  0.24660000000000004          2.0405659597599879E-006
  0.24770000000000003          1.3625191286337213E-006
  0.24880000000000002          6.8523314666890656E-007
  0.24990000000000001          8.4952631596024730E-009
  0.25100000000000000         -6.6771229967343970E-007
  0.25209999999999999         -1.3430044418782927E-006
  0.25320000000000004         -2.0158656752755633E-006
  0.25430000000000003         -2.6835434709937545E-006
  0.25540000000000002         -3.3428275401092833E-006
  0.25650000000000001         -3.9915889828989748E-006
  0.25760000000000000         -4.6296277105284389E-006
  0.25870000000000004         -5.2575519475794863E-006
  0.25980000000000003         -5.8750633797899354E-006
  0.26090000000000002         -6.4806513364601415E-006
  0.26200000000000001         -7.0735122790210880E-006
  0.26310000000000000         -7.6545920819626190E-006
  0.26419999999999999         -8.2261831266805530E-006
  0.26530000000000004         -8.7894204625627026E-006
  0.26640000000000003         -9.3418939286493696E-006
  0.26750000000000002         -9.8785458249039948E-006
  0.26860000000000001         -1.0394828677817713E-005
  0.26970000000000000         -1.0889209988818038E-005
  0.27080000000000004         -1.1363576959411148E-005
  0.27190000000000003         -1.1820728104794398E-005
  0.27300000000000002         -1.2261231859156396E-005
  0.27410000000000001         -1.2683261047641281E-005
  0.27520000000000000         -1.3084764759696554E-005
  0.27629999999999999         -1.3466355085256509E-005
  0.27740000000000004         -1.3831000615027733E-005
  0.27850000000000003         -1.4180452126311138E-005
  0.27960000000000002         -1.4512498637486715E-005
  0.28070000000000001         -1.4821822333033197E-005
  0.28179999999999999         -1.5103883015399333E-005
  0.28290000000000004         -1.5358709788415581E-005
  0.28400000000000003         -1.5590378097840585E-005
  0.28510000000000002         -1.5802519556018524E-005
  0.28620000000000001         -1.5995217836461961E-005
  0.28730000000000000         -1.6166166460607201E-005
  0.28840000000000005         -1.6313495507347398E-005
  0.28950000000000004         -1.6438494640169665E-005
  0.29060000000000002         -1.6544554455322213E-005
  0.29170000000000001         -1.6633310224278830E-005
  0.29280000000000000         -1.6702282664482482E-005
  0.29389999999999999         -1.6747118934290484E-005
  0.29500000000000004         -1.6766554836067371E-005
  0.29610000000000003         -1.6763533494668081E-005
  0.29720000000000002         -1.6742551451898180E-005
  0.29830000000000001         -1.6704905647202395E-005
  0.29940000000000000         -1.6647187294438481E-005
  0.30050000000000004         -1.6565469195484184E-005
  0.30160000000000003         -1.6461021004943177E-005
  0.30270000000000002         -1.6341129594366066E-005
  0.30380000000000001         -1.6213722119573504E-005
  0.30490000000000000         -1.6080288332886994E-005
  0.30599999999999999         -1.5933848771965131E-005
  0.30709999999999998         -1.5764908312121406E-005
  0.30819999999999997         -1.5569665265502408E-005
  0.30930000000000007         -1.5353476555901580E-005
  0.31040000000000006         -1.5125929166970309E-005
  0.31150000000000005         -1.4892701074131764E-005
  0.31260000000000004         -1.4652330719400197E-005
  0.31370000000000003         -1.4400313375517726E-005
  0.31480000000000002         -1.4135321180219762E-005
  0.31590000000000001         -1.3861479601473548E-005
  0.31700000000000000         -1.3584703083324712E-005
  0.31809999999999999         -1.3306487744557671E-005
  0.31919999999999998         -1.3022207895119209E-005
  0.32029999999999997         -1.2725785381917376E-005
  0.32140000000000007         -1.2415873243298847E-005
  0.32250000000000006         -1.2096831596863922E-005
  0.32360000000000005         -1.1774301128752995E-005
  0.32470000000000004         -1.1451255886640865E-005
  0.32580000000000003         -1.1127798643428832E-005
  0.32690000000000002         -1.0803923032653984E-005
  0.32800000000000001         -1.0481628123670816E-005
  0.32910000000000000         -1.0163663318962790E-005
  0.33019999999999999         -9.8505470305099152E-006
  0.33129999999999998         -9.5386922112083994E-006
  0.33239999999999997         -9.2221107479417697E-006
  0.33350000000000007         -8.8980814325623214E-006
  0.33460000000000006         -8.5703504737466574E-006
  0.33570000000000005         -8.2470269262557849E-006
  0.33680000000000004         -7.9340461525134742E-006
  0.33790000000000003         -7.6307242125039920E-006
  0.33900000000000002         -7.3321657509950455E-006
  0.34010000000000001         -7.0350829446397256E-006
  0.34120000000000000         -6.7417631726129912E-006
  0.34229999999999999         -6.4574101088510361E-006
  0.34339999999999998         -6.1840241869504098E-006
  0.34449999999999997         -5.9178751143917907E-006
  0.34560000000000007         -5.6531644077040255E-006
  0.34670000000000006         -5.3880999075772706E-006
  0.34780000000000005         -5.1271777010697406E-006
  0.34890000000000004         -4.8769315981189720E-006
