 -0.20000000000000001          0.0000000000000000
 -0.19890000000000002          0.0000000000000000
 -0.19780000000000000          0.0000000000000000
 -0.19670000000000001          0.0000000000000000
 -0.19560000000000002          0.0000000000000000
 -0.19450000000000001          0.0000000000000000
 -0.19340000000000002          0.0000000000000000
 -0.19230000000000000          0.0000000000000000
 -0.19120000000000001          0.0000000000000000
 -0.19010000000000002          3.8879107815436131E-045
 -0.18900000000000000          3.3414164544903173E-032
 -0.18790000000000001          2.0938873984233067E-031
 -0.18680000000000002          1.0365776257879132E-030
 -0.18570000000000000          3.7600092052316441E-030
 -0.18460000000000001         -5.2059248089439362E-030
 -0.18350000000000000         -1.0594450346110900E-028
 -0.18240000000000001         -3.4801315761260666E-028
 -0.18130000000000002         -3.3586493921180562E-029
 -0.18020000000000000          2.6719889825246575E-027
 -0.17910000000000001          5.9338490921160280E-027
 -0.17800000000000002         -6.1543368706778376E-027
 -0.17690000000000000         -5.0190674204554381E-026
 -0.17580000000000001         -6.2124984142607756E-026
 -0.17470000000000002          1.6048158545292302E-025
 -0.17360000000000000          6.4063630771283922E-025
 -0.17250000000000001          4.4440513608325577E-025
 -0.17140000000000000         -2.1065345210416570E-024
 -0.17030000000000001         -5.7275526069206610E-024
 -0.16920000000000002         -1.2151717908120061E-024
 -0.16810000000000000          2.1374183071520614E-023
 -0.16700000000000001          4.1699187449994092E-023
 -0.16589999999999999         -1.3425503839082626E-023
 -0.16480000000000000         -1.9050843186327440E-022
 -0.16370000000000001         -2.9444244646979962E-022
 -0.16260000000000002          1.8951517394194701E-022
 -0.16150000000000000          1.4795912498778905E-021
 -0.16040000000000001          2.1692381414134590E-021
 -0.15930000000000000         -1.0479421125662700E-021
 -0.15820000000000001         -9.5862478176658309E-021
 -0.15710000000000002         -1.5428020254542603E-020
 -0.15600000000000000          6.4212717277718330E-022
 -0.15490000000000001          4.9788676384989299E-020
 -0.15379999999999999          9.5918661834836736E-020
 -0.15270000000000000          4.0466951879957460E-020
 -0.15160000000000001         -1.9680328955239726E-019
 -0.15050000000000002         -4.9428560074144809E-019
 -0.14940000000000001         -4.1666038712013310E-019
 -0.14830000000000002          5.1223350717852270E-019
 -0.14720000000000000          2.0513965453982066E-018
 -0.14610000000000001          2.5866582955415770E-018
 -0.14500000000000002         -1.9480377429141517E-019
 -0.14390000000000000         -6.5954034322318341E-018
 -0.14280000000000001         -1.1780234791032439E-017
 -0.14169999999999999         -6.5090714188827562E-018
 -0.14060000000000000          1.4691058551185314E-017
 -0.13950000000000001          4.1177553818704769E-017
 -0.13840000000000002          4.2651731945344757E-017
 -0.13730000000000001         -1.0960933900984857E-017
 -0.13619999999999999         -1.0876763972326848E-016
 -0.13510000000000000         -1.7088230613345227E-016
 -0.13400000000000001         -8.2760353345691023E-017
 -0.13290000000000002          1.9297364008185864E-016
 -0.13180000000000000          4.9795023502097679E-016
 -0.13070000000000001          4.9509795745026624E-016
 -0.12959999999999999         -8.2264362615402913E-017
 -0.12850000000000000         -1.0563848693438410E-015
 -0.12740000000000001         -1.6501533771824703E-015
 -0.12630000000000002         -9.0421804734780436E-016
 -0.12520000000000001          1.3826036212318013E-015
 -0.12410000000000000          3.8763929200337594E-015
 -0.12300000000000001          4.0807836642724566E-015
 -0.12190000000000001          2.3103511850686153E-016
 -0.12080000000000000         -6.3548354641385566E-015
 -0.11970000000000000         -1.0709291662020914E-014
 -0.11860000000000001         -7.1302801513076036E-015
 -0.11750000000000001          5.4261997862614183E-015
 -0.11640000000000000          1.9668581067761463E-014
 -0.11530000000000000          2.2735999077895436E-014
 -0.11420000000000001          6.0137022619968809E-015
 -0.11310000000000001         -2.4297944773288361E-014
 -0.11200000000000000         -4.6066764362560108E-014
 -0.11090000000000001         -3.5185592774885286E-014
 -0.10980000000000001          1.2209126125456297E-014
 -0.10870000000000000          6.7341219948426005E-014
 -0.10760000000000000          8.2529144108949421E-014
 -0.10650000000000001          2.8657513238530706E-014
 -0.10540000000000001         -7.0135086974173627E-014
 -0.10430000000000000         -1.3896678675417680E-013
 -0.10320000000000000         -1.0378686571191555E-013
 -0.10210000000000001          3.8801986390649125E-014
 -0.10100000000000001          1.9314000539953131E-013
  -9.9900000000000003E-002     2.1924305361639512E-013
  -9.8799999999999999E-002     4.8243500123612446E-014
  -9.7700000000000009E-002    -2.2890584284833174E-013
  -9.6600000000000005E-002    -3.9129257559807225E-013
  -9.5500000000000002E-002    -2.4796915280673819E-013
  -9.4400000000000012E-002     1.7732724197446395E-013
  -9.3300000000000008E-002     5.9768070484121442E-013
  -9.2200000000000004E-002     6.3653059602726393E-013
  -9.1100000000000000E-002     1.3361036723621572E-013
  -9.0000000000000011E-002    -6.5054277069430394E-013
  -8.8900000000000007E-002    -1.1395480913057120E-012
  -8.7800000000000003E-002    -8.4629043139654634E-013
  -8.6699999999999999E-002     1.9524438760615141E-013
  -8.5600000000000009E-002     1.3339794763603177E-012
  -8.4500000000000006E-002     1.6994957958289052E-012
  -8.3400000000000002E-002     8.6528516556754031E-013
  -8.2299999999999998E-002    -7.2336933535151013E-013
  -8.1200000000000008E-002    -1.9590529285601368E-012
  -8.0100000000000005E-002    -1.8621122439139315E-012
  -7.9000000000000001E-002    -3.9530911096633116E-013
  -7.7899999999999997E-002     1.3732564347820518E-012
  -7.6800000000000007E-002     2.0074725302216261E-012
  -7.5700000000000003E-002     8.7411198071434212E-013
  -7.4600000000000000E-002    -1.1711737265760021E-012
  -7.3500000000000010E-002    -2.2622303336162573E-012
  -7.2399999999999992E-002    -9.8862769099688592E-013
  -7.1300000000000002E-002     2.1999702407016253E-012
  -7.0200000000000012E-002     4.8698141873195597E-012
  -6.9099999999999995E-002     4.1688514619556950E-012
  -6.8000000000000005E-002    -8.2126840050791543E-013
  -6.6900000000000015E-002    -7.6984373736932406E-012
  -6.5799999999999997E-002    -1.1679796019237609E-011
  -6.4700000000000008E-002    -8.6728523668318470E-012
  -6.3599999999999990E-002     1.4311128237319997E-012
  -6.2500000000000000E-002     1.3708331345063472E-011
  -6.1400000000000010E-002     2.0623979954393244E-011
  -6.0299999999999992E-002     1.6754403420194758E-011
  -5.9200000000000003E-002     2.7427339913131272E-012
  -5.8100000000000013E-002    -1.4446771903763890E-011
  -5.6999999999999995E-002    -2.5548334281477775E-011
  -5.5900000000000005E-002    -2.4776127330317557E-011
  -5.4800000000000015E-002    -1.3338917644046330E-011
  -5.3699999999999998E-002     1.9152891078671503E-012
  -5.2600000000000008E-002     1.3742253862635739E-011
  -5.1499999999999990E-002     1.9532408676580540E-011
  -5.0400000000000000E-002     2.1980176359569773E-011
  -4.9300000000000010E-002     2.4679220472778224E-011
  -4.8199999999999993E-002     2.6409985309783983E-011
  -4.7100000000000003E-002     1.9706755324813105E-011
  -4.6000000000000013E-002    -3.5694411835954030E-012
  -4.4899999999999995E-002    -4.2821954315816631E-011
  -4.3800000000000006E-002    -8.3045043064444040E-011
  -4.2699999999999988E-002    -9.9301233902340043E-011
  -4.1599999999999998E-002    -7.0947067665198736E-011
  -4.0500000000000008E-002     2.7069345029340850E-012
  -3.9399999999999991E-002     9.6444553732141816E-011
  -3.8300000000000001E-002     1.6880548348030531E-010
  -3.7200000000000011E-002     1.8297574566617160E-010
  -3.6099999999999993E-002     1.2644975344589240E-010
  -3.5000000000000003E-002     1.7334916488367144E-011
  -3.3900000000000013E-002    -1.0594693872212249E-010
  -3.2799999999999996E-002    -2.0375233444891377E-010
  -3.1700000000000006E-002    -2.5031784978146587E-010
  -3.0599999999999988E-002    -2.3686075323325667E-010
  -2.9499999999999998E-002    -1.6518234002837821E-010
  -2.8400000000000009E-002    -4.1782806381451342E-011
  -2.7299999999999991E-002     1.1950361533674536E-010
  -2.6200000000000001E-002     2.8849178601575235E-010
  -2.5100000000000011E-002     4.1499106928632991E-010
  -2.3999999999999994E-002     4.4197678850111081E-010
  -2.2900000000000004E-002     3.3486791117809668E-010
  -2.1800000000000014E-002     1.1028312985050546E-010
  -2.0699999999999996E-002    -1.5880327608465417E-010
  -1.9600000000000006E-002    -3.7349659476329408E-010
  -1.8499999999999989E-002    -4.6300430156523947E-010
  -1.7399999999999999E-002    -4.2941569744494887E-010
  -1.6300000000000009E-002    -3.4970620843566254E-010
  -1.5199999999999991E-002    -3.2560576457281734E-010
  -1.4100000000000001E-002    -4.0766437447984217E-010
  -1.3000000000000012E-002    -5.4259491344399775E-010
  -1.1899999999999994E-002    -5.8390231538740590E-010
  -1.0800000000000004E-002    -3.6681652160188730E-010
  -9.6999999999999864E-003     1.9596244071887780E-010
  -8.5999999999999965E-003     1.0594023436282857E-009
  -7.5000000000000067E-003     2.0695556379733525E-009
  -6.3999999999999890E-003     3.0495583835940549E-009
  -5.2999999999999992E-003     3.8874872210211030E-009
  -4.2000000000000093E-003     4.5629704459310652E-009
  -3.0999999999999917E-003     5.0951354246814147E-009
  -2.0000000000000018E-003     5.4571609453540662E-009
  -9.0000000000001190E-004     5.5349169691959772E-009
   2.0000000000000573E-004     5.1803890066533204E-009
   1.2999999999999956E-003     4.3391827908575817E-009
   2.4000000000000132E-003     3.1659874721865885E-009
   3.5000000000000031E-003     2.0337038719729868E-009
   4.5999999999999930E-003     1.4037897511086608E-009
   5.7000000000000106E-003     1.6186870732679976E-009
   6.8000000000000005E-003     2.7369193578149819E-009
   7.8999999999999904E-003     4.5127217518365794E-009
   9.0000000000000080E-003     6.5338081611792542E-009
   1.0099999999999998E-002     8.4314759618556653E-009
   1.1199999999999988E-002     1.0034563402426994E-008
   1.2300000000000005E-002     1.1381612097237717E-008
   1.3399999999999995E-002     1.2603806887055961E-008
   1.4500000000000013E-002     1.3776760177107631E-008
   1.5600000000000003E-002     1.4853600127649879E-008
   1.6699999999999993E-002     1.5727126267960146E-008
   1.7800000000000010E-002     1.6371751954123699E-008
   1.8900000000000000E-002     1.6955114645609993E-008
   1.9999999999999990E-002     1.7826923937034913E-008
   2.1100000000000008E-002     1.9376599880159125E-008
   2.2199999999999998E-002     2.1843149511367092E-008
   2.3300000000000015E-002     2.5196783326462063E-008
   2.4400000000000005E-002     2.9166882242745602E-008
   2.5499999999999995E-002     3.3396258203307958E-008
   2.6600000000000013E-002     3.7622484683194031E-008
   2.7700000000000002E-002     4.1777454384824396E-008
   2.8799999999999992E-002     4.5960078409730563E-008
   2.9900000000000010E-002     5.0326061540313310E-008
   3.1000000000000000E-002     5.4987850717220332E-008
   3.2099999999999990E-002     5.9993901402316760E-008
   3.3200000000000007E-002     6.5383296998783041E-008
   3.4299999999999997E-002     7.1249871780303680E-008
   3.5400000000000015E-002     7.7749064075753542E-008
   3.6500000000000005E-002     8.5038522001915748E-008
   3.7599999999999995E-002     9.3208029738880931E-008
   3.8700000000000012E-002     1.0226785462918081E-007
   3.9800000000000002E-002     1.1221231233092925E-007
   4.0899999999999992E-002     1.2310246688683750E-007
   4.2000000000000010E-002     1.3508551433004555E-007
   4.3099999999999999E-002     1.4831552164194835E-007
   4.4200000000000017E-002     1.6282881176719796E-007
   4.5300000000000007E-002     1.7848060451795598E-007
   4.6399999999999997E-002     1.9501825931909546E-007
   4.7500000000000014E-002     2.1226597368693468E-007
   4.8600000000000004E-002     2.3030128204479969E-007
   4.9699999999999994E-002     2.4949505927904783E-007
   5.0800000000000012E-002     2.7037563654628084E-007
   5.1900000000000002E-002     2.9340003493413958E-007
   5.2999999999999992E-002     3.1878303730078961E-007
   5.4099999999999981E-002     3.4649715985321174E-007
   5.5200000000000027E-002     3.7643565065078536E-007
   5.6300000000000017E-002     4.0861567640600645E-007
   5.7400000000000007E-002     4.4327344994595103E-007
   5.8499999999999996E-002     4.8077851033663322E-007
   5.9599999999999986E-002     5.2142263484706571E-007
   6.0700000000000032E-002     5.6523498415112398E-007
   6.1800000000000022E-002     6.1196539036240162E-007
   6.2900000000000011E-002     6.6127245190722050E-007
   6.4000000000000001E-002     7.1301946036322050E-007
   6.5099999999999991E-002     7.6749620347975390E-007
   6.6199999999999981E-002     8.2541936308181757E-007
   6.7300000000000026E-002     8.8769627382126781E-007
   6.8400000000000016E-002     9.5508471531493818E-007
   6.9500000000000006E-002     1.0279509297105488E-006
   7.0599999999999996E-002     1.1062669500460198E-006
   7.1699999999999986E-002     1.1898343927895275E-006
   7.2800000000000031E-002     1.2785800436175788E-006
   7.3900000000000021E-002     1.3727336636292089E-006
   7.5000000000000011E-002     1.4727892221343189E-006
   7.6100000000000001E-002     1.5793025340825289E-006
   7.7199999999999991E-002     1.6926818489080978E-006
   7.8299999999999981E-002     1.8131081560566781E-006
   7.9400000000000026E-002     1.9406045339563272E-006
   8.0500000000000016E-002     2.0751735974043133E-006
   8.1600000000000006E-002     2.2169031126393563E-006
   8.2699999999999996E-002     2.3660106762688564E-006
   8.3799999999999986E-002     2.5228578124367682E-006
   8.4900000000000031E-002     2.6879799861487601E-006
   8.6000000000000021E-002     2.8621179808394258E-006
   8.7100000000000011E-002     3.0461837923209690E-006
   8.8200000000000001E-002     3.2411101074100568E-006
   8.9299999999999990E-002     3.4476197470209238E-006
   9.0399999999999980E-002     3.6660401292462078E-006
   9.1500000000000026E-002     3.8962830330998373E-006
   9.2600000000000016E-002     4.1380276343257614E-006
   9.3700000000000006E-002     4.3910263229914228E-006
   9.4799999999999995E-002     4.6553864194716308E-006
   9.5899999999999985E-002     4.9316718104814838E-006
   9.7000000000000031E-002     5.2207597036608425E-006
   9.8100000000000021E-002     5.5235605032061809E-006
   9.9200000000000010E-002     5.8407372307550922E-006
  0.10030000000000000          6.1725518207816870E-006
  0.10139999999999999          6.5189174165419453E-006
  0.10249999999999998          6.8796111918339334E-006
  0.10360000000000003          7.2545731200073326E-006
  0.10470000000000002          7.6441465353120640E-006
  0.10580000000000001          8.0490663094671609E-006
  0.10690000000000000          8.4702423919217437E-006
  0.10799999999999998          8.9085151557802524E-006
  0.10910000000000003          9.3644493972524895E-006
  0.11020000000000002          9.8382834039503163E-006
  0.11130000000000001          1.0330049008188298E-005
  0.11240000000000000          1.0839730748556503E-005
  0.11349999999999999          1.1367336810507246E-005
  0.11460000000000004          1.1912868103535231E-005
  0.11570000000000003          1.2476241863622595E-005
  0.11680000000000001          1.3057285286776003E-005
  0.11790000000000000          1.3655849215864362E-005
  0.11899999999999999          1.4271929103414163E-005
  0.12009999999999998          1.4905737771185624E-005
  0.12120000000000003          1.5557630831607136E-005
  0.12230000000000002          1.6227942978728951E-005
  0.12340000000000001          1.6916828826650374E-005
  0.12450000000000000          1.7624170141060169E-005
  0.12559999999999999          1.8349590391151803E-005
  0.12670000000000003          1.9092542061114812E-005
  0.12780000000000002          1.9852448531308272E-005
  0.12890000000000001          2.0628873244275328E-005
  0.13000000000000000          2.1421650671980258E-005
  0.13109999999999999          2.2230855392988615E-005
  0.13219999999999998          2.3056591089696389E-005
  0.13330000000000003          2.3898628569438744E-005
  0.13440000000000002          2.4756138373047654E-005
  0.13550000000000001          2.5627978175177702E-005
  0.13660000000000000          2.6513054763197349E-005
  0.13769999999999999          2.7410664188207427E-005
  0.13880000000000003          2.8320597266426526E-005
  0.13990000000000002          2.9242848540886440E-005
  0.14100000000000001          3.0177177904985891E-005
  0.14210000000000000          3.1122752261578067E-005
  0.14319999999999999          3.2078190997705668E-005
  0.14429999999999998          3.3041902497640596E-005
  0.14540000000000003          3.4012478863584506E-005
  0.14650000000000002          3.4988821425937657E-005
  0.14760000000000001          3.5970126191383673E-005
  0.14870000000000000          3.6955683754055187E-005
  0.14979999999999999          3.7944799260000036E-005
  0.15090000000000003          3.8936883356651466E-005
  0.15200000000000002          3.9931328501548705E-005
  0.15310000000000001          4.0927254303820423E-005
  0.15420000000000000          4.1923358367053695E-005
  0.15529999999999999          4.2917796235993320E-005
  0.15639999999999998          4.3908534280486125E-005
  0.15750000000000003          4.4893797166874265E-005
  0.15860000000000002          4.5872242480977907E-005
  0.15970000000000001          4.6843048039586664E-005
  0.16080000000000000          4.7805660869921850E-005
  0.16189999999999999          4.8759440687713418E-005
  0.16300000000000003          4.9703510740068864E-005
  0.16410000000000002          5.0636805099197699E-005
  0.16520000000000001          5.1558014092729374E-005
  0.16630000000000000          5.2465678891162254E-005
  0.16739999999999999          5.3358093282435805E-005
  0.16850000000000004          5.4233467380976939E-005
  0.16960000000000003          5.5090487876436295E-005
  0.17070000000000002          5.5928303481773021E-005
  0.17180000000000001          5.6746226618992569E-005
  0.17290000000000000          5.7543740695104333E-005
  0.17399999999999999          5.8320198149880649E-005
  0.17510000000000003          5.9074551245425084E-005
  0.17620000000000002          5.9805708588095501E-005
  0.17730000000000001          6.0512753407232522E-005
  0.17840000000000000          6.1194783484091973E-005
  0.17949999999999999          6.1851184000255477E-005
  0.18060000000000004          6.2481405620923135E-005
  0.18170000000000003          6.3084713474375942E-005
  0.18280000000000002          6.3660358136979623E-005
  0.18390000000000001          6.4207488321693334E-005
  0.18500000000000000          6.4725500124035069E-005
  0.18609999999999999          6.5213811467395720E-005
  0.18720000000000003          6.5671993070276038E-005
  0.18830000000000002          6.6099943069269424E-005
  0.18940000000000001          6.6497595980757350E-005
  0.19050000000000000          6.6865301050705297E-005
  0.19159999999999999          6.7203502112527744E-005
  0.19270000000000004          6.7511886300047268E-005
  0.19380000000000003          6.7790104367298386E-005
  0.19490000000000002          6.8038039898959274E-005
  0.19600000000000001          6.8255707446945171E-005
  0.19710000000000000          6.8443659984034731E-005
  0.19819999999999999          6.8602443207049042E-005
  0.19930000000000003          6.8732231738970832E-005
  0.20040000000000002          6.8832843680859761E-005
  0.20150000000000001          6.8903849751216563E-005
  0.20260000000000000          6.8945817474735173E-005
  0.20369999999999999          6.8960602220607194E-005
  0.20480000000000004          6.8950095737812313E-005
  0.20590000000000003          6.8915156589349004E-005
  0.20700000000000002          6.8854889832430723E-005
  0.20810000000000001          6.8767891207237945E-005
  0.20920000000000000          6.8654269853134870E-005
  0.21029999999999999          6.8515706516330361E-005
  0.21140000000000003          6.8354718678158966E-005
  0.21250000000000002          6.8173278123134087E-005
  0.21360000000000001          6.7971726821263606E-005
  0.21470000000000000          6.7749526351684085E-005
  0.21579999999999999          6.7506538471200829E-005
  0.21690000000000004          6.7243905505159291E-005
  0.21800000000000003          6.6963431891047776E-005
  0.21910000000000002          6.6666521888685820E-005
  0.22020000000000001          6.6354114096605653E-005
  0.22130000000000000          6.6026048443739764E-005
  0.22239999999999999          6.5681961132207456E-005
  0.22350000000000003          6.5322776208625704E-005
  0.22460000000000002          6.4949708757916104E-005
  0.22570000000000001          6.4563580963289031E-005
  0.22680000000000000          6.4165418734768112E-005
  0.22789999999999999          6.3755833252792925E-005
  0.22900000000000004          6.3334606238635044E-005
  0.23010000000000003          6.2902348872734048E-005
  0.23120000000000002          6.2460494518739958E-005
  0.23230000000000001          6.2009989051142617E-005
  0.23340000000000000          6.1551036196755195E-005
  0.23450000000000004          6.1083344917273140E-005
  0.23560000000000003          6.0606456827366756E-005
  0.23670000000000002          6.0120466514485036E-005
  0.23780000000000001          5.9626290749287359E-005
  0.23890000000000000          5.9124828112539078E-005
  0.23999999999999999          5.8616635214997677E-005
  0.24110000000000004          5.8101624745171786E-005
  0.24220000000000003          5.7578883570380825E-005
  0.24330000000000002          5.7047913287528223E-005
  0.24440000000000001          5.6509426940460176E-005
  0.24550000000000000          5.5964399507496971E-005
  0.24660000000000004          5.5412867368426693E-005
  0.24770000000000003          5.4853775509395279E-005
  0.24880000000000002          5.4285574151430900E-005
  0.24990000000000001          5.3707131883124565E-005
  0.25100000000000000          5.3118590585649743E-005
  0.25209999999999999          5.2521558245639176E-005
  0.25320000000000004          5.1916864322260867E-005
  0.25430000000000003          5.1303373766127017E-005
  0.25540000000000002          5.0679420382943964E-005
  0.25650000000000001          5.0043465307676323E-005
  0.25760000000000000          4.9395297537553275E-005
  0.25870000000000004          4.8735812015361364E-005
  0.25980000000000003          4.8066201998149317E-005
  0.26090000000000002          4.7386238293252294E-005
  0.26200000000000001          4.6693028707518643E-005
  0.26310000000000000          4.5983808377054989E-005
  0.26419999999999999          4.5258129830468051E-005
  0.26530000000000004          4.4517844798970641E-005
  0.26640000000000003          4.3764779547923917E-005
  0.26750000000000002          4.2998643039023319E-005
  0.26860000000000001          4.2216608562735731E-005
  0.26970000000000000          4.1415623854842001E-005
  0.27080000000000004          4.0594713937021831E-005
  0.27190000000000003          3.9755526813674832E-005
  0.27300000000000002          3.8901391235409499E-005
  0.27410000000000001          3.8033216696927600E-005
  0.27520000000000000          3.7148016417628512E-005
  0.27629999999999999          3.6242570786267958E-005
  0.27740000000000004          3.5316043067720314E-005
  0.27850000000000003          3.4370517823842038E-005
  0.27960000000000002          3.3408228773620683E-005
  0.28070000000000001          3.2429201382907899E-005
  0.28179999999999999          3.1432766263603188E-005
  0.28290000000000004          3.0417517336897602E-005
  0.28400000000000003          2.9382668799368809E-005
  0.28510000000000002          2.8329446649874800E-005
  0.28620000000000001          2.7259247872277501E-005
  0.28730000000000000          2.6172443540415234E-005
  0.28840000000000005          2.5068968170669471E-005
  0.28950000000000004          2.3949038222779231E-005
  0.29060000000000002          2.2813906980443562E-005
  0.29170000000000001          2.1665067833962772E-005
  0.29280000000000000          2.0503317500695612E-005
  0.29389999999999999          1.9327480913487398E-005
  0.29500000000000004          1.8136870494343584E-005
  0.29610000000000003          1.6933283404794877E-005
  0.29720000000000002          1.5719781004007438E-005
  0.29830000000000001          1.4500395991488935E-005
  0.29940000000000000          1.3276810022942943E-005
  0.30050000000000004          1.2046653864671345E-005
  0.30160000000000003          1.0806843420140426E-005
  0.30270000000000002          9.5577925094394958E-006
  0.30380000000000001          8.3046916188315705E-006
  0.30490000000000000          7.0539445005118336E-006
  0.30599999999999999          5.8088139667228954E-006
  0.30709999999999998          4.5669180508408126E-006
  0.30819999999999997          3.3228384381797731E-006
  0.30930000000000007          2.0752725049531616E-006
  0.31040000000000006          8.2947173041243369E-007
  0.31150000000000005         -4.0601136674915982E-007
  0.31260000000000004         -1.6254356296483871E-006
  0.31370000000000003         -2.8297349672354219E-006
  0.31480000000000002         -4.0246068238043927E-006
  0.31590000000000001         -5.2133545977989777E-006
  0.31700000000000000         -6.3926495386106865E-006
  0.31809999999999999         -7.5541415753825438E-006
  0.31919999999999998         -8.6904738054719056E-006
  0.32029999999999997         -9.8007822089120911E-006
  0.32140000000000007         -1.0890573321374981E-005
  0.32250000000000006         -1.1965748853980384E-005
  0.32360000000000005         -1.3025024600209395E-005
  0.32470000000000004         -1.4059681234356117E-005
  0.32580000000000003         -1.5060674741106119E-005
  0.32690000000000002         -1.6027044694054329E-005
  0.32800000000000001         -1.6964588212429850E-005
  0.32910000000000000         -1.7878739527075774E-005
  0.33019999999999999         -1.8769289454210694E-005
  0.33129999999999998         -1.9629020243881337E-005
  0.33239999999999997         -2.0450243027878921E-005
  0.33350000000000007         -2.1231706341493799E-005
  0.33460000000000006         -2.1978517906971133E-005
  0.33570000000000005         -2.2696025553157346E-005
  0.33680000000000004         -2.3383132429442100E-005
  0.33790000000000003         -2.4033281079025616E-005
  0.33900000000000002         -2.4640503397674854E-005
  0.34010000000000001         -2.5204397388731633E-005
  0.34120000000000000         -2.5731063942655446E-005
  0.34229999999999999         -2.6226327463516446E-005
  0.34339999999999998         -2.6690498998502641E-005
  0.34449999999999997         -2.7117686840935944E-005
  0.34560000000000007         -2.7500338546812835E-005
  0.34670000000000006         -2.7837293600893849E-005
  0.34780000000000005         -2.8135322281738989E-005
  0.34890000000000004         -2.8402711905070803E-005
