 -0.20000000000000001          0.0000000000000000
 -0.19890000000000002          0.0000000000000000
 -0.19780000000000000          0.0000000000000000
 -0.19670000000000001          0.0000000000000000
 -0.19560000000000002          0.0000000000000000
 -0.19450000000000001          0.0000000000000000
 -0.19340000000000002          0.0000000000000000
 -0.19230000000000000          0.0000000000000000
 -0.19120000000000001          5.2275678320240218E-024
 -0.19010000000000002         -2.0049430020726313E-023
 -0.18900000000000000         -3.8561078574175299E-022
 -0.18790000000000001         -1.2281950876050487E-021
 -0.18680000000000002          1.5816473842552764E-021
 -0.18570000000000000          2.0915442734163339E-020
 -0.18460000000000001          5.4193429302704336E-020
 -0.18350000000000000         -1.0847023744276281E-021
 -0.18240000000000001         -3.8144500784756892E-019
 -0.18130000000000002         -1.0708698821675467E-018
 -0.18020000000000000         -8.2665349170759881E-019
 -0.17910000000000001          3.0924405694239348E-018
 -0.17800000000000002          1.1461028274189107E-017
 -0.17690000000000000          1.5161444732682256E-017
 -0.17580000000000001         -7.9051392938640276E-018
 -0.17470000000000002         -7.2065827850195908E-017
 -0.17360000000000000         -1.3468689423136612E-016
 -0.17250000000000001         -6.6980996423588878E-017
 -0.17140000000000000          2.5819933277587714E-016
 -0.17030000000000001          7.2680546129796905E-016
 -0.16920000000000002          7.8619020007610952E-016
 -0.16810000000000000         -2.9751468466009568E-016
 -0.16700000000000001         -2.5117447032177262E-015
 -0.16589999999999999         -4.1105234145666911E-015
 -0.16480000000000000         -2.0467020158346945E-015
 -0.16370000000000001          5.1457759765472171E-015
 -0.16260000000000002          1.3535079124389065E-014
 -0.16150000000000000          1.3549963187337845E-014
 -0.16040000000000001         -2.7622032401172717E-015
 -0.15930000000000000         -2.9854197998275520E-014
 -0.15820000000000001         -4.4081678276166579E-014
 -0.15710000000000002         -1.8783368957443055E-014
 -0.15600000000000000          4.4636705085185012E-014
 -0.15490000000000001          9.7538615368142689E-014
 -0.15379999999999999          7.0738926597885532E-014
 -0.15270000000000000         -5.3334469680324867E-014
 -0.15160000000000001         -1.8286700007985574E-013
 -0.15050000000000002         -1.5772078738528093E-013
 -0.14940000000000001          9.3449668847338349E-014
 -0.14830000000000002          3.9922145450565251E-013
 -0.14720000000000000          3.9200194197445889E-013
 -0.14610000000000001         -1.6537082304662823E-013
 -0.14500000000000002         -9.8858096188312356E-013
 -0.14390000000000000         -1.2521058408848195E-012
 -0.14280000000000001         -2.0661776326321099E-013
 -0.14169999999999999          1.8924931066699995E-012
 -0.14060000000000000          3.4307034210006834E-012
 -0.13950000000000001          2.3935421786939644E-012
 -0.13840000000000002         -1.6901608151240441E-012
 -0.13730000000000001         -6.4156288788477687E-012
 -0.13619999999999999         -7.5181484301966977E-012
 -0.13510000000000000         -2.2935691974113825E-012
 -0.13400000000000001          7.0414997617460161E-012
 -0.13290000000000002          1.3524227744644233E-011
 -0.13180000000000000          1.0402492235661710E-011
 -0.13070000000000001         -2.3042819822386332E-012
 -0.12959999999999999         -1.5647897907979376E-011
 -0.12850000000000000         -1.7674932697999118E-011
 -0.12740000000000001         -4.1688098285925874E-012
 -0.12630000000000002          1.5027201705209725E-011
 -0.12520000000000001          2.1858822044087316E-011
 -0.12410000000000000          5.9525175587241895E-012
 -0.12300000000000001         -2.2428243290349052E-011
 -0.12190000000000001         -3.6383170781694438E-011
 -0.12080000000000000         -1.4528651719192906E-011
 -0.11970000000000000          3.5355378347199274E-011
 -0.11860000000000001          7.4248378278958567E-011
 -0.11750000000000001          5.9785155992470113E-011
 -0.11640000000000000         -1.4393920083626890E-011
 -0.11530000000000000         -1.0229945363038491E-010
 -0.11420000000000001         -1.3342521532066541E-010
 -0.11310000000000001         -6.9314796957696744E-011
 -0.11200000000000000          5.6671341230900620E-011
 -0.11090000000000001          1.5554141308272721E-010
 -0.10980000000000001          1.4996075214934644E-010
 -0.10870000000000000          4.0541216217421814E-011
 -0.10760000000000000         -8.7918131108670535E-011
 -0.10650000000000001         -1.3307326074410204E-010
 -0.10540000000000001         -6.3028283980871557E-011
 -0.10430000000000000          5.1280129448335924E-011
 -0.10320000000000000          9.4221637436690934E-011
 -0.10210000000000001          1.0173319652008943E-011
 -0.10100000000000001         -1.3636726470253275E-010
  -9.9900000000000003E-002    -2.0510035336761055E-010
  -9.8799999999999999E-002    -9.9531799468981915E-011
  -9.7700000000000009E-002     1.3808283683134008E-010
  -9.6600000000000005E-002     3.4326153031112652E-010
  -9.5500000000000002E-002     3.5254987817974116E-010
  -9.4400000000000012E-002     1.3566796297489329E-010
  -9.3300000000000008E-002    -1.7358307846660839E-010
  -9.2200000000000004E-002    -3.7560893284546982E-010
  -9.1100000000000000E-002    -3.5339484116819824E-010
  -9.0000000000000011E-002    -1.5203723002781334E-010
  -8.8900000000000007E-002     6.9267362679032874E-011
  -8.7800000000000003E-002     1.6593203200356000E-010
  -8.6699999999999999E-002     1.1086296464177053E-010
  -8.5600000000000009E-002    -3.1199832214904537E-012
  -8.4500000000000006E-002    -4.8933503082945044E-011
  -8.3400000000000002E-002     3.6981334661194485E-011
  -8.2299999999999998E-002     2.1402100924827315E-010
  -8.1200000000000008E-002     3.6768083022667193E-010
  -8.0100000000000005E-002     3.7722233670049037E-010
  -7.9000000000000001E-002     1.8077103702831464E-010
  -7.7899999999999997E-002    -1.8433285453589998E-010
  -7.6800000000000007E-002    -5.7864579794400151E-010
  -7.5700000000000003E-002    -8.0966627846736960E-010
  -7.4600000000000000E-002    -7.3197592431739105E-010
  -7.3500000000000010E-002    -3.5218497562711778E-010
  -7.2399999999999992E-002     1.4523175717604725E-010
  -7.1300000000000002E-002     5.0493281777984949E-010
  -7.0200000000000012E-002     5.8910637479321728E-010
  -6.9099999999999995E-002     4.9790543910076849E-010
  -6.8000000000000005E-002     4.9186499317943339E-010
  -6.6900000000000015E-002     7.4360229085335981E-010
  -6.5799999999999997E-002     1.1207378358688101E-009
  -6.4700000000000008E-002     1.2207869160005561E-009
  -6.3599999999999990E-002     6.8500694005976702E-010
  -6.2500000000000000E-002    -4.4327569392872997E-010
  -6.1400000000000010E-002    -1.6382113443566956E-009
  -6.0299999999999992E-002    -2.2108521680049339E-009
  -5.9200000000000003E-002    -1.8075183572104133E-009
  -5.8100000000000013E-002    -6.8252659080030306E-010
  -5.6999999999999995E-002     4.9630100029678324E-010
  -5.5900000000000005E-002     1.1597056648324615E-009
  -5.4800000000000015E-002     1.2378843505795835E-009
  -5.3699999999999998E-002     1.1135903310583421E-009
  -5.2600000000000008E-002     1.1846379432963233E-009
  -5.1499999999999990E-002     1.4393654046428090E-009
  -5.0400000000000000E-002     1.4336459797094059E-009
  -4.9300000000000010E-002     6.9465205809778263E-010
  -4.8199999999999993E-002    -8.0474393815385346E-010
  -4.7100000000000003E-002    -2.5145416859825308E-009
  -4.6000000000000013E-002    -3.6279947934756235E-009
  -4.4899999999999995E-002    -3.5850715729422828E-009
  -4.3800000000000006E-002    -2.3744224364463521E-009
  -4.2699999999999988E-002    -4.6420342569862833E-010
  -4.1599999999999998E-002     1.4982379781256624E-009
  -4.0500000000000008E-002     2.9598654638360167E-009
  -3.9399999999999991E-002     3.5814049503809671E-009
  -3.8300000000000001E-002     3.2600293575765928E-009
  -3.7200000000000011E-002     2.1429387153658378E-009
  -3.6099999999999993E-002     6.0507787669197467E-010
  -3.5000000000000003E-002    -8.9935053848562330E-010
  -3.3900000000000013E-002    -2.0853863080814268E-009
  -3.2799999999999996E-002    -2.9810796053906542E-009
  -3.1700000000000006E-002    -3.7713654421621462E-009
  -3.0599999999999988E-002    -4.4218646522153052E-009
  -2.9499999999999998E-002    -4.4575654278843566E-009
  -2.8400000000000009E-002    -3.2334492860995644E-009
  -2.7299999999999991E-002    -5.9696864118647292E-010
  -2.6200000000000001E-002     2.6228648142280132E-009
  -2.5100000000000011E-002     4.8616826120450473E-009
  -2.3999999999999994E-002     4.7834380900721216E-009
  -2.2900000000000004E-002     2.2583481751321156E-009
  -2.1800000000000014E-002    -1.4780806578689557E-009
  -2.0699999999999996E-002    -4.6861754476881487E-009
  -1.9600000000000006E-002    -6.3251341941848526E-009
  -1.8499999999999989E-002    -6.6000320764197689E-009
  -1.7399999999999999E-002    -6.4317862147325572E-009
  -1.6300000000000009E-002    -6.4032787960846645E-009
  -1.5199999999999991E-002    -6.2033964631774620E-009
  -1.4100000000000001E-002    -5.0978199439553480E-009
  -1.3000000000000012E-002    -2.9525240030638299E-009
  -1.1899999999999994E-002    -7.7611600479732120E-010
  -1.0800000000000004E-002    -1.7601635426997643E-010
  -9.6999999999999864E-003    -2.1449424458809344E-009
  -8.5999999999999965E-003    -6.2388521016030831E-009
  -7.5000000000000067E-003    -1.0865968569361929E-008
  -6.3999999999999890E-003    -1.4412897542114635E-008
  -5.2999999999999992E-003    -1.6231849642166625E-008
  -4.2000000000000093E-003    -1.6737523367281696E-008
  -3.0999999999999917E-003    -1.6734828633956259E-008
  -2.0000000000000018E-003    -1.6741999786516955E-008
  -9.0000000000001190E-004    -1.6901042343419090E-008
   2.0000000000000573E-004    -1.7348044778485891E-008
   1.2999999999999956E-003    -1.8448130134628663E-008
   2.4000000000000132E-003    -2.0556559121586347E-008
   3.5000000000000031E-003    -2.3609739940865229E-008
   4.5999999999999930E-003    -2.7115026668410255E-008
   5.7000000000000106E-003    -3.0665468386812763E-008
   6.8000000000000005E-003    -3.4439853635601638E-008
   7.8999999999999904E-003    -3.9045492172815283E-008
   9.0000000000000080E-003    -4.4732338722039394E-008
   1.0099999999999998E-002    -5.0782343663510525E-008
   1.1199999999999988E-002    -5.5865641002125265E-008
   1.2300000000000005E-002    -5.9238065119867293E-008
   1.3399999999999995E-002    -6.1698621323098869E-008
   1.4500000000000013E-002    -6.5265396642639585E-008
   1.5600000000000003E-002    -7.1670356760473142E-008
   1.6699999999999993E-002    -8.0963957316265876E-008
   1.7800000000000010E-002    -9.1543903124596596E-008
   1.8900000000000000E-002    -1.0164092145714045E-007
   1.9999999999999990E-002    -1.1088964413374215E-007
   2.1100000000000008E-002    -1.2048525377394171E-007
   2.2199999999999998E-002    -1.3177120194995032E-007
   2.3300000000000015E-002    -1.4466557729518969E-007
   2.4400000000000005E-002    -1.5755311721931121E-007
   2.5499999999999995E-002    -1.6886082221388912E-007
   2.6600000000000013E-002    -1.7884116232379363E-007
   2.7700000000000002E-002    -1.8977883087244233E-007
   2.8799999999999992E-002    -2.0428363711742731E-007
   2.9900000000000010E-002    -2.2318106118744516E-007
   3.1000000000000000E-002    -2.4494926265104488E-007
   3.2099999999999990E-002    -2.6722204893301711E-007
   3.3200000000000007E-002    -2.8894240244879037E-007
   3.4299999999999997E-002    -3.1115729370865255E-007
   3.5400000000000015E-002    -3.3579055980223823E-007
   3.6500000000000005E-002    -3.6368786027193968E-007
   3.7599999999999995E-002    -3.9387464312309779E-007
   3.8700000000000012E-002    -4.2471592109901919E-007
   3.9800000000000002E-002    -4.5576283014266946E-007
   4.0899999999999992E-002    -4.8840990984896080E-007
   4.2000000000000010E-002    -5.2470426226132759E-007
   4.3099999999999999E-002    -5.6549981763960601E-007
   4.4200000000000017E-002    -6.0980124771954331E-007
   4.5300000000000007E-002    -6.5593354747756795E-007
   4.6399999999999997E-002    -7.0333283019858061E-007
   4.7500000000000014E-002    -7.5314994774083742E-007
   4.8600000000000004E-002    -8.0706837479732028E-007
   4.9699999999999994E-002    -8.6553922074010868E-007
   5.0800000000000012E-002    -9.2723507805196502E-007
   5.1900000000000002E-002    -9.9030592082264533E-007
   5.2999999999999992E-002    -1.0542365771470138E-006
   5.4099999999999981E-002    -1.1204980410183506E-006
   5.5200000000000027E-002    -1.1913546131835568E-006
   5.6300000000000017E-002    -1.2680113741224820E-006
   5.7400000000000007E-002    -1.3498708995028987E-006
   5.8499999999999996E-002    -1.4355417761179326E-006
   5.9599999999999986E-002    -1.5245084341585155E-006
   6.0700000000000032E-002    -1.6177592669917992E-006
   6.1800000000000022E-002    -1.7167940313810076E-006
   6.2900000000000011E-002    -1.8220797528555009E-006
   6.4000000000000001E-002    -1.9325702851345648E-006
   6.5099999999999991E-002    -2.0468164620977623E-006
   6.6199999999999981E-002    -2.1645516881106353E-006
   6.7300000000000026E-002    -2.2871106466480361E-006
   6.8400000000000016E-002    -2.4162086447175083E-006
   6.9500000000000006E-002    -2.5522572286716039E-006
   7.0599999999999996E-002    -2.6938910195892870E-006
   7.1699999999999986E-002    -2.8392569220156945E-006
   7.2800000000000031E-002    -2.9879095109206340E-006
   7.3900000000000021E-002    -3.1414965633300420E-006
   7.5000000000000011E-002    -3.3025476113832246E-006
   7.6100000000000001E-002    -3.4724350825851566E-006
   7.7199999999999991E-002    -3.6503201954471285E-006
   7.8299999999999981E-002    -3.8339808270390330E-006
   7.9400000000000026E-002    -4.0217041714637573E-006
   8.0500000000000016E-002    -4.2135166040676509E-006
   8.1600000000000006E-002    -4.4106777750126711E-006
   8.2699999999999996E-002    -4.6141090024317139E-006
   8.3799999999999986E-002    -4.8233632696788570E-006
   8.4900000000000031E-002    -5.0371422730673213E-006
   8.6000000000000021E-002    -5.2548798521452505E-006
   8.7100000000000011E-002    -5.4777988225391802E-006
   8.8200000000000001E-002    -5.7082702369366313E-006
   8.9299999999999990E-002    -5.9478002185637400E-006
   9.0399999999999980E-002    -6.1954015109217317E-006
   9.1500000000000026E-002    -6.4478908825544020E-006
   9.2600000000000016E-002    -6.7020127971767547E-006
   9.3700000000000006E-002    -6.9567581704171719E-006
   9.4799999999999995E-002    -7.2138436735252500E-006
   9.5899999999999985E-002    -7.4758791015477281E-006
   9.7000000000000031E-002    -7.7438035077641851E-006
   9.8100000000000021E-002    -8.0157615229830058E-006
   9.9200000000000010E-002    -8.2885435404016312E-006
  0.10030000000000000         -8.5603433035423417E-006
  0.10139999999999999         -8.8322440205949491E-006
  0.10249999999999998         -9.1069832706117898E-006
  0.10360000000000003         -9.3860053311792791E-006
  0.10470000000000002         -9.6675412351024689E-006
  0.10580000000000001         -9.9475964816511724E-006
  0.10690000000000000         -1.0223005119768516E-005
  0.10799999999999998         -1.0493799891263768E-005
  0.10910000000000003         -1.0762471902125081E-005
  0.11020000000000002         -1.1030670066246771E-005
  0.11130000000000001         -1.1296448974461746E-005
  0.11240000000000000         -1.1555061064426751E-005
  0.11349999999999999         -1.1802846529461851E-005
  0.11460000000000004         -1.2040481124130463E-005
  0.11570000000000003         -1.2272331332495801E-005
  0.11680000000000001         -1.2501899618654391E-005
  0.11790000000000000         -1.2727450666715250E-005
  0.11899999999999999         -1.2942213288623680E-005
  0.12009999999999998         -1.3139252587278663E-005
  0.12120000000000003         -1.3316721378940895E-005
  0.12230000000000002         -1.3478494111039933E-005
  0.12340000000000001         -1.3629339264297170E-005
  0.12450000000000000         -1.3769105862592113E-005
  0.12559999999999999         -1.3891667549613617E-005
  0.12670000000000003         -1.3989980288896455E-005
  0.12780000000000002         -1.4062181435291392E-005
  0.12890000000000001         -1.4112810276854979E-005
  0.13000000000000000         -1.4147522051642841E-005
  0.13109999999999999         -1.4166137589198728E-005
  0.13219999999999998         -1.4161160834190627E-005
  0.13330000000000003         -1.4123624168859058E-005
  0.13440000000000002         -1.4050824574950350E-005
  0.13550000000000001         -1.3948055311628823E-005
  0.13660000000000000         -1.3822585970045748E-005
  0.13769999999999999         -1.3675250556842650E-005
  0.13880000000000003         -1.3497845429809542E-005
  0.13990000000000002         -1.3279532140585388E-005
  0.14100000000000001         -1.3016141565457269E-005
  0.14210000000000000         -1.2713549949693334E-005
  0.14319999999999999         -1.2381098713375495E-005
  0.14429999999999998         -1.2021494512736230E-005
  0.14540000000000003         -1.1627413186942161E-005
  0.14650000000000002         -1.1187959898960747E-005
  0.14760000000000001         -1.0698898222471133E-005
  0.14870000000000000         -1.0166248102904353E-005
  0.14979999999999999         -9.5993818831621767E-006
  0.15090000000000003         -9.0002367869593826E-006
  0.15200000000000002         -8.3598552009782073E-006
  0.15310000000000001         -7.6662881838267598E-006
  0.15420000000000000         -6.9161314968363007E-006
  0.15529999999999999         -6.1181094679335900E-006
  0.15639999999999998         -5.2846226026299492E-006
  0.15750000000000003         -4.4194184738440344E-006
  0.15860000000000002         -3.5137179565933070E-006
  0.15970000000000001         -2.5550425561957670E-006
  0.16080000000000000         -1.5399423318739133E-006
  0.16189999999999999         -4.7801290747880151E-007
  0.16300000000000003          6.1734760947723786E-007
  0.16410000000000002          1.7424745237802485E-006
  0.16520000000000001          2.9073353289274731E-006
  0.16630000000000000          4.1257594602935582E-006
  0.16739999999999999          5.4010865824234136E-006
  0.16850000000000004          6.7216842580813641E-006
  0.16960000000000003          8.0711897680878111E-006
  0.17070000000000002          9.4435072242041250E-006
  0.17180000000000001          1.0847543308044765E-005
  0.17290000000000000          1.2296556633372178E-005
  0.17399999999999999          1.3792854588244763E-005
  0.17510000000000003          1.5323363186324536E-005
  0.17620000000000002          1.6870777471920861E-005
  0.17730000000000001          1.8429631381876082E-005
  0.17840000000000000          2.0010727894257858E-005
  0.17949999999999999          2.1629170078083835E-005
  0.18060000000000004          2.3287599105967956E-005
  0.18170000000000003          2.4970982849479323E-005
  0.18280000000000002          2.6658726710590987E-005
  0.18390000000000001          2.8342104997134136E-005
  0.18500000000000000          3.0029837944309375E-005
  0.18609999999999999          3.1736097298559728E-005
  0.18720000000000003          3.3463122235840964E-005
  0.18830000000000002          3.5195993405065190E-005
  0.18940000000000001          3.6914785596305977E-005
  0.19050000000000000          3.8612044590987582E-005
  0.19159999999999999          4.0297698433274571E-005
  0.19270000000000004          4.1986440919568774E-005
  0.19380000000000003          4.3680087401294944E-005
  0.19490000000000002          4.5362467062655550E-005
  0.19600000000000001          4.7012181312307287E-005
  0.19710000000000000          4.8620440793452207E-005
  0.19819999999999999          5.0196271331510718E-005
  0.19930000000000003          5.1754035666813212E-005
  0.20040000000000002          5.3295458201314256E-005
  0.20150000000000001          5.4804484534538149E-005
  0.20260000000000000          5.6260068959085871E-005
  0.20369999999999999          5.7653956901044125E-005
  0.20480000000000004          5.8995690778823913E-005
  0.20590000000000003          6.0299986216699932E-005
  0.20700000000000002          6.1569306126324573E-005
  0.20810000000000001          6.2789033108850945E-005
  0.20920000000000000          6.3939754909364402E-005
  0.21029999999999999          6.5013955463649506E-005
  0.21140000000000003          6.6020547819783617E-005
  0.21250000000000002          6.6972694185090794E-005
  0.21360000000000001          6.7871740611729673E-005
  0.21470000000000000          6.8703659053420110E-005
  0.21579999999999999          6.9450907176354294E-005
  0.21690000000000004          7.0108108047855345E-005
  0.21800000000000003          7.0685440732625517E-005
  0.21910000000000002          7.1196387580123880E-005
  0.22020000000000001          7.1642782131669220E-005
  0.22130000000000000          7.2012393502512084E-005
  0.22239999999999999          7.2290880780194927E-005
  0.22350000000000003          7.2475377237417763E-005
  0.22460000000000002          7.2576149250374190E-005
  0.22570000000000001          7.2605063905932941E-005
  0.22680000000000000          7.2562696004745551E-005
  0.22789999999999999          7.2437513153993539E-005
  0.22900000000000004          7.2217510023613488E-005
  0.23010000000000003          7.1902351919555160E-005
  0.23120000000000002          7.1503760409534991E-005
  0.23230000000000001          7.1033777203404467E-005
  0.23340000000000000          7.0493733801406971E-005
  0.23450000000000004          6.9874549808440016E-005
  0.23560000000000003          6.9167675974306936E-005
  0.23670000000000002          6.8375367845868113E-005
  0.23780000000000001          6.7509783548296850E-005
  0.23890000000000000          6.6582164436107072E-005
  0.23999999999999999          6.5593238105060185E-005
  0.24110000000000004          6.4534782723052174E-005
  0.24220000000000003          6.3399922510137637E-005
  0.24330000000000002          6.2191807955963487E-005
  0.24440000000000001          6.0922346165165370E-005
  0.24550000000000000          5.9602149121923553E-005
  0.24660000000000004          5.8232843002764811E-005
  0.24770000000000003          5.6808821682347409E-005
  0.24880000000000002          5.5326549045270869E-005
  0.24990000000000001          5.3791674872622583E-005
  0.25100000000000000          5.2216513722664576E-005
  0.25209999999999999          5.0610873586260756E-005
  0.25320000000000004          4.8975645768218865E-005
  0.25430000000000003          4.7305795305869882E-005
  0.25540000000000002          4.5598535507447575E-005
  0.25650000000000001          4.3858297431138989E-005
  0.25760000000000000          4.2094790842380244E-005
  0.25870000000000004          4.0316484955834250E-005
  0.25980000000000003          3.8526293792525494E-005
  0.26090000000000002          3.6723497032650166E-005
  0.26200000000000001          3.4908811358033261E-005
  0.26310000000000000          3.3086860639738595E-005
  0.26419999999999999          3.1264607969202940E-005
  0.26530000000000004          2.9447575798255465E-005
  0.26640000000000003          2.7637175662673314E-005
  0.26750000000000002          2.5833262043304209E-005
  0.26860000000000001          2.4037928596951625E-005
  0.26970000000000000          2.2256244847083253E-005
  0.27080000000000004          2.0493716874623620E-005
  0.27190000000000003          1.8752727555691372E-005
  0.27300000000000002          1.7033540643750022E-005
  0.27410000000000001          1.5337194781748994E-005
  0.27520000000000000          1.3667526218340368E-005
  0.27629999999999999          1.2030193829558574E-005
  0.27740000000000004          1.0428513633086276E-005
  0.27850000000000003          8.8618508016216379E-006
  0.27960000000000002          7.3285200414822705E-006
  0.28070000000000001          5.8312498367734945E-006
  0.28179999999999999          4.3773939069064950E-006
  0.28290000000000004          2.9734444524362026E-006
  0.28400000000000003          1.6194495628949728E-006
  0.28510000000000002          3.0940887540956866E-007
  0.28620000000000001         -9.6227722679027947E-007
  0.28730000000000000         -2.1945284061074125E-006
  0.28840000000000005         -3.3788439850465812E-006
  0.28950000000000004         -4.5062251956547685E-006
  0.29060000000000002         -5.5750415413053713E-006
  0.29170000000000001         -6.5916578932950728E-006
  0.29280000000000000         -7.5631769504973687E-006
  0.29389999999999999         -8.4896446423946978E-006
  0.29500000000000004         -9.3636590463566827E-006
  0.29610000000000003         -1.0177970580115489E-005
  0.29720000000000002         -1.0932836630671718E-005
  0.29830000000000001         -1.1635973351075215E-005
  0.29940000000000000         -1.2295769920455131E-005
  0.30050000000000004         -1.2913274076707910E-005
  0.30160000000000003         -1.3481397218127931E-005
  0.30270000000000002         -1.3992023923491275E-005
  0.30380000000000001         -1.4443961845243918E-005
  0.30490000000000000         -1.4844923498456894E-005
  0.30599999999999999         -1.5204419469226644E-005
  0.30709999999999998         -1.5525252820224033E-005
  0.30819999999999997         -1.5801744666531187E-005
  0.30930000000000007         -1.6025811419238749E-005
  0.31040000000000006         -1.6195746866286197E-005
  0.31150000000000005         -1.6318759662679779E-005
  0.31260000000000004         -1.6404974303439631E-005
  0.31370000000000003         -1.6459182006654695E-005
  0.31480000000000002         -1.6478021279907216E-005
  0.31590000000000001         -1.6454967408206676E-005
  0.31700000000000000         -1.6388152289435633E-005
  0.31809999999999999         -1.6283662262138351E-005
  0.31919999999999998         -1.6149897419380406E-005
  0.32029999999999997         -1.5989648090906837E-005
  0.32140000000000007         -1.5798344975335936E-005
  0.32250000000000006         -1.5569959941784349E-005
  0.32360000000000005         -1.5304107364498532E-005
  0.32470000000000004         -1.5007749425420547E-005
  0.32580000000000003         -1.4690521311420984E-005
  0.32690000000000002         -1.4357286090670221E-005
  0.32800000000000001         -1.4005487173561570E-005
  0.32910000000000000         -1.3628964552479926E-005
  0.33019999999999999         -1.3225027942097446E-005
  0.33129999999999998         -1.2798022908099198E-005
  0.33239999999999997         -1.2355738363111166E-005
  0.33350000000000007         -1.1903086488017627E-005
  0.33460000000000006         -1.1438848559918205E-005
  0.33570000000000005         -1.0958089660561078E-005
  0.33680000000000004         -1.0458165888848193E-005
  0.33790000000000003         -9.9425196822257607E-006
  0.33900000000000002         -9.4182405518941002E-006
  0.34010000000000001         -8.8903570940593152E-006
  0.34120000000000000         -8.3584127423811159E-006
  0.34229999999999999         -7.8177235991453681E-006
  0.34339999999999998         -7.2651537266203631E-006
  0.34449999999999997         -6.7034384301216804E-006
  0.34560000000000007         -6.1399546211754012E-006
  0.34670000000000006         -5.5813147810107636E-006
  0.34780000000000005         -5.0276044021297354E-006
  0.34890000000000004         -4.4726125452139100E-006
