 -0.20000000000000001          0.0000000000000000
 -0.19890000000000002          0.0000000000000000
 -0.19780000000000000          0.0000000000000000
 -0.19670000000000001          0.0000000000000000
 -0.19560000000000002          0.0000000000000000
 -0.19450000000000001          0.0000000000000000
 -0.19340000000000002          0.0000000000000000
 -0.19230000000000000          0.0000000000000000
 -0.19120000000000001          7.3740918817196280E-024
 -0.19010000000000002         -3.9946704550041618E-023
 -0.18900000000000000         -1.1261203992196164E-022
 -0.18790000000000001          1.0388854340169884E-021
 -0.18680000000000002          3.2031583712964322E-021
 -0.18570000000000000         -8.7353511937803177E-021
 -0.18460000000000001         -5.1064457077009698E-020
 -0.18350000000000000         -2.1906836469765577E-020
 -0.18240000000000001          3.5062353444078155E-019
 -0.18130000000000002          8.4601137919779735E-019
 -0.18020000000000000         -4.7935514578117745E-019
 -0.17910000000000001         -5.7258062386379990E-018
 -0.17800000000000002         -8.9105657478916879E-018
 -0.17690000000000000          9.9708748083835981E-018
 -0.17580000000000001          6.0025333914310816E-017
 -0.17470000000000002          7.5931368584105296E-017
 -0.17360000000000000         -9.2109843460450242E-017
 -0.17250000000000001         -4.6845533018769424E-016
 -0.17140000000000000         -5.7275531448300375E-016
 -0.17030000000000001          5.2002015491769429E-016
 -0.16920000000000002          2.8902079178967340E-015
 -0.16810000000000000          3.8229099891945711E-015
 -0.16700000000000001         -1.6545240671901650E-015
 -0.16589999999999999         -1.4378452042277529E-014
 -0.16480000000000000         -2.1962795216387901E-014
 -0.16370000000000001         -7.8604519862345143E-016
 -0.16260000000000002          5.7321341954703203E-014
 -0.16150000000000000          1.0626028323305198E-013
 -0.16040000000000001          4.7280982704315730E-014
 -0.15930000000000000         -1.7599646512291706E-013
 -0.15820000000000001         -4.2673259674150255E-013
 -0.15710000000000002         -3.4569764585656859E-013
 -0.15600000000000000          3.6157847007299571E-013
 -0.15490000000000001          1.3992367377604897E-012
 -0.15379999999999999          1.6470978227156596E-012
 -0.15270000000000000         -1.2164168327125080E-013
 -0.15160000000000001         -3.6224079291713451E-012
 -0.15050000000000002         -5.9273571294260474E-012
 -0.14940000000000001         -2.8449911697314700E-012
 -0.14830000000000002          6.7413388239734306E-012
 -0.14720000000000000          1.6691693166537291E-011
 -0.14610000000000001          1.5129838354388525E-011
 -0.14500000000000002         -5.6068873502401750E-012
 -0.14390000000000000         -3.6360432026372180E-011
 -0.14280000000000001         -4.9296202536686096E-011
 -0.14169999999999999         -1.6819358406028329E-011
 -0.14060000000000000          5.6617918686718838E-011
 -0.13950000000000001          1.1815748379717661E-010
 -0.13840000000000002          9.4245070081377946E-011
 -0.13730000000000001         -4.1692368307755245E-011
 -0.13619999999999999         -2.1318448395479805E-010
 -0.13510000000000000         -2.6427454669075701E-010
 -0.13400000000000001         -8.0396640733670921E-011
 -0.13290000000000002          2.7203977959189274E-010
 -0.13180000000000000          5.2553889018369659E-010
 -0.13070000000000001          3.8888364750633286E-010
 -0.12959999999999999         -1.7146575825854882E-010
 -0.12850000000000000         -7.8919315527059553E-010
 -0.12740000000000001         -8.9833485095169863E-010
 -0.12630000000000002         -2.1142998463119511E-010
 -0.12520000000000001          8.9695834093461713E-010
 -0.12410000000000000          1.5194228097925588E-009
 -0.12300000000000001          9.1319851680538022E-010
 -0.12190000000000001         -7.2658778993428541E-010
 -0.12080000000000000         -2.1533661520578562E-009
 -0.11970000000000000         -1.9408519236208122E-009
 -0.11860000000000001          1.9913012905270477E-010
 -0.11750000000000001          2.7946200908957053E-009
 -0.11640000000000000          3.4952398753063108E-009
 -0.11530000000000000          1.0489027424398500E-009
 -0.11420000000000001         -3.1988089954637644E-009
 -0.11310000000000001         -5.8273794678598279E-009
 -0.11200000000000000         -3.9301233378807865E-009
 -0.11090000000000001          2.1016592910427789E-009
 -0.10980000000000001          8.0948741043584960E-009
 -0.10870000000000000          8.8722211799563411E-009
 -0.10760000000000000          2.5175033169233529E-009
 -0.10650000000000001         -7.3207222506255221E-009
 -0.10540000000000001         -1.3444194202349991E-008
 -0.10430000000000000         -1.0439507924786540E-008
 -0.10320000000000000          6.7211924914545307E-010
 -0.10210000000000001          1.2446332853244257E-008
 -0.10100000000000001          1.6234794841807343E-008
  -9.9900000000000003E-002     8.8757374783199339E-009
  -9.8799999999999999E-002    -4.4626808914927096E-009
  -9.7700000000000009E-002    -1.3904495332894840E-008
  -9.6600000000000005E-002    -1.2489352663180853E-008
  -9.5500000000000002E-002    -1.8920915945130901E-009
  -9.4400000000000012E-002     8.5450384545993074E-009
  -9.3300000000000008E-002     9.1926111167595081E-009
  -9.2200000000000004E-002    -1.5408782028103474E-009
  -9.1100000000000000E-002    -1.4658881219986597E-008
  -9.0000000000000011E-002    -1.6616800380120367E-008
  -8.8900000000000007E-002    -3.1401262146069087E-010
  -8.7800000000000003E-002     2.6984077194924794E-008
  -8.6699999999999999E-002     4.5703078654923956E-008
  -8.5600000000000009E-002     3.6458224883517687E-008
  -8.4500000000000006E-002    -4.4191974524210309E-009
  -8.3400000000000002E-002    -5.7582347778861731E-008
  -8.2299999999999998E-002    -8.9073068920697551E-008
  -8.1200000000000008E-002    -7.1670982038085640E-008
  -8.0100000000000005E-002    -5.9743885394425433E-009
  -7.9000000000000001E-002     7.4675043038041622E-008
  -7.7899999999999997E-002     1.2222686507357139E-007
  -7.6800000000000007E-002     1.0532852456890396E-007
  -7.5700000000000003E-002     3.2416643591659522E-008
  -7.4600000000000000E-002    -5.2148667606388699E-008
  -7.3500000000000010E-002    -9.8819079141776456E-008
  -7.2399999999999992E-002    -8.8716461732474272E-008
  -7.1300000000000002E-002    -4.6134271514119973E-008
  -7.0200000000000012E-002    -1.5634434191724722E-008
  -6.9099999999999995E-002    -2.0685968493694418E-008
  -6.8000000000000005E-002    -3.8912595812234940E-008
  -6.6900000000000015E-002    -1.8749728880607108E-008
  -6.5799999999999997E-002     7.1341062835017510E-008
  -6.4700000000000008E-002     2.0060149097389512E-007
  -6.3599999999999990E-002     2.8049592515344557E-007
  -6.2500000000000000E-002     2.2173784941514896E-007
  -6.1400000000000010E-002     6.0700009463232618E-009
  -6.0299999999999992E-002    -2.8215160341460432E-007
  -5.9200000000000003E-002    -4.9403024604544044E-007
  -5.8100000000000013E-002    -5.0293465392314829E-007
  -5.6999999999999995E-002    -2.8255496431484062E-007
  -5.5900000000000005E-002     7.5718311620676104E-008
  -5.4800000000000015E-002     4.1518791249472997E-007
  -5.3699999999999998E-002     5.9837947219421039E-007
  -5.2600000000000008E-002     5.6953587090902147E-007
  -5.1499999999999990E-002     3.6312090401224850E-007
  -5.0400000000000000E-002     6.6290290590131917E-008
  -4.9300000000000010E-002    -2.2992809078914433E-007
  -4.8199999999999993E-002    -4.5870694975747028E-007
  -4.7100000000000003E-002    -5.7719046253623674E-007
  -4.6000000000000013E-002    -5.5497935136372689E-007
  -4.4899999999999995E-002    -3.7503590988308133E-007
  -4.3800000000000006E-002    -5.6282395632933913E-008
  -4.2699999999999988E-002     3.1731343597130035E-007
  -4.1599999999999998E-002     5.9317937939340482E-007
  -4.0500000000000008E-002     5.9821809372806456E-007
  -3.9399999999999991E-002     2.3281315009171522E-007
  -3.8300000000000001E-002    -4.3711125385925698E-007
  -3.7200000000000011E-002    -1.1595635669436888E-006
  -3.6099999999999993E-002    -1.5905346799627296E-006
  -3.5000000000000003E-002    -1.4735824152012356E-006
  -3.3900000000000013E-002    -8.0222889664582908E-007
  -3.2799999999999996E-002     1.5084189897152100E-007
  -3.1700000000000006E-002     9.7812551302922657E-007
  -3.0599999999999988E-002     1.3721024743063026E-006
  -2.9499999999999998E-002     1.2894382734884857E-006
  -2.8400000000000009E-002     9.2428200559879770E-007
  -2.7299999999999991E-002     5.1322717808943707E-007
  -2.6200000000000001E-002     1.3172150659102044E-007
  -2.5100000000000011E-002    -3.4421378813931369E-007
  -2.3999999999999994E-002    -1.0699368431232870E-006
  -2.2900000000000004E-002    -1.9957594759034691E-006
  -2.1800000000000014E-002    -2.7744201815949054E-006
  -2.0699999999999996E-002    -2.9235077363409800E-006
  -1.9600000000000006E-002    -2.1507005385501543E-006
  -1.8499999999999989E-002    -6.0838630133730476E-007
  -1.7399999999999999E-002     1.1185161383764353E-006
  -1.6300000000000009E-002     2.2992503545538057E-006
  -1.5199999999999991E-002     2.4341829885088373E-006
  -1.4100000000000001E-002     1.4868452353766770E-006
  -1.3000000000000012E-002    -1.4971409711961314E-007
  -1.1899999999999994E-002    -1.8926073153124889E-006
  -1.0800000000000004E-002    -3.2446648674522294E-006
  -9.6999999999999864E-003    -3.9537035263492726E-006
  -8.5999999999999965E-003    -4.0105337575369049E-006
  -7.5000000000000067E-003    -3.5443990782368928E-006
  -6.3999999999999890E-003    -2.7160328954778379E-006
  -5.2999999999999992E-003    -1.6807479141789372E-006
  -4.2000000000000093E-003    -6.2861522565071937E-007
  -3.0999999999999917E-003     1.5617871440554154E-007
  -2.0000000000000018E-003     3.0790033633820713E-007
  -9.0000000000001190E-004    -4.7741104935994372E-007
   2.0000000000000573E-004    -2.2078511392464861E-006
   1.2999999999999956E-003    -4.4266607801546343E-006
   2.4000000000000132E-003    -6.2930766944191419E-006
   3.5000000000000031E-003    -6.9709844865428749E-006
   4.5999999999999930E-003    -6.1482910496124532E-006
   5.7000000000000106E-003    -4.3419549911050126E-006
   6.8000000000000005E-003    -2.7113726446259534E-006
   7.8999999999999904E-003    -2.4192656837840332E-006
   9.0000000000000080E-003    -3.9210208342410624E-006
   1.0099999999999998E-002    -6.6624334067455493E-006
   1.1199999999999988E-002    -9.4061661002342589E-006
   1.2300000000000005E-002    -1.0970690709655173E-005
   1.3399999999999995E-002    -1.0888274118769914E-005
   1.4500000000000013E-002    -9.5799096015980467E-006
   1.5600000000000003E-002    -8.0215722846332937E-006
   1.6699999999999993E-002    -7.1998460953182075E-006
   1.7800000000000010E-002    -7.7153035817900673E-006
   1.8900000000000000E-002    -9.6672310974099673E-006
   1.9999999999999990E-002    -1.2723622603516560E-005
   2.1100000000000008E-002    -1.6227082596742548E-005
   2.2199999999999998E-002    -1.9321783838677220E-005
   2.3300000000000015E-002    -2.1182690034038387E-005
   2.4400000000000005E-002    -2.1365529391914606E-005
   2.5499999999999995E-002    -2.0113080609007739E-005
   2.6600000000000013E-002    -1.8372833437751979E-005
   2.7700000000000002E-002    -1.7428674254915677E-005
   2.8799999999999992E-002    -1.8315446141059510E-005
   2.9900000000000010E-002    -2.1349975213524885E-005
   3.1000000000000000E-002    -2.6010629881056957E-005
   3.2099999999999990E-002    -3.1182393286144361E-005
   3.3200000000000007E-002    -3.5594846849562600E-005
   3.4299999999999997E-002    -3.8277339626802132E-005
   3.5400000000000015E-002    -3.8936086639296263E-005
   3.6500000000000005E-002    -3.8158304960234091E-005
   3.7599999999999995E-002    -3.7308633181964979E-005
   3.8700000000000012E-002    -3.8015761674614623E-005
   3.9800000000000002E-002    -4.1374165448360145E-005
   4.0899999999999992E-002    -4.7284600441344082E-005
   4.2000000000000010E-002    -5.4396408813772723E-005
   4.3099999999999999E-002    -6.0798269259976223E-005
   4.4200000000000017E-002    -6.5060230554081500E-005
   4.5300000000000007E-002    -6.6958775278180838E-005
   4.6399999999999997E-002    -6.7428831243887544E-005
   4.7500000000000014E-002    -6.7888322519138455E-005
   4.8600000000000004E-002    -6.9509740569628775E-005
   4.9699999999999994E-002    -7.2903589170891792E-005
   5.0800000000000012E-002    -7.8216697147581726E-005
   5.1900000000000002E-002    -8.5283929365687072E-005
   5.2999999999999992E-002    -9.3593953351955861E-005
   5.4099999999999981E-002    -1.0216707596555352E-004
   5.5200000000000027E-002    -1.0972905874950811E-004
   5.6300000000000017E-002    -1.1530023039085791E-004
   5.7400000000000007E-002    -1.1884704872500151E-004
   5.8499999999999996E-002    -1.2143092317273840E-004
   5.9599999999999986E-002    -1.2465092004276812E-004
   6.0700000000000032E-002    -1.2970830721314996E-004
   6.1800000000000022E-002    -1.3684763689525425E-004
   6.2900000000000011E-002    -1.4546953025273979E-004
   6.4000000000000001E-002    -1.5473588427994400E-004
   6.5099999999999991E-002    -1.6399900778196752E-004
   6.6199999999999981E-002    -1.7285102512687445E-004
   6.7300000000000026E-002    -1.8095997802447528E-004
   6.8400000000000016E-002    -1.8808688037097454E-004
   6.9500000000000006E-002    -1.9441729818936437E-004
   7.0599999999999996E-002    -2.0080467220395803E-004
   7.1699999999999986E-002    -2.0840021898038685E-004
   7.2800000000000031E-002    -2.1790729078929871E-004
   7.3900000000000021E-002    -2.2895047732163221E-004
   7.5000000000000011E-002    -2.4033193767536432E-004
   7.6100000000000001E-002    -2.5093057774938643E-004
   7.7199999999999991E-002    -2.6045879349112511E-004
   7.8299999999999981E-002    -2.6960248942486942E-004
   7.9400000000000026E-002    -2.7913955273106694E-004
   8.0500000000000016E-002    -2.8928782558068633E-004
   8.1600000000000006E-002    -2.9961724067106843E-004
   8.2699999999999996E-002    -3.0969624640420079E-004
   8.3799999999999986E-002    -3.1975845922715962E-004
   8.4900000000000031E-002    -3.3044654992409050E-004
   8.6000000000000021E-002    -3.4211794263683259E-004
   8.7100000000000011E-002    -3.5440747160464525E-004
   8.8200000000000001E-002    -3.6647866363637149E-004
   8.9299999999999990E-002    -3.7787627661600709E-004
   9.0399999999999980E-002    -3.8887528353370726E-004
   9.1500000000000026E-002    -4.0013025864027441E-004
   9.2600000000000016E-002    -4.1186122689396143E-004
   9.3700000000000006E-002    -4.2348096030764282E-004
   9.4799999999999995E-002    -4.3423785245977342E-004
   9.5899999999999985E-002    -4.4407026143744588E-004
   9.7000000000000031E-002    -4.5398305519483984E-004
   9.8100000000000021E-002    -4.6524312347173691E-004
   9.9200000000000010E-002    -4.7809092211537063E-004
  0.10030000000000000         -4.9138820031657815E-004
  0.10139999999999999         -5.0364149501547217E-004
  0.10249999999999998         -5.1415746565908194E-004
  0.10360000000000003         -5.2368664182722569E-004
  0.10470000000000002         -5.3339329315349460E-004
  0.10580000000000001         -5.4361938964575529E-004
  0.10690000000000000         -5.5358972167596221E-004
  0.10799999999999998         -5.6244095321744680E-004
  0.10910000000000003         -5.7036022190004587E-004
  0.11020000000000002         -5.7866860879585147E-004
  0.11130000000000001         -5.8859086129814386E-004
  0.11240000000000000         -5.9999449877068400E-004
  0.11349999999999999         -6.1122747138142586E-004
  0.11460000000000004         -6.2057597097009420E-004
  0.11570000000000003         -6.2745920149609447E-004
  0.11680000000000001         -6.3284969655796885E-004
  0.11790000000000000         -6.3800200587138534E-004
  0.11899999999999999         -6.4336403738707304E-004
  0.12009999999999998         -6.4847199246287346E-004
  0.12120000000000003         -6.5293390071019530E-004
  0.12230000000000002         -6.5752735827118158E-004
  0.12340000000000001         -6.6334038274362683E-004
  0.12450000000000000         -6.7060242872685194E-004
  0.12559999999999999         -6.7776074865832925E-004
  0.12670000000000003         -6.8261550040915608E-004
  0.12780000000000002         -6.8434054264798760E-004
  0.12890000000000001         -6.8386399652808905E-004
  0.13000000000000000         -6.8342027952894568E-004
  0.13109999999999999         -6.8403762998059392E-004
  0.13219999999999998         -6.8504357477650046E-004
  0.13330000000000003         -6.8509310949593782E-004
  0.13440000000000002         -6.8408058723434806E-004
  0.13550000000000001         -6.8366917548701167E-004
  0.13660000000000000         -6.8467983510345221E-004
  0.13769999999999999         -6.8650708999484777E-004
  0.13880000000000003         -6.8688322789967060E-004
  0.13990000000000002         -6.8377290153875947E-004
  0.14100000000000001         -6.7751534515991807E-004
  0.14210000000000000         -6.7089177900925279E-004
  0.14319999999999999         -6.6594657255336642E-004
  0.14429999999999998         -6.6243455512449145E-004
  0.14540000000000003         -6.5860245376825333E-004
  0.14650000000000002         -6.5274618100374937E-004
  0.14760000000000001         -6.4523692708462477E-004
  0.14870000000000000         -6.3829903956502676E-004
  0.14979999999999999         -6.3368654809892178E-004
  0.15090000000000003         -6.3050113385543227E-004
  0.15200000000000002         -6.2614277703687549E-004
  0.15310000000000001         -6.1872077640146017E-004
  0.15420000000000000         -6.0930900508537889E-004
  0.15529999999999999         -5.9991521993651986E-004
  0.15639999999999998         -5.9167813742533326E-004
  0.15750000000000003         -5.8285862905904651E-004
  0.15860000000000002         -5.7188479695469141E-004
  0.15970000000000001         -5.5860629072412848E-004
  0.16080000000000000         -5.4594804532825947E-004
  0.16189999999999999         -5.3692323854193091E-004
  0.16300000000000003         -5.3187861340120435E-004
  0.16410000000000002         -5.2795943338423967E-004
  0.16520000000000001         -5.2085996139794588E-004
  0.16630000000000000         -5.0912762526422739E-004
  0.16739999999999999         -4.9424497410655022E-004
  0.16850000000000004         -4.7959023504517972E-004
  0.16960000000000003         -4.6628434211015701E-004
  0.17070000000000002         -4.5356302871368825E-004
  0.17180000000000001         -4.3993568397127092E-004
  0.17290000000000000         -4.2592495447024703E-004
  0.17399999999999999         -4.1465269168838859E-004
  0.17510000000000003         -4.0817909757606685E-004
  0.17620000000000002         -4.0343374712392688E-004
  0.17730000000000001         -3.9538298733532429E-004
  0.17840000000000000         -3.8037600461393595E-004
  0.17949999999999999         -3.6011371412314475E-004
  0.18060000000000004         -3.3998204162344337E-004
  0.18170000000000003         -3.2450308208353817E-004
  0.18280000000000002         -3.1388478237204254E-004
  0.18390000000000001         -3.0332434107549489E-004
  0.18500000000000000         -2.8945444501005113E-004
  0.18609999999999999         -2.7304005925543606E-004
  0.18720000000000003         -2.5848430232144892E-004
  0.18830000000000002         -2.4848946486599743E-004
  0.18940000000000001         -2.4015839153435081E-004
  0.19050000000000000         -2.2771625663153827E-004
  0.19159999999999999         -2.0770306582562625E-004
  0.19270000000000004         -1.8316511705052108E-004
  0.19380000000000003         -1.6091125144157559E-004
  0.19490000000000002         -1.4722763444297016E-004
  0.19600000000000001         -1.3913391740061343E-004
  0.19710000000000000         -1.2865304597653449E-004
  0.19819999999999999         -1.0997719800798222E-004
  0.19930000000000003         -8.5936582763679326E-005
  0.20040000000000002         -6.4290354202967137E-005
  0.20150000000000001         -5.0424074288457632E-005
  0.20260000000000000         -4.0312133933184668E-005
  0.20369999999999999         -2.5958473997889087E-005
  0.20480000000000004         -2.7289493118587416E-006
  0.20590000000000003          2.4240447601187043E-005
  0.20700000000000002          4.7284607717301697E-005
  0.20810000000000001          6.1310936871450394E-005
  0.20920000000000000          7.1685106377117336E-005
  0.21029999999999999          8.7518979853484780E-005
  0.21140000000000003          1.1255424033151940E-004
  0.21250000000000002          1.4212328824214637E-004
  0.21360000000000001          1.6725710884202272E-004
  0.21470000000000000          1.8289656145498157E-004
  0.21579999999999999          1.9417857402004302E-004
  0.21690000000000004          2.1012005163356662E-004
  0.21800000000000003          2.3507754667662084E-004
  0.21910000000000002          2.6446123956702650E-004
  0.22020000000000001          2.8964478406123817E-004
  0.22130000000000000          3.0496413819491863E-004
  0.22239999999999999          3.1721458071842790E-004
  0.22350000000000003          3.3628105302341282E-004
  0.22460000000000002          3.6604452179744840E-004
  0.22570000000000001          3.9799438673071563E-004
  0.22680000000000000          4.2205216595903039E-004
  0.22789999999999999          4.3381069554015994E-004
  0.22900000000000004          4.4207531027495861E-004
  0.23010000000000003          4.5815604971721768E-004
  0.23120000000000002          4.8625754425302148E-004
  0.23230000000000001          5.1927438471466303E-004
  0.23340000000000000          5.4410618031397462E-004
  0.23450000000000004          5.5757188238203526E-004
  0.23560000000000003          5.6747137568891048E-004
  0.23670000000000002          5.8324285782873631E-004
  0.23780000000000001          6.0863344697281718E-004
  0.23890000000000000          6.3572765793651342E-004
  0.23999999999999999          6.5581046510487795E-004
  0.24110000000000004          6.6702102776616812E-004
  0.24220000000000003          6.7554967245087028E-004
  0.24330000000000002          6.9024693220853806E-004
  0.24440000000000001          7.1416911669075489E-004
  0.24550000000000000          7.3914194945245981E-004
  0.24660000000000004          7.5541442492976785E-004
  0.24770000000000003          7.6027010800316930E-004
  0.24880000000000002          7.6384359272196889E-004
  0.24990000000000001          7.7637430513277650E-004
  0.25100000000000000          7.9840124817565084E-004
  0.25209999999999999          8.2025630399584770E-004
  0.25320000000000004          8.3351589273661375E-004
  0.25430000000000003          8.3702063420787454E-004
  0.25540000000000002          8.3829020150005817E-004
  0.25650000000000001          8.4716244600713253E-004
  0.25760000000000000          8.6348189506679773E-004
  0.25870000000000004          8.7822979548946023E-004
  0.25980000000000003          8.8307639816775918E-004
  0.26090000000000002          8.8052288629114628E-004
  0.26200000000000001          8.7845401139929891E-004
  0.26310000000000000          8.8569323997944593E-004
  0.26419999999999999          9.0035796165466309E-004
  0.26530000000000004          9.1345293913036585E-004
  0.26640000000000003          9.1674068244174123E-004
  0.26750000000000002          9.1371155576780438E-004
  0.26860000000000001          9.0879073832184076E-004
  0.26970000000000000          9.0891914442181587E-004
  0.27080000000000004          9.1289047850295901E-004
  0.27190000000000003          9.1474415967240930E-004
  0.27300000000000002          9.1156130656599998E-004
  0.27410000000000001          9.0753746917471290E-004
  0.27520000000000000          9.0726441703736782E-004
  0.27629999999999999          9.1086141765117645E-004
  0.27740000000000004          9.1389240697026253E-004
  0.27850000000000003          9.1155315749347210E-004
  0.27960000000000002          9.0422079665586352E-004
  0.28070000000000001          8.9598872000351548E-004
  0.28179999999999999          8.9069450041279197E-004
  0.28290000000000004          8.8885892182588577E-004
  0.28400000000000003          8.8482425780966878E-004
  0.28510000000000002          8.7503244867548347E-004
  0.28620000000000001          8.6422334425151348E-004
  0.28730000000000000          8.5837300866842270E-004
  0.28840000000000005          8.6015887791290879E-004
  0.28950000000000004          8.6328835459426045E-004
  0.29060000000000002          8.5842906264588237E-004
  0.29170000000000001          8.4344879724085331E-004
  0.29280000000000000          8.2737707998603582E-004
  0.29389999999999999          8.1945606507360935E-004
  0.29500000000000004          8.1802922068163753E-004
  0.29610000000000003          8.1551639596000314E-004
  0.29720000000000002          8.0445321509614587E-004
  0.29830000000000001          7.8680907608941197E-004
  0.29940000000000000          7.7209912706166506E-004
  0.30050000000000004          7.6720368815585971E-004
  0.30160000000000003          7.6988426735624671E-004
  0.30270000000000002          7.6950446236878633E-004
  0.30380000000000001          7.5674813706427813E-004
  0.30490000000000000          7.3637638706713915E-004
  0.30599999999999999          7.1850937092676759E-004
  0.30709999999999998          7.1199401281774044E-004
  0.30819999999999997          7.1103259688243270E-004
  0.30930000000000007          7.0453592343255877E-004
  0.31040000000000006          6.8730255588889122E-004
  0.31150000000000005          6.6549278562888503E-004
  0.31260000000000004          6.5108557464554906E-004
  0.31370000000000003          6.4967962680384517E-004
  0.31480000000000002          6.5199978416785598E-004
  0.31590000000000001          6.4434815431013703E-004
  0.31700000000000000          6.2319485004991293E-004
  0.31809999999999999          5.9806468198075891E-004
  0.31919999999999998          5.8237498160451651E-004
  0.32029999999999997          5.7878973893821239E-004
  0.32140000000000007          5.7494250359013677E-004
  0.32250000000000006          5.6069059064611793E-004
  0.32360000000000005          5.3604028653353453E-004
  0.32470000000000004          5.1211111713200808E-004
  0.32580000000000003          5.0171930342912674E-004
  0.32690000000000002          5.0199241377413273E-004
  0.32800000000000001          5.0042313523590565E-004
  0.32910000000000000          4.8403721302747726E-004
  0.33019999999999999          4.5356032205745578E-004
  0.33129999999999998          4.2391216265968978E-004
  0.33239999999999997          4.0859187720343471E-004
  0.33350000000000007          4.0457985596731305E-004
  0.33460000000000006          3.9958220440894365E-004
  0.33570000000000005          3.8226990727707744E-004
  0.33680000000000004          3.5587287857197225E-004
  0.33790000000000003          3.3097056439146399E-004
  0.33900000000000002          3.1746504828333855E-004
  0.34010000000000001          3.1196104828268290E-004
  0.34120000000000000          3.0083907768130302E-004
  0.34229999999999999          2.7821899857372046E-004
  0.34339999999999998          2.4959124857559800E-004
  0.34449999999999997          2.2698925749864429E-004
  0.34560000000000007          2.1464299061335623E-004
  0.34670000000000006          2.0680244779214263E-004
  0.34780000000000005          1.9309802155476063E-004
  0.34890000000000004          1.6998063074424863E-004
