 -0.20000000000000001          0.0000000000000000
 -0.19890000000000002          0.0000000000000000
 -0.19780000000000000          0.0000000000000000
 -0.19670000000000001          0.0000000000000000
 -0.19560000000000002          0.0000000000000000
 -0.19450000000000001          0.0000000000000000
 -0.19340000000000002          0.0000000000000000
 -0.19230000000000000          0.0000000000000000
 -0.19120000000000001          0.0000000000000000
 -0.19010000000000002          0.0000000000000000
 -0.18900000000000000          3.6795612655689320E-026
 -0.18790000000000001          4.9541248778404105E-025
 -0.18680000000000002          1.0891567832267207E-024
 -0.18570000000000000         -8.2226679797440599E-024
 -0.18460000000000001         -4.6716147169683824E-023
 -0.18350000000000000         -2.4744965209145542E-023
 -0.18240000000000001          4.8184007792843701E-022
 -0.18130000000000002          1.6126478760251021E-021
 -0.18020000000000000          1.9425468812594367E-022
 -0.17910000000000001         -1.2021603250340683E-020
 -0.17800000000000002         -3.2665540104303791E-020
 -0.17690000000000000         -6.9131046160686756E-021
 -0.17580000000000001          1.7227952988992452E-019
 -0.17470000000000002          4.5521232864016880E-019
 -0.17360000000000000          2.2279750492537223E-019
 -0.17250000000000001         -1.6073082967318952E-018
 -0.17140000000000000         -4.6599885688567919E-018
 -0.17030000000000001         -3.7999006435848734E-018
 -0.16920000000000002          9.9996458044494175E-018
 -0.16810000000000000          3.6126921347351371E-017
 -0.16700000000000001          4.1694846104013212E-017
 -0.16589999999999999         -3.6206449800164670E-017
 -0.16480000000000000         -2.1406976325685247E-016
 -0.16370000000000001         -3.2726597577849628E-016
 -0.16260000000000002         -9.8733096823135811E-018
 -0.16150000000000000          9.5370954718092781E-016
 -0.16040000000000001          1.9347577180091986E-015
 -0.15930000000000000          1.1655060063562477E-015
 -0.15820000000000001         -2.9555850971393731E-015
 -0.15710000000000002         -8.7894982633320018E-015
 -0.15600000000000000         -9.3044307677915723E-015
 -0.15490000000000001          4.1884737391200029E-015
 -0.15379999999999999          3.0416329719652746E-014
 -0.15270000000000000          4.6781189219722435E-014
 -0.15160000000000001          1.6299399099839983E-014
 -0.15050000000000002         -7.5327466703481449E-014
 -0.14940000000000001         -1.7218396305106187E-013
 -0.14830000000000002         -1.4739995519725407E-013
 -0.14720000000000000          9.8878574056847357E-014
 -0.14610000000000001          4.7604032261255869E-013
 -0.14500000000000002          6.3146178824052823E-013
 -0.14390000000000000          1.5589698314829453E-013
 -0.14280000000000001         -9.4625414275018027E-013
 -0.14169999999999999         -1.8929096571446147E-012
 -0.14060000000000000         -1.4230003893972443E-012
 -0.13950000000000001          1.0634362314354551E-012
 -0.13840000000000002          4.2587725880560701E-012
 -0.13730000000000001          5.0386366086396794E-012
 -0.13619999999999999          7.8743169753744957E-013
 -0.13510000000000000         -7.1992294937983647E-012
 -0.13400000000000001         -1.2513828515081649E-011
 -0.13290000000000002         -7.5606769109337613E-012
 -0.13180000000000000          8.5671600022485528E-012
 -0.13070000000000001          2.4838506251789738E-011
 -0.12959999999999999          2.3386886177645394E-011
 -0.12850000000000000         -4.4815318990532038E-012
 -0.12740000000000001         -4.3049248193982592E-011
 -0.12630000000000002         -5.5509184054836069E-011
 -0.12520000000000001         -1.2965775154916148E-011
 -0.12410000000000000          6.8721965618134817E-011
 -0.12300000000000001          1.2103354429804369E-010
 -0.12190000000000001          6.8785047102615238E-011
 -0.12080000000000000         -9.1064440710386663E-011
 -0.11970000000000000         -2.4626489736334634E-010
 -0.11860000000000001         -2.2741006300286415E-010
 -0.11750000000000001          4.2515296838629979E-011
 -0.11640000000000000          4.1956263463482912E-010
 -0.11530000000000000          5.7629245819867947E-010
 -0.11420000000000001          2.4565888212535469E-010
 -0.11310000000000001         -4.8310666578288419E-010
 -0.11200000000000000         -1.0927895255363751E-009
 -0.11090000000000001         -9.5847541015103843E-010
 -0.10980000000000001          9.5750830875207527E-011
 -0.10870000000000000          1.4558564354061332E-009
 -0.10760000000000000          2.0054673477432061E-009
 -0.10650000000000001          9.9251618035367528E-010
 -0.10540000000000001         -1.1542288236299214E-009
 -0.10430000000000000         -2.8537603391498578E-009
 -0.10320000000000000         -2.4899731165817229E-009
 -0.10210000000000001          1.0530958743926178E-010
 -0.10100000000000001          3.0986972987534500E-009
  -9.9900000000000003E-002     3.8276644076518096E-009
  -9.8799999999999999E-002     1.0834864117015286E-009
  -9.7700000000000009E-002    -3.3469087501458716E-009
  -9.6600000000000005E-002    -5.5543716293016132E-009
  -9.5500000000000002E-002    -2.6492403826239297E-009
  -9.4400000000000012E-002     4.1632217673281957E-009
  -9.3300000000000008E-002     9.4908250147796025E-009
  -9.2200000000000004E-002     7.5666655163786345E-009
  -9.1100000000000000E-002    -2.4904538431513856E-009
  -9.0000000000000011E-002    -1.4396584369080756E-008
  -8.8900000000000007E-002    -1.8246604227556418E-008
  -8.7800000000000003E-002    -8.1875120017116387E-009
  -8.6699999999999999E-002     1.1528977772456983E-008
  -8.5600000000000009E-002     2.7711259065199556E-008
  -8.4500000000000006E-002     2.7121091150661414E-008
  -8.3400000000000002E-002     7.0983499078636214E-009
  -8.2299999999999998E-002    -2.0609151718531393E-008
  -8.1200000000000008E-002    -3.7031089306083231E-008
  -8.0100000000000005E-002    -2.9852873950630965E-008
  -7.9000000000000001E-002    -3.5259983821589458E-009
  -7.7899999999999997E-002     2.3051832442888553E-008
  -7.6800000000000007E-002     3.0683317220336903E-008
  -7.5700000000000003E-002     1.5362699556931148E-008
  -7.4600000000000000E-002    -7.6495449974345320E-009
  -7.3500000000000010E-002    -1.5800525332565485E-008
  -7.2399999999999992E-002     1.0716895149087691E-009
  -7.1300000000000002E-002     2.9267996026760557E-008
  -7.0200000000000012E-002     3.9146826225078257E-008
  -6.9099999999999995E-002     8.9170990591469490E-009
  -6.8000000000000005E-002    -5.3075485340059458E-008
  -6.6900000000000015E-002    -1.0662992622201273E-007
  -6.5799999999999997E-002    -1.0411686446332169E-007
  -6.4700000000000008E-002    -2.6629159322055784E-008
  -6.3599999999999990E-002     9.4278369999756251E-008
  -6.2500000000000000E-002     1.8860261263853317E-007
  -6.1400000000000010E-002     1.9038671439375321E-007
  -6.0299999999999992E-002     8.4039214698350406E-008
  -5.9200000000000003E-002    -7.8740058029325155E-008
  -5.8100000000000013E-002    -2.0721417115510121E-007
  -5.6999999999999995E-002    -2.2937706489756238E-007
  -5.5900000000000005E-002    -1.4006126036747446E-007
  -5.4800000000000015E-002    -3.5483300742100710E-009
  -5.3699999999999998E-002     9.4085002899646497E-008
  -5.2600000000000008E-002     1.0939060501868880E-007
  -5.1499999999999990E-002     7.2976504839061818E-008
  -5.0400000000000000E-002     5.9823982212492410E-008
  -4.9300000000000010E-002     1.1771741981192463E-007
  -4.8199999999999993E-002     2.1092408530876128E-007
  -4.7100000000000003E-002     2.3189595310668665E-007
  -4.6000000000000013E-002     8.4072887318598077E-008
  -4.4899999999999995E-002    -2.2182422299010796E-007
  -4.3800000000000006E-002    -5.3821759138372727E-007
  -4.2699999999999988E-002    -6.5732444909372134E-007
  -4.1599999999999998E-002    -4.5323042741074460E-007
  -4.0500000000000008E-002     1.1241860775612622E-008
  -3.9399999999999991E-002     5.0084116764992359E-007
  -3.8300000000000001E-002     7.5075354288856033E-007
  -3.7200000000000011E-002     6.4204863292616210E-007
  -3.6099999999999993E-002     2.8197473511681892E-007
  -3.5000000000000003E-002    -7.5743272986983357E-008
  -3.3900000000000013E-002    -2.1728372701090848E-007
  -3.2799999999999996E-002    -1.2393154236178816E-007
  -3.1700000000000006E-002     2.3766752121900936E-008
  -3.0599999999999988E-002     1.2916964720055546E-010
  -2.9499999999999998E-002    -2.7011566317014513E-007
  -2.8400000000000009E-002    -6.3035912489795010E-007
  -2.7299999999999991E-002    -7.9855266221784404E-007
  -2.6200000000000001E-002    -5.9091547655043541E-007
  -2.5100000000000011E-002    -9.4176094478370942E-008
  -2.3999999999999994E-002     3.5574521461967379E-007
  -2.2900000000000004E-002     3.9282454622480145E-007
  -2.1800000000000014E-002    -1.0849112896949009E-007
  -2.0699999999999996E-002    -9.0815740350080887E-007
  -1.9600000000000006E-002    -1.5255409380188212E-006
  -1.8499999999999989E-002    -1.5443229131051339E-006
  -1.7399999999999999E-002    -8.9298976035934174E-007
  -1.6300000000000009E-002     9.7264567955335224E-008
  -1.5199999999999991E-002     9.0605482228056644E-007
  -1.4100000000000001E-002     1.1656168226181762E-006
  -1.3000000000000012E-002     8.9007392034545774E-007
  -1.1899999999999994E-002     4.2483472384446941E-007
  -1.0800000000000004E-002     1.5016874499451660E-007
  -9.6999999999999864E-003     1.6041957451307098E-007
  -8.5999999999999965E-003     1.7201844570990943E-007
  -7.5000000000000067E-003    -2.4837041223690903E-007
  -6.3999999999999890E-003    -1.2910833220303175E-006
  -5.2999999999999992E-003    -2.6495442853047280E-006
  -4.2000000000000093E-003    -3.6320070648798719E-006
  -3.0999999999999917E-003    -3.6017731872561853E-006
  -2.0000000000000018E-003    -2.4465107344440185E-006
  -9.0000000000001190E-004    -7.2358290026386385E-007
   2.0000000000000573E-004     6.5664642079354962E-007
   1.2999999999999956E-003     1.0084162340717739E-006
   2.4000000000000132E-003     3.0096245495769836E-007
   3.5000000000000031E-003    -8.7298212747555226E-007
   4.5999999999999930E-003    -1.7675677099759923E-006
   5.7000000000000106E-003    -2.0397101252456196E-006
   6.8000000000000005E-003    -1.9701119526871480E-006
   7.8999999999999904E-003    -2.1843195554538397E-006
   9.0000000000000080E-003    -3.0952751330914907E-006
   1.0099999999999998E-002    -4.5064239202474710E-006
   1.1199999999999988E-002    -5.6967692216858268E-006
   1.2300000000000005E-002    -5.9403446357464418E-006
   1.3399999999999995E-002    -5.0754542826325633E-006
   1.4500000000000013E-002    -3.6918670502927853E-006
   1.5600000000000003E-002    -2.7791088541562203E-006
   1.6699999999999993E-002    -3.0742339731659740E-006
   1.7800000000000010E-002    -4.5676570152863860E-006
   1.8900000000000000E-002    -6.5168437686224934E-006
   1.9999999999999990E-002    -7.9605424616602249E-006
   2.1100000000000008E-002    -8.3755285231745802E-006
   2.2199999999999998E-002    -8.0232939581037499E-006
   2.3300000000000015E-002    -7.7465801950893365E-006
   2.4400000000000005E-002    -8.3606146290549077E-006
   2.5499999999999995E-002    -1.0062466571980622E-005
   2.6600000000000013E-002    -1.2276294910407159E-005
   2.7700000000000002E-002    -1.4053372979105916E-005
   2.8799999999999992E-002    -1.4756985365238506E-005
   2.9900000000000010E-002    -1.4545784324582200E-005
   3.1000000000000000E-002    -1.4299451322585810E-005
   3.2099999999999990E-002    -1.5015707504062448E-005
   3.3200000000000007E-002    -1.7097894669859670E-005
   3.4299999999999997E-002    -2.0055333152413368E-005
   3.5400000000000015E-002    -2.2845750208944082E-005
   3.6500000000000005E-002    -2.4629551262478344E-005
   3.7599999999999995E-002    -2.5380220904480666E-005
   3.8700000000000012E-002    -2.5891189579851925E-005
   3.9800000000000002E-002    -2.7177064112038352E-005
   4.0899999999999992E-002    -2.9721377359237522E-005
   4.2000000000000010E-002    -3.3139400329673663E-005
   4.3099999999999999E-002    -3.6515073588816449E-005
   4.4200000000000017E-002    -3.9132650272222236E-005
   4.5300000000000007E-002    -4.1033254092326388E-005
   4.6399999999999997E-002    -4.2978917917935178E-005
   4.7500000000000014E-002    -4.5855766074964777E-005
   4.8600000000000004E-002    -5.0000286137219518E-005
   4.9699999999999994E-002    -5.4944310249993578E-005
   5.0800000000000012E-002    -5.9763027820736170E-005
   5.1900000000000002E-002    -6.3730469264555722E-005
   5.2999999999999992E-002    -6.6813241573981941E-005
   5.4099999999999981E-002    -6.9663641625083983E-005
   5.5200000000000027E-002    -7.3164213972631842E-005
   5.6300000000000017E-002    -7.7861295721959323E-005
   5.7400000000000007E-002    -8.3672959590330720E-005
   5.8499999999999996E-002    -9.0012152213603258E-005
   5.9599999999999986E-002    -9.6218755061272532E-005
   6.0700000000000032E-002    -1.0200774704571813E-004
   6.1800000000000022E-002    -1.0764703620225191E-004
   6.2900000000000011E-002    -1.1376098700566217E-004
   6.4000000000000001E-002    -1.2089648953406140E-004
   6.5099999999999991E-002    -1.2910764780826867E-004
   6.6199999999999981E-002    -1.3785489136353135E-004
   6.7300000000000026E-002    -1.4631563681177795E-004
   6.8400000000000016E-002    -1.5394850925076753E-004
   6.9500000000000006E-002    -1.6088997654151171E-004
   7.0599999999999996E-002    -1.6793423856142908E-004
   7.1699999999999986E-002    -1.7604551976546645E-004
   7.2800000000000031E-002    -1.8573543638922274E-004
   7.3900000000000021E-002    -1.9674202485475689E-004
   7.5000000000000011E-002    -2.0827287517022341E-004
   7.6100000000000001E-002    -2.1960459707770497E-004
   7.7199999999999991E-002    -2.3056325153447688E-004
   7.8299999999999981E-002    -2.4152021796908230E-004
   7.9400000000000026E-002    -2.5302739231847227E-004
   8.0500000000000016E-002    -2.6530885952524841E-004
   8.1600000000000006E-002    -2.7809152379631996E-004
   8.2699999999999996E-002    -2.9089176678098738E-004
   8.3799999999999986E-002    -3.0345743289217353E-004
   8.4900000000000031E-002    -3.1598896021023393E-004
   8.6000000000000021E-002    -3.2902471139095724E-004
   8.7100000000000011E-002    -3.4308547037653625E-004
   8.8200000000000001E-002    -3.5838645999319851E-004
   8.9299999999999990E-002    -3.7472500116564333E-004
   9.0399999999999980E-002    -3.9161791210062802E-004
   9.1500000000000026E-002    -4.0845276089385152E-004
   9.2600000000000016E-002    -4.2473251232877374E-004
   9.3700000000000006E-002    -4.4023132068105042E-004
   9.4799999999999995E-002    -4.5510867494158447E-004
   9.5899999999999985E-002    -4.6994330477900803E-004
   9.7000000000000031E-002    -4.8548556515015662E-004
   9.8100000000000021E-002    -5.0221208948642015E-004
   9.9200000000000010E-002    -5.2007474005222321E-004
  0.10030000000000000         -5.3841684712097049E-004
  0.10139999999999999         -5.5653165327385068E-004
  0.10249999999999998         -5.7408737484365702E-004
  0.10360000000000003         -5.9133506147190928E-004
  0.10470000000000002         -6.0875894268974662E-004
  0.10580000000000001         -6.2664732104167342E-004
  0.10690000000000000         -6.4483220921829343E-004
  0.10799999999999998         -6.6285714274272323E-004
  0.10910000000000003         -6.8037904566153884E-004
  0.11020000000000002         -6.9743755739182234E-004
  0.11130000000000001         -7.1450538234785199E-004
  0.11240000000000000         -7.3188310489058495E-004
  0.11349999999999999         -7.4941577622666955E-004
  0.11460000000000004         -7.6673488365486264E-004
  0.11570000000000003         -7.8345672227442265E-004
  0.11680000000000001         -7.9932861262932420E-004
  0.11790000000000000         -8.1449816934764385E-004
  0.11899999999999999         -8.2905829185619950E-004
  0.12009999999999998         -8.4310257807374001E-004
  0.12120000000000003         -8.5688539547845721E-004
  0.12230000000000002         -8.7049143621698022E-004
  0.12340000000000001         -8.8404421694576740E-004
  0.12450000000000000         -8.9738453971222043E-004
  0.12559999999999999         -9.0994423953816295E-004
  0.12670000000000003         -9.2104478972032666E-004
  0.12780000000000002         -9.3060947256162763E-004
  0.12890000000000001         -9.3932903837412596E-004
  0.13000000000000000         -9.4789289869368076E-004
  0.13109999999999999         -9.5656007761135697E-004
  0.13219999999999998         -9.6490758005529642E-004
  0.13330000000000003         -9.7165280021727085E-004
  0.13440000000000002         -9.7621546592563391E-004
  0.13550000000000001         -9.7890000324696302E-004
  0.13660000000000000         -9.8086579237133265E-004
  0.13769999999999999         -9.8280282691121101E-004
  0.13880000000000003         -9.8500284366309643E-004
  0.13990000000000002         -9.8678411450237036E-004
  0.14100000000000001         -9.8690658342093229E-004
  0.14210000000000000         -9.8481879103928804E-004
  0.14319999999999999         -9.8096649162471294E-004
  0.14429999999999998         -9.7635952988639474E-004
  0.14540000000000003         -9.7129744244739413E-004
  0.14650000000000002         -9.6564512932673097E-004
  0.14760000000000001         -9.5865590265020728E-004
  0.14870000000000000         -9.5002714078873396E-004
  0.14979999999999999         -9.3927077250555158E-004
  0.15090000000000003         -9.2749565374106169E-004
  0.15200000000000002         -9.1529305791482329E-004
  0.15310000000000001         -9.0258917771279812E-004
  0.15420000000000000         -8.8930677156895399E-004
  0.15529999999999999         -8.7525573326274753E-004
  0.15639999999999998         -8.5974566172808409E-004
  0.15750000000000003         -8.4263522876426578E-004
  0.15860000000000002         -8.2391122123226523E-004
  0.15970000000000001         -8.0414069816470146E-004
  0.16080000000000000         -7.8324676724150777E-004
  0.16189999999999999         -7.6229689875617623E-004
  0.16300000000000003         -7.4190477607771754E-004
  0.16410000000000002         -7.2104152059182525E-004
  0.16520000000000001         -6.9923815317451954E-004
  0.16630000000000000         -6.7607016535475850E-004
  0.16739999999999999         -6.5118365455418825E-004
  0.16850000000000004         -6.2508147675544024E-004
  0.16960000000000003         -5.9811072424054146E-004
  0.17070000000000002         -5.7106115855276585E-004
  0.17180000000000001         -5.4406741401180625E-004
  0.17290000000000000         -5.1694363355636597E-004
  0.17399999999999999         -4.8975297249853611E-004
  0.17510000000000003         -4.6227005077525973E-004
  0.17620000000000002         -4.3420487781986594E-004
  0.17730000000000001         -4.0556507883593440E-004
  0.17840000000000000         -3.7725118454545736E-004
  0.17949999999999999         -3.4852584940381348E-004
  0.18060000000000004         -3.1912597478367388E-004
  0.18170000000000003         -2.8949178522452712E-004
  0.18280000000000002         -2.6031146990135312E-004
  0.18390000000000001         -2.3133945069275796E-004
  0.18500000000000000         -2.0222923194523901E-004
  0.18609999999999999         -1.7311691772192717E-004
  0.18720000000000003         -1.4458707300946116E-004
  0.18830000000000002         -1.1577666009543464E-004
  0.18940000000000001         -8.6500884208362550E-005
  0.19050000000000000         -5.6850683904485777E-005
  0.19159999999999999         -2.7630090698949061E-005
  0.19270000000000004          6.5384961089876015E-007
  0.19380000000000003          2.8193617254146375E-005
  0.19490000000000002          5.5314692872343585E-005
  0.19600000000000001          8.2874525105580688E-005
  0.19710000000000000          1.1151721264468506E-004
  0.19819999999999999          1.3968051644042134E-004
  0.19930000000000003          1.6594346379861236E-004
  0.20040000000000002          1.9087792315986007E-004
  0.20150000000000001          2.1572504192590714E-004
  0.20260000000000000          2.4194052093662322E-004
  0.20369999999999999          2.6804572553373873E-004
  0.20480000000000004          2.9391070711426437E-004
  0.20590000000000003          3.1840763404034078E-004
  0.20700000000000002          3.4171584411524236E-004
  0.20810000000000001          3.6495501990430057E-004
  0.20920000000000000          3.8984956336207688E-004
  0.21029999999999999          4.1607176535762846E-004
  0.21140000000000003          4.4264551252126694E-004
  0.21250000000000002          4.6799983829259872E-004
  0.21360000000000001          4.9083738122135401E-004
  0.21470000000000000          5.1177677232772112E-004
  0.21579999999999999          5.3271150682121515E-004
  0.21690000000000004          5.5487890494987369E-004
  0.21800000000000003          5.7933985954150558E-004
  0.21910000000000002          6.0367293190211058E-004
  0.22020000000000001          6.2726059695705771E-004
  0.22130000000000000          6.4930994994938374E-004
  0.22239999999999999          6.7221286008134484E-004
  0.22350000000000003          6.9586106110364199E-004
  0.22460000000000002          7.1973382728174329E-004
  0.22570000000000001          7.4295577360317111E-004
  0.22680000000000000          7.6553330291062593E-004
  0.22789999999999999          7.8754534479230642E-004
  0.22900000000000004          8.1109534949064255E-004
  0.23010000000000003          8.3573447773233056E-004
  0.23120000000000002          8.6092459969222546E-004
  0.23230000000000001          8.8430539472028613E-004
  0.23340000000000000          9.0720661683008075E-004
  0.23450000000000004          9.2933693667873740E-004
  0.23560000000000003          9.5387001056224108E-004
  0.23670000000000002          9.7845296841114759E-004
  0.23780000000000001          1.0036634048447013E-003
  0.23890000000000000          1.0269730119034648E-003
  0.23999999999999999          1.0495049646124244E-003
  0.24110000000000004          1.0724844178184867E-003
  0.24220000000000003          1.0974364122375846E-003
  0.24330000000000002          1.1240626918151975E-003
  0.24440000000000001          1.1487441370263696E-003
  0.24550000000000000          1.1714444262906909E-003
  0.24660000000000004          1.1919215321540833E-003
  0.24770000000000003          1.2127149384468794E-003
  0.24880000000000002          1.2352811172604561E-003
  0.24990000000000001          1.2615735176950693E-003
  0.25100000000000000          1.2885751202702522E-003
  0.25209999999999999          1.3115413021296263E-003
  0.25320000000000004          1.3307943008840084E-003
  0.25430000000000003          1.3475167797878385E-003
  0.25540000000000002          1.3658179668709636E-003
  0.25650000000000001          1.3864539796486497E-003
  0.25760000000000000          1.4077950036153197E-003
  0.25870000000000004          1.4266369398683310E-003
  0.25980000000000003          1.4412172604352236E-003
  0.26090000000000002          1.4529470354318619E-003
  0.26200000000000001          1.4672968536615372E-003
  0.26310000000000000          1.4843618264421821E-003
  0.26419999999999999          1.5021819854155183E-003
  0.26530000000000004          1.5154952416196465E-003
  0.26640000000000003          1.5215782914310694E-003
  0.26750000000000002          1.5251040458679199E-003
  0.26860000000000001          1.5308357542380691E-003
  0.26970000000000000          1.5412134816870093E-003
  0.27080000000000004          1.5505451010540128E-003
  0.27190000000000003          1.5555593417957425E-003
  0.27300000000000002          1.5522930771112442E-003
  0.27410000000000001          1.5449202619493008E-003
  0.27520000000000000          1.5406495658680797E-003
  0.27629999999999999          1.5417517861351371E-003
  0.27740000000000004          1.5433477237820625E-003
  0.27850000000000003          1.5396398957818747E-003
  0.27960000000000002          1.5262009110301733E-003
  0.28070000000000001          1.5067808562889695E-003
  0.28179999999999999          1.4892873587086797E-003
  0.28290000000000004          1.4774429146200418E-003
  0.28400000000000003          1.4679447049275041E-003
  0.28510000000000002          1.4539853436872363E-003
  0.28620000000000001          1.4307574601843953E-003
  0.28730000000000000          1.4006803976371884E-003
  0.28840000000000005          1.3714423403143883E-003
  0.28950000000000004          1.3478933833539486E-003
  0.29060000000000002          1.3275297824293375E-003
  0.29170000000000001          1.3027563691139221E-003
  0.29280000000000000          1.2693462194874883E-003
  0.29389999999999999          1.2305161217227578E-003
  0.29500000000000004          1.1917256051674485E-003
  0.29610000000000003          1.1577917030081153E-003
  0.29720000000000002          1.1268684174865484E-003
  0.29830000000000001          1.0912170400843024E-003
  0.29940000000000000          1.0473363799974322E-003
  0.30050000000000004          9.9845486693084240E-004
  0.30160000000000003          9.5264374976977706E-004
  0.30270000000000002          9.1309659183025360E-004
  0.30380000000000001          8.7647896725684404E-004
  0.30490000000000000          8.3366292528808117E-004
  0.30599999999999999          7.8238314017653465E-004
  0.30709999999999998          7.2716840077191591E-004
  0.30819999999999997          6.7364203277975321E-004
  0.30930000000000007          6.2990945298224688E-004
  0.31040000000000006          5.9118313947692513E-004
  0.31150000000000005          5.4851436289027333E-004
  0.31260000000000004          4.9522338667884469E-004
  0.31370000000000003          4.3684238335117698E-004
  0.31480000000000002          3.8063840474933386E-004
  0.31590000000000001          3.3549949876032770E-004
  0.31700000000000000          2.9657175764441490E-004
  0.31809999999999999          2.5512574939057231E-004
  0.31919999999999998          2.0337515161372721E-004
  0.32029999999999997          1.4456744247581810E-004
  0.32140000000000007          8.9286826550960541E-005
  0.32250000000000006          4.5377873902907595E-005
  0.32360000000000005          1.1133963198517449E-005
  0.32470000000000004         -2.5145791369141079E-005
  0.32580000000000003         -7.0164685894269496E-005
  0.32690000000000002         -1.2286762648727745E-004
  0.32800000000000001         -1.7340213526040316E-004
  0.32910000000000000         -2.1219188056420535E-004
  0.33019999999999999         -2.4064870376605541E-004
  0.33129999999999998         -2.6923060067929327E-004
  0.33239999999999997         -3.0566492932848632E-004
  0.33350000000000007         -3.4942000638693571E-004
  0.33460000000000006         -3.9128286880441010E-004
  0.33570000000000005         -4.2320817010477185E-004
  0.33680000000000004         -4.4409840484149754E-004
  0.33790000000000003         -4.6342366840690374E-004
  0.33900000000000002         -4.8893492203205824E-004
  0.34010000000000001         -5.2184553351253271E-004
  0.34120000000000000         -5.5327324662357569E-004
  0.34229999999999999         -5.7593086967244744E-004
  0.34339999999999998         -5.8881123550236225E-004
  0.34449999999999997         -5.9893954312428832E-004
  0.34560000000000007         -6.1421457212418318E-004
  0.34670000000000006         -6.3525221776217222E-004
  0.34780000000000005         -6.5527769038453698E-004
  0.34890000000000004         -6.6759728360921144E-004
