 -0.20000000000000001          0.0000000000000000
 -0.19890000000000002          0.0000000000000000
 -0.19780000000000000          0.0000000000000000
 -0.19670000000000001          0.0000000000000000
 -0.19560000000000002          0.0000000000000000
 -0.19450000000000001          0.0000000000000000
 -0.19340000000000002          2.1733293331018796E-020
 -0.19230000000000000          1.2894161181842250E-019
 -0.19120000000000001          2.3880391506742406E-019
 -0.19010000000000002         -4.2063400768623923E-019
 -0.18900000000000000         -3.4667131200291218E-018
 -0.18790000000000001         -9.3529435938468007E-018
 -0.18680000000000002         -1.2690215355721548E-017
 -0.18570000000000000          6.4697910931119343E-019
 -0.18460000000000001          4.5702274782758965E-017
 -0.18350000000000000          1.1586345309810383E-016
 -0.18240000000000001          1.5939577174506875E-016
 -0.18130000000000002          8.7203352173931585E-017
 -0.18020000000000000         -1.6316152140987259E-016
 -0.17910000000000001         -5.2923386168058791E-016
 -0.17800000000000002         -7.7523996989226532E-016
 -0.17690000000000000         -5.9121602699150765E-016
 -0.17580000000000001          1.5265544089283027E-016
 -0.17470000000000002          1.1570357827627876E-015
 -0.17360000000000000          1.7226881965873981E-015
 -0.17250000000000001          1.2193515731757243E-015
 -0.17140000000000000         -2.1546531621182649E-016
 -0.17030000000000001         -1.3567325880443310E-015
 -0.16920000000000002         -5.6406136831147152E-016
 -0.16810000000000000          2.6054100300421085E-015
 -0.16700000000000001          5.9447232869013215E-015
 -0.16589999999999999          4.9621883614905903E-015
 -0.16480000000000000         -4.1055729305096314E-015
 -0.16370000000000001         -1.9955598181940255E-014
 -0.16260000000000002         -3.3907555582744181E-014
 -0.16150000000000000         -3.2821405234475644E-014
 -0.16040000000000001         -7.2644391587155762E-015
 -0.15930000000000000          3.9547805676980837E-014
 -0.15820000000000001          8.8732257761017317E-014
 -0.15710000000000002          1.1262657608834039E-013
 -0.15600000000000000          8.9013100005002402E-014
 -0.15490000000000001          1.4459081108523437E-014
 -0.15379999999999999         -9.1397348673728617E-014
 -0.15270000000000000         -1.9268384088797163E-013
 -0.15160000000000001         -2.5018371705917041E-013
 -0.15050000000000002         -2.3318258673792397E-013
 -0.14940000000000001         -1.2750041365577291E-013
 -0.14830000000000002          5.7830523952483814E-014
 -0.14720000000000000          2.8357424373093435E-013
 -0.14610000000000001          4.7863210790590841E-013
 -0.14500000000000002          5.5487260836388169E-013
 -0.14390000000000000          4.4342364524140763E-013
 -0.14280000000000001          1.3942216521909402E-013
 -0.14169999999999999         -2.7390166957441465E-013
 -0.14060000000000000         -6.4757867037498076E-013
 -0.13950000000000001         -8.3410172215314345E-013
 -0.13840000000000002         -7.6347451581283791E-013
 -0.13730000000000001         -4.7858489090120791E-013
 -0.13619999999999999         -1.0330429410117224E-013
 -0.13510000000000000          2.3687922825509470E-013
 -0.13400000000000001          4.8642313050721418E-013
 -0.13290000000000002          6.7263984096161531E-013
 -0.13180000000000000          8.5219109330002975E-013
 -0.13070000000000001          1.0330880031648034E-012
 -0.12959999999999999          1.1325622514477148E-012
 -0.12850000000000000          1.0048514754653694E-012
 -0.12740000000000001          5.2260452909614165E-013
 -0.12630000000000002         -3.4130098920682255E-013
 -0.12520000000000001         -1.4833796083830291E-012
 -0.12410000000000000         -2.7073662322435344E-012
 -0.12300000000000001         -3.8051953081540853E-012
 -0.12190000000000001         -4.6351182440839598E-012
 -0.12080000000000000         -5.1609025213117307E-012
 -0.11970000000000000         -5.4462823140256129E-012
 -0.11860000000000001         -5.6275002019435696E-012
 -0.11750000000000001         -5.8946675665639716E-012
 -0.11640000000000000         -6.4937534516308127E-012
 -0.11530000000000000         -7.7277082302652516E-012
 -0.11420000000000001         -9.9141857917707991E-012
 -0.11310000000000001         -1.3273700714966646E-011
 -0.11200000000000000         -1.7777244953887448E-011
 -0.11090000000000001         -2.3042448157873136E-011
 -0.10980000000000001         -2.8379645855558735E-011
 -0.10870000000000000         -3.3023445089597300E-011
 -0.10760000000000000         -3.6468883468643363E-011
 -0.10650000000000001         -3.8742328789531778E-011
 -0.10540000000000001         -4.0449220362060155E-011
 -0.10430000000000000         -4.2559962498689824E-011
 -0.10320000000000000         -4.6044990736904727E-011
 -0.10210000000000001         -5.1546884816123137E-011
 -0.10100000000000001         -5.9231973492668728E-011
  -9.9900000000000003E-002    -6.8841689293553311E-011
  -9.8799999999999999E-002    -7.9862463864267025E-011
  -9.7700000000000009E-002    -9.1717348993381659E-011
  -9.6600000000000005E-002    -1.0393393090613136E-010
  -9.5500000000000002E-002    -1.1628933233032255E-010
  -9.4400000000000012E-002    -1.2892437117884116E-010
  -9.3300000000000008E-002    -1.4237880319179042E-010
  -9.2200000000000004E-002    -1.5749285209310066E-010
  -9.1100000000000000E-002    -1.7518010653194810E-010
  -9.0000000000000011E-002    -1.9616303026381980E-010
  -8.8900000000000007E-002    -2.2079676975650547E-010
  -8.7800000000000003E-002    -2.4905449924617260E-010
  -8.6699999999999999E-002    -2.8065078039319003E-010
  -8.5600000000000009E-002    -3.1521715793126031E-010
  -8.4500000000000006E-002    -3.5245523166693979E-010
  -8.3400000000000002E-002    -3.9224254400061237E-010
  -8.2299999999999998E-002    -4.3469067234625274E-010
  -8.1200000000000008E-002    -4.8014153763986986E-010
  -8.0100000000000005E-002    -5.2907717096318048E-010
  -7.9000000000000001E-002    -5.8195959162788241E-010
  -7.7899999999999997E-002    -6.3909005865170736E-010
  -7.6800000000000007E-002    -7.0060390822135756E-010
  -7.5700000000000003E-002    -7.6663914105879392E-010
  -7.4600000000000000E-002    -8.3758272539924943E-010
  -7.3500000000000010E-002    -9.1421964443228521E-010
  -7.2399999999999992E-002    -9.9767305528076329E-010
  -7.1300000000000002E-002    -1.0891835211523998E-009
  -7.0200000000000012E-002    -1.1898948493183151E-009
  -6.9099999999999995E-002    -1.3007909194229317E-009
  -6.8000000000000005E-002    -1.4227914402198489E-009
  -6.6900000000000015E-002    -1.5568945022082054E-009
  -6.5799999999999997E-002    -1.7042566247127529E-009
  -6.4700000000000008E-002    -1.8661896472593881E-009
  -6.3599999999999990E-002    -2.0441282000405322E-009
  -6.2500000000000000E-002    -2.2395938437114331E-009
  -6.1400000000000010E-002    -2.4541175758230503E-009
  -6.0299999999999992E-002    -2.6890842885763000E-009
  -5.9200000000000003E-002    -2.9455666794575758E-009
  -5.8100000000000013E-002    -3.2243074876703515E-009
  -5.6999999999999995E-002    -3.5259608566207362E-009
  -5.5900000000000005E-002    -3.8515088895963138E-009
  -5.4800000000000015E-002    -4.2025809499080242E-009
  -5.3699999999999998E-002    -4.5814396720800522E-009
  -5.2600000000000008E-002    -4.9906283550172115E-009
  -5.1499999999999990E-002    -5.4325570708613561E-009
  -5.0400000000000000E-002    -5.9093241411290290E-009
  -4.9300000000000010E-002    -6.4228684593104341E-009
  -4.8199999999999993E-002    -6.9752608133911045E-009
  -4.7100000000000003E-002    -7.5688859624279328E-009
  -4.6000000000000013E-002    -8.2064479656196983E-009
  -4.4899999999999995E-002    -8.8909324347242182E-009
  -4.3800000000000006E-002    -9.6257153359147792E-009
  -4.2699999999999988E-002    -1.0414751727694303E-008
  -4.1599999999999998E-002    -1.1262612176210565E-008
  -4.0500000000000008E-002    -1.2174165675560365E-008
  -3.9399999999999991E-002    -1.3154023648098782E-008
  -3.8300000000000001E-002    -1.4206126053295606E-008
  -3.7200000000000011E-002    -1.5333794678440523E-008
  -3.6099999999999993E-002    -1.6540246505769673E-008
  -3.5000000000000003E-002    -1.7829201226504774E-008
  -3.3900000000000013E-002    -1.9205183221515766E-008
  -3.2799999999999996E-002    -2.0673409650839980E-008
  -3.1700000000000006E-002    -2.2239492025733075E-008
  -3.0599999999999988E-002    -2.3909214164064139E-008
  -2.9499999999999998E-002    -2.5688466465112622E-008
  -2.8400000000000009E-002    -2.7583176631651603E-008
  -2.7299999999999991E-002    -2.9599105388911257E-008
  -2.6200000000000001E-002    -3.1741638650828655E-008
  -2.5100000000000011E-002    -3.4015837258039220E-008
  -2.3999999999999994E-002    -3.6426829552738345E-008
  -2.2900000000000004E-002    -3.8980392247367715E-008
  -2.1800000000000014E-002    -4.1683296814199150E-008
  -2.0699999999999996E-002    -4.4543174482214712E-008
  -1.9600000000000006E-002    -4.7568082806037915E-008
  -1.8499999999999989E-002    -5.0766075787578593E-008
  -1.7399999999999999E-002    -5.4145051109344740E-008
  -1.6300000000000009E-002    -5.7712803425147616E-008
  -1.5199999999999991E-002    -6.1477017254674495E-008
  -1.4100000000000001E-002    -6.5445128427655079E-008
  -1.3000000000000012E-002    -6.9624128684609261E-008
  -1.1899999999999994E-002    -7.4020682916398483E-008
  -1.0800000000000004E-002    -7.8641456013884176E-008
  -9.6999999999999864E-003    -8.3493496561005040E-008
  -8.5999999999999965E-003    -8.8584265256486608E-008
  -7.5000000000000067E-003    -9.3921357802174105E-008
  -6.3999999999999890E-003    -9.9512156737092115E-008
  -5.2999999999999992E-003    -1.0536373906688881E-007
  -4.2000000000000093E-003    -1.1148301126695577E-007
  -3.0999999999999917E-003    -1.1787680875841098E-007
  -2.0000000000000018E-003    -1.2455163300728669E-007
  -9.0000000000001190E-004    -1.3151331756944345E-007
   2.0000000000000573E-004    -1.3876677940061276E-007
   1.2999999999999956E-003    -1.4631640965490157E-007
   2.4000000000000132E-003    -1.5416654264299808E-007
   3.5000000000000031E-003    -1.6232182531439408E-007
   4.5999999999999930E-003    -1.7078697567285507E-007
   5.7000000000000106E-003    -1.7956615749881264E-007
   6.8000000000000005E-003    -1.8866253981286819E-007
   7.8999999999999904E-003    -1.9807829687579323E-007
   9.0000000000000080E-003    -2.0781489240562334E-007
   1.0099999999999998E-002    -2.1787325010791508E-007
   1.1199999999999988E-002    -2.2825329892839488E-007
   1.2300000000000005E-002    -2.3895344725133460E-007
   1.3399999999999995E-002    -2.4997038394758557E-007
   1.4500000000000013E-002    -2.6129950470022005E-007
   1.5600000000000003E-002    -2.7293552307128414E-007
   1.6699999999999993E-002    -2.8487286840572927E-007
   1.7800000000000010E-002    -2.9710517424064318E-007
   1.8900000000000000E-002    -3.0962465302764195E-007
   1.9999999999999990E-002    -3.2242155612039084E-007
   2.1100000000000008E-002    -3.3548451483511779E-007
   2.2199999999999998E-002    -3.4880099519796389E-007
   2.3300000000000015E-002    -3.6235738321011203E-007
   2.4400000000000005E-002    -3.7613875747411126E-007
   2.5499999999999995E-002    -3.9012817865114104E-007
   2.6600000000000013E-002    -4.0430646208733595E-007
   2.7700000000000002E-002    -4.1865260413942679E-007
   2.8799999999999992E-002    -4.3314437903063890E-007
   2.9900000000000010E-002    -4.4775848095923953E-007
   3.1000000000000000E-002    -4.6247029672486194E-007
   3.2099999999999990E-002    -4.7725313834235104E-007
   3.3200000000000007E-002    -4.9207807251150625E-007
   3.4299999999999997E-002    -5.0691409114733963E-007
   3.5400000000000015E-002    -5.2172816822349253E-007
   3.6500000000000005E-002    -5.3648557241104141E-007
   3.7599999999999995E-002    -5.5114918495746975E-007
   3.8700000000000012E-002    -5.6567944284325074E-007
   3.9800000000000002E-002    -5.8003462299894034E-007
   4.0899999999999992E-002    -5.9417129705252920E-007
   4.2000000000000010E-002    -6.0804495660704889E-007
   4.3099999999999999E-002    -6.2160995639715450E-007
   4.4200000000000017E-002    -6.3481905954177248E-007
   4.5300000000000007E-002    -6.4762321017042617E-007
   4.6399999999999997E-002    -6.5997141973639733E-007
   4.7500000000000014E-002    -6.7181139229433400E-007
   4.8600000000000004E-002    -6.8308929712657499E-007
   4.9699999999999994E-002    -6.9374982558656876E-007
   5.0800000000000012E-002    -7.0373573635152245E-007
   5.1900000000000002E-002    -7.1298819648291514E-007
   5.2999999999999992E-002    -7.2144734986068628E-007
   5.4099999999999981E-002    -7.2905316983451908E-007
   5.5200000000000027E-002    -7.3574568659751517E-007
   5.6300000000000017E-002    -7.4146413453491267E-007
   5.7400000000000007E-002    -7.4614644063331515E-007
   5.8499999999999996E-002    -7.4972950869778743E-007
   5.9599999999999986E-002    -7.5214967409920530E-007
   6.0700000000000032E-002    -7.5334355642553895E-007
   6.1800000000000022E-002    -7.5324823001210938E-007
   6.2900000000000011E-002    -7.5180065550740015E-007
   6.4000000000000001E-002    -7.4893739565596239E-007
   6.5099999999999991E-002    -7.4459518373260423E-007
   6.6199999999999981E-002    -7.3871183303709184E-007
   6.7300000000000026E-002    -7.3122697585859495E-007
   6.8400000000000016E-002    -7.2208229084936246E-007
   6.9500000000000006E-002    -7.1122082090369595E-007
   7.0599999999999996E-002    -6.9858617735008529E-007
   7.1699999999999986E-002    -6.8412327891565457E-007
   7.2800000000000031E-002    -6.6777897700376883E-007
   7.3900000000000021E-002    -6.4950324940583034E-007
   7.5000000000000011E-002    -6.2924885924076619E-007
   7.6100000000000001E-002    -6.0697090020767604E-007
   7.7199999999999991E-002    -5.8262617130822587E-007
   7.8299999999999981E-002    -5.5617374528083570E-007
   7.9400000000000026E-002    -5.2757616231247645E-007
   8.0500000000000016E-002    -4.9680045322020866E-007
   8.1600000000000006E-002    -4.6381765628212280E-007
   8.2699999999999996E-002    -4.2860222038144103E-007
   8.3799999999999986E-002    -3.9113143657232841E-007
   8.4900000000000031E-002    -3.5138580756211569E-007
   8.6000000000000021E-002    -3.0934998562771044E-007
   8.7100000000000011E-002    -2.6501368211029891E-007
   8.8200000000000001E-002    -2.1837148267423449E-007
   8.9299999999999990E-002    -1.6942229308370416E-007
   9.0399999999999980E-002    -1.1816904788020666E-007
   9.1500000000000026E-002    -6.4619221973322157E-008
   9.2600000000000016E-002    -8.7855029917760335E-009
   9.3700000000000006E-002     4.9313889860508363E-008
   9.4799999999999995E-002     1.0965567298625862E-007
   9.5899999999999985E-002     1.7221223913565516E-007
   9.7000000000000031E-002     2.3695181994298224E-007
   9.8100000000000021E-002     3.0383804983102356E-007
   9.9200000000000010E-002     3.7282916309777113E-007
  0.10030000000000000          4.4387792286215170E-007
  0.10139999999999999          5.1693211844394153E-007
  0.10249999999999998          5.9193507695453654E-007
  0.10360000000000003          6.6882591909233660E-007
  0.10470000000000002          7.4753933176907086E-007
  0.10580000000000001          8.2800517020586486E-007
  0.10690000000000000          9.1014902636743002E-007
  0.10799999999999998          9.9389296792650786E-007
  0.10910000000000003          1.0791555951072902E-006
  0.11020000000000002          1.1658519269985797E-006
  0.11130000000000001          1.2538924920590895E-006
  0.11240000000000000          1.3431831575871864E-006
  0.11349999999999999          1.4336258118419163E-006
  0.11460000000000004          1.5251198419718957E-006
  0.11570000000000003          1.6175630435100128E-006
  0.11680000000000001          1.7108507108787263E-006
  0.11790000000000000          1.8048759784505772E-006
  0.11899999999999999          1.8995292521140028E-006
  0.12009999999999998          1.9946992324548727E-006
  0.12120000000000003          2.0902741653117076E-006
  0.12230000000000002          2.1861415007151617E-006
  0.12340000000000001          2.2821870970801641E-006
  0.12450000000000000          2.3782954485795884E-006
  0.12559999999999999          2.4743499125179327E-006
  0.12670000000000003          2.5702331640786682E-006
  0.12780000000000002          2.6658294700609948E-006
  0.12890000000000001          2.7610253710008650E-006
  0.13000000000000000          2.8557083169289361E-006
  0.13109999999999999          2.9497666673705642E-006
  0.13219999999999998          3.0430892365984585E-006
  0.13330000000000003          3.1355664305010544E-006
  0.13440000000000002          3.2270907013298673E-006
  0.13550000000000001          3.3175581393152209E-006
  0.13660000000000000          3.4068659715558131E-006
  0.13769999999999999          3.4949134715134240E-006
  0.13880000000000003          3.5816017316392360E-006
  0.13990000000000002          3.6668357097369119E-006
  0.14100000000000001          3.7505244563362760E-006
  0.14210000000000000          3.8325824789353621E-006
  0.14319999999999999          3.9129276956373318E-006
  0.14429999999999998          3.9914821172715131E-006
  0.14540000000000003          4.0681702557776555E-006
  0.14650000000000002          4.1429207158216707E-006
  0.14760000000000001          4.2156675590376810E-006
  0.14870000000000000          4.2863498492806650E-006
  0.14979999999999999          4.3549102883844137E-006
  0.15090000000000003          4.4212961256562233E-006
  0.15200000000000002          4.4854577936348471E-006
  0.15310000000000001          4.5473520913219511E-006
  0.15420000000000000          4.6069421841821142E-006
  0.15529999999999999          4.6641957851534210E-006
  0.15639999999999998          4.7190860641421725E-006
  0.15750000000000003          4.7715889195387683E-006
  0.15860000000000002          4.8216861614491765E-006
  0.15970000000000001          4.8693632379581652E-006
  0.16080000000000000          4.9146124183607719E-006
  0.16189999999999999          4.9574287004361369E-006
  0.16300000000000003          4.9978125389316094E-006
  0.16410000000000002          5.0357671170786463E-006
  0.16520000000000001          5.0713015298242655E-006
  0.16630000000000000          5.1044285100942918E-006
  0.16739999999999999          5.1351662477827606E-006
  0.16850000000000004          5.1635374802572153E-006
  0.16960000000000003          5.1895667638746065E-006
  0.17070000000000002          5.2132827477180365E-006
  0.17180000000000001          5.2347181735967726E-006
  0.17290000000000000          5.2539089665515314E-006
  0.17399999999999999          5.2708951443491935E-006
  0.17510000000000003          5.2857203627354432E-006
  0.17620000000000002          5.2984287322033171E-006
  0.17730000000000001          5.3090680012246568E-006
  0.17840000000000000          5.3176872825133580E-006
  0.17949999999999999          5.3243402362568270E-006
  0.18060000000000004          5.3290814321371701E-006
  0.18170000000000003          5.3319681683205974E-006
  0.18280000000000002          5.3330572882259705E-006
  0.18390000000000001          5.3324074542615537E-006
  0.18500000000000000          5.3300786930776641E-006
  0.18609999999999999          5.3261342145560741E-006
  0.18720000000000003          5.3206372285785585E-006
  0.18830000000000002          5.3136523092689424E-006
  0.18940000000000001          5.3052426665089991E-006
  0.19050000000000000          5.2954719649278533E-006
  0.19159999999999999          5.2844052333966803E-006
  0.19270000000000004          5.2721070460393051E-006
  0.19380000000000003          5.2586428864742595E-006
  0.19490000000000002          5.2440773288253661E-006
  0.19600000000000001          5.2284735829743988E-006
  0.19710000000000000          5.2118944040557801E-006
  0.19819999999999999          5.1944030019512832E-006
  0.19930000000000003          5.1760616770479794E-006
  0.20040000000000002          5.1569336392276421E-006
  0.20150000000000001          5.1370793698879382E-006
  0.20260000000000000          5.1165579861844856E-006
  0.20369999999999999          5.0954272410308434E-006
  0.20480000000000004          5.0737435230985250E-006
  0.20590000000000003          5.0515627663116868E-006
  0.20700000000000002          5.0289372666156817E-006
  0.20810000000000001          5.0059184104611606E-006
  0.20920000000000000          4.9825557653093668E-006
  0.21029999999999999          4.9588988986215520E-006
  0.21140000000000003          4.9349951041222050E-006
  0.21250000000000002          4.9108921302831698E-006
  0.21360000000000001          4.8866349970921840E-006
  0.21470000000000000          4.8622673602949328E-006
  0.21579999999999999          4.8378306019003461E-006
  0.21690000000000004          4.8133638301806025E-006
  0.21800000000000003          4.7889052439131740E-006
  0.21910000000000002          4.7644903133914306E-006
  0.22020000000000001          4.7401526899193371E-006
  0.22130000000000000          4.7159232963167563E-006
  0.22239999999999999          4.6918330554035450E-006
  0.22350000000000003          4.6679119805048652E-006
  0.22460000000000002          4.6441891754511710E-006
  0.22570000000000001          4.6206923798308674E-006
  0.22680000000000000          4.5974466047482523E-006
  0.22789999999999999          4.5744750423182234E-006
  0.22900000000000004          4.5517990656662690E-006
  0.23010000000000003          4.5294386836758315E-006
  0.23120000000000002          4.5074134504829965E-006
  0.23230000000000001          4.4857411012344494E-006
  0.23340000000000000          4.4644384615821722E-006
  0.23450000000000004          4.4435191739466930E-006
  0.23560000000000003          4.4229964260011869E-006
  0.23670000000000002          4.4028843149135313E-006
  0.23780000000000001          4.3831964831042535E-006
  0.23890000000000000          4.3639452087518260E-006
  0.23999999999999999          4.3451404962979680E-006
  0.24110000000000004          4.3267918954370501E-006
  0.24220000000000003          4.3089066821266855E-006
  0.24330000000000002          4.2914925870718401E-006
  0.24440000000000001          4.2745573409774764E-006
  0.24550000000000000          4.2581077650538603E-006
  0.24660000000000004          4.2421488615218516E-006
  0.24770000000000003          4.2266856326023074E-006
  0.24880000000000002          4.2117212615266866E-006
  0.24990000000000001          4.1972602957684970E-006
  0.25100000000000000          4.1833063733065450E-006
  0.25209999999999999          4.1698626773722893E-006
  0.25320000000000004          4.1569323911971836E-006
  0.25430000000000003          4.1445168790232805E-006
  0.25540000000000002          4.1326179598399861E-006
  0.25650000000000001          4.1212374526367015E-006
  0.25760000000000000          4.1103758121607783E-006
  0.25870000000000004          4.1000353121489710E-006
  0.25980000000000003          4.0902164073486304E-006
  0.26090000000000002          4.0809204620018093E-006
  0.26200000000000001          4.0721470213611559E-006
  0.26310000000000000          4.0638974496687254E-006
  0.26419999999999999          4.0561708374298127E-006
  0.26530000000000004          4.0489662751497184E-006
  0.26640000000000003          4.0422833080810910E-006
  0.26750000000000002          4.0361214814765794E-006
  0.26860000000000001          4.0304807953361837E-006
  0.26970000000000000          4.0253612496599039E-006
  0.27080000000000004          4.0207619349530382E-006
  0.27190000000000003          4.0166819417208856E-006
  0.27300000000000002          4.0131203604687420E-006
  0.27410000000000001          4.0100776459439607E-006
  0.27520000000000000          4.0075519791571373E-006
  0.27629999999999999          4.0055419958662191E-006
  0.27740000000000004          4.0040454223344517E-006
  0.27850000000000003          4.0030590753303790E-006
  0.27960000000000002          4.0025815906119482E-006
  0.28070000000000001          4.0026125134318085E-006
  0.28179999999999999          4.0031509342952581E-006
  0.28290000000000004          4.0041968532022961E-006
  0.28400000000000003          4.0057484511635207E-006
  0.28510000000000002          4.0078039091895275E-006
  0.28620000000000001          4.0103604987962112E-006
  0.28730000000000000          4.0134159462468174E-006
  0.28840000000000005          4.0169679778045924E-006
  0.28950000000000004          4.0210138649854293E-006
  0.29060000000000002          4.0255499698105209E-006
  0.29170000000000001          4.0305726543010619E-006
  0.29280000000000000          4.0360791899729461E-006
  0.29389999999999999          4.0420663935947173E-006
  0.29500000000000004          4.0485329009243236E-006
  0.29610000000000003          4.0554755287303064E-006
  0.29720000000000002          4.0628910937812120E-006
  0.29830000000000001          4.0707750486035306E-006
  0.29940000000000000          4.0791228457237526E-006
  0.30050000000000004          4.0879313019104234E-006
  0.30160000000000003          4.0971949601953324E-006
  0.30270000000000002          4.1069088183576182E-006
  0.30380000000000001          4.1170678741764218E-006
  0.30490000000000000          4.1276666706835326E-006
  0.30599999999999999          4.1386992961633883E-006
  0.30709999999999998          4.1501612031424816E-006
  0.30819999999999997          4.1620469346526020E-006
  0.30930000000000007          4.1743514884728871E-006
  0.31040000000000006          4.1870689528877779E-006
  0.31150000000000005          4.2001938709290630E-006
  0.31260000000000004          4.2137189666391283E-006
  0.31370000000000003          4.2276374188077103E-006
  0.31480000000000002          4.2419414967298440E-006
  0.31590000000000001          4.2566234697005635E-006
  0.31700000000000000          4.2716756070149063E-006
  0.31809999999999999          4.2870897232205531E-006
  0.31919999999999998          4.3028585423598930E-006
  0.32029999999999997          4.3189738789806066E-006
  0.32140000000000007          4.3354266381356797E-006
  0.32250000000000006          4.3522086343727930E-006
  0.32360000000000005          4.3693107727449311E-006
  0.32470000000000004          4.3867257772944791E-006
  0.32580000000000003          4.4044454625691219E-006
  0.32690000000000002          4.4224616431165410E-006
  0.32800000000000001          4.4407643144950203E-006
  0.32910000000000000          4.4593434722628368E-006
  0.33019999999999999          4.4781891119782728E-006
  0.33129999999999998          4.4972921386943123E-006
  0.33239999999999997          4.5166439122112857E-006
  0.33350000000000007          4.5362339733401246E-006
  0.33460000000000006          4.5560518628917558E-006
  0.33570000000000005          4.5760862121824090E-006
  0.33680000000000004          4.5963261072756646E-006
  0.33790000000000003          4.6167610889824488E-006
  0.33900000000000002          4.6373811528610447E-006
  0.34010000000000001          4.6581767492170835E-006
  0.34120000000000000          4.6791369641141416E-006
  0.34229999999999999          4.7002508836158001E-006
  0.34339999999999998          4.7215075937856370E-006
  0.34449999999999997          4.7428961806872318E-006
  0.34560000000000007          4.7644061851315124E-006
  0.34670000000000006          4.7860253289400050E-006
  0.34780000000000005          4.8077417886815880E-006
  0.34890000000000004          4.8295437409251378E-006
