 -0.20000000000000001          0.0000000000000000
 -0.19890000000000002          0.0000000000000000
 -0.19780000000000000          0.0000000000000000
 -0.19670000000000001          0.0000000000000000
 -0.19560000000000002          4.7818078712577826E-018
 -0.19450000000000001          2.7899349532257980E-017
 -0.19340000000000002          7.7775438719616713E-017
 -0.19230000000000000          1.2614037149823702E-016
 -0.19120000000000001          1.0128907995284099E-016
 -0.19010000000000002         -4.2928691866754459E-017
 -0.18900000000000000         -2.1085556438959802E-016
 -0.18790000000000001         -1.4881352443721352E-016
 -0.18680000000000002          3.2706239670357963E-016
 -0.18570000000000000          9.5683689870130909E-016
 -0.18460000000000001          9.4562747643558249E-016
 -0.18350000000000000         -4.1574137291584573E-016
 -0.18240000000000001         -2.6221493069032969E-015
 -0.18130000000000002         -3.4358661190014806E-015
 -0.18020000000000000         -2.5464351493306031E-016
 -0.17910000000000001          6.7898042467292100E-015
 -0.17800000000000002          1.2535958023322715E-014
 -0.17690000000000000          8.8081304470727546E-015
 -0.17580000000000001         -8.3907287042918333E-015
 -0.17470000000000002         -3.1143388920257947E-014
 -0.17360000000000000         -3.9665712663235209E-014
 -0.17250000000000001         -1.5026157808252158E-014
 -0.17140000000000000          4.1316437575898701E-014
 -0.17030000000000001          9.7240832465199378E-014
 -0.16920000000000002          1.0371184569783407E-013
 -0.16810000000000000          3.0582338012919222E-014
 -0.16700000000000001         -9.9252596701300544E-014
 -0.16589999999999999         -2.0849232171445131E-013
 -0.16480000000000000         -2.0922361607979278E-013
 -0.16370000000000001         -6.8670506022001920E-014
 -0.16260000000000002          1.5103254747111244E-013
 -0.16150000000000000          3.1662354487392574E-013
 -0.16040000000000001          3.0525408589721081E-013
 -0.15930000000000000          9.2568524189245299E-014
 -0.15820000000000001         -2.1487195703273620E-013
 -0.15710000000000002         -4.3032775693535585E-013
 -0.15600000000000000         -3.9266281740869824E-013
 -0.15490000000000001         -6.3068352081606383E-014
 -0.15379999999999999          4.4419760296225685E-013
 -0.15270000000000000          9.1329385460553469E-013
 -0.15160000000000001          1.1320183072177636E-012
 -0.15050000000000002          9.9655960567046620E-013
 -0.14940000000000001          5.5938055836673994E-013
 -0.14830000000000002         -1.8707706892395932E-014
 -0.14720000000000000         -6.1345622592162696E-013
 -0.14610000000000001         -1.3230898581600981E-012
 -0.14500000000000002         -2.5850957659223628E-012
 -0.14390000000000000         -5.1090577081469579E-012
 -0.14280000000000001         -9.5908168559755147E-012
 -0.14169999999999999         -1.6314028253305857E-011
 -0.14060000000000000         -2.4855510011301263E-011
 -0.13950000000000001         -3.4093526612988256E-011
 -0.13840000000000002         -4.2558952889626411E-011
 -0.13730000000000001         -4.8968482047051509E-011
 -0.13619999999999999         -5.2681560502865210E-011
 -0.13510000000000000         -5.3896564294886318E-011
 -0.13400000000000001         -5.3574852887372515E-011
 -0.13290000000000002         -5.3206557215634831E-011
 -0.13180000000000000         -5.4522886205887744E-011
 -0.13070000000000001         -5.9170925104101713E-011
 -0.12959999999999999         -6.8330660574211777E-011
 -0.12850000000000000         -8.2335978313086144E-011
 -0.12740000000000001         -1.0047976339855325E-010
 -0.12630000000000002         -1.2118415992912190E-010
 -0.12520000000000001         -1.4254128433144331E-010
 -0.12410000000000000         -1.6299402105790506E-010
 -0.12300000000000001         -1.8183117511672009E-010
 -0.12190000000000001         -1.9930491979014420E-010
 -0.12080000000000000         -2.1642608538652297E-010
 -0.11970000000000000         -2.3463964105019386E-010
 -0.11860000000000001         -2.5552884808099918E-010
 -0.11750000000000001         -2.8054808476341009E-010
 -0.11640000000000000         -3.1073765782707596E-010
 -0.11530000000000000         -3.4648944824411387E-010
 -0.11420000000000001         -3.8755787468147673E-010
 -0.11310000000000001         -4.3344086653185343E-010
 -0.11200000000000000         -4.8397563734425830E-010
 -0.11090000000000001         -5.3974646974097595E-010
 -0.10980000000000001         -6.0196170270643279E-010
 -0.10870000000000000         -6.7184280361232140E-010
 -0.10760000000000000         -7.4997291710232616E-010
 -0.10650000000000001         -8.3610596224303890E-010
 -0.10540000000000001         -9.2957525010817221E-010
 -0.10430000000000000         -1.0299711084016394E-009
 -0.10320000000000000         -1.1375976827210366E-009
 -0.10210000000000001         -1.2534866478119966E-009
 -0.10100000000000001         -1.3791435771182137E-009
  -9.9900000000000003E-002    -1.5163486022373718E-009
  -9.8799999999999999E-002    -1.6671108937771351E-009
  -9.7700000000000009E-002    -1.8335903906319118E-009
  -9.6600000000000005E-002    -2.0177952642086439E-009
  -9.5500000000000002E-002    -2.2211774641789361E-009
  -9.4400000000000012E-002    -2.4445250268456675E-009
  -9.3300000000000008E-002    -2.6884130477355939E-009
  -9.2200000000000004E-002    -2.9539819479396101E-009
  -9.1100000000000000E-002    -3.2434344099385726E-009
  -9.0000000000000011E-002    -3.5597897962702518E-009
  -8.8900000000000007E-002    -3.9060679135616283E-009
  -8.7800000000000003E-002    -4.2845935688262671E-009
  -8.6699999999999999E-002    -4.6970285438874271E-009
  -8.5600000000000009E-002    -5.1450661509022666E-009
  -8.4500000000000006E-002    -5.6311337814918261E-009
  -8.3400000000000002E-002    -6.1584644051038140E-009
  -8.2299999999999998E-002    -6.7305503392844912E-009
  -8.1200000000000008E-002    -7.3506072340023820E-009
  -8.0100000000000005E-002    -8.0216668862931328E-009
  -7.9000000000000001E-002    -8.7472589171966320E-009
  -7.7899999999999997E-002    -9.5320222825989731E-009
  -7.6800000000000007E-002    -1.0381626225353102E-008
  -7.5700000000000003E-002    -1.1302041080796243E-008
  -7.4600000000000000E-002    -1.2298844609404114E-008
  -7.3500000000000010E-002    -1.3377213115006725E-008
  -7.2399999999999992E-002    -1.4542566262321088E-008
  -7.1300000000000002E-002    -1.5801180808239224E-008
  -7.0200000000000012E-002    -1.7160127541160364E-008
  -6.9099999999999995E-002    -1.8626570508217810E-008
  -6.8000000000000005E-002    -2.0207133744065686E-008
  -6.6900000000000015E-002    -2.1907970548795674E-008
  -6.5799999999999997E-002    -2.3735532650448476E-008
  -6.4700000000000008E-002    -2.5697385552803098E-008
  -6.3599999999999990E-002    -2.7802430579981774E-008
  -6.2500000000000000E-002    -3.0060526512443175E-008
  -6.1400000000000010E-002    -3.2482038392345203E-008
  -6.0299999999999992E-002    -3.5077796667337680E-008
  -5.9200000000000003E-002    -3.7859404500295568E-008
  -5.8100000000000013E-002    -4.0839346127086174E-008
  -5.6999999999999995E-002    -4.4030606716205511E-008
  -5.5900000000000005E-002    -4.7446000905893015E-008
  -5.4800000000000015E-002    -5.1097909903319305E-008
  -5.3699999999999998E-002    -5.4998736231937073E-008
  -5.2600000000000008E-002    -5.9161802568041821E-008
  -5.1499999999999990E-002    -6.3601937938528863E-008
  -5.0400000000000000E-002    -6.8335367586769280E-008
  -4.9300000000000010E-002    -7.3379119669425563E-008
  -4.8199999999999993E-002    -7.8750588272669120E-008
  -4.7100000000000003E-002    -8.4467558281176025E-008
  -4.6000000000000013E-002    -9.0548482489793969E-008
  -4.4899999999999995E-002    -9.7012510025251686E-008
  -4.3800000000000006E-002    -1.0387910265308165E-007
  -4.2699999999999988E-002    -1.1116767240082481E-007
  -4.1599999999999998E-002    -1.1889773077200516E-007
  -4.0500000000000008E-002    -1.2708963481600222E-007
  -3.9399999999999991E-002    -1.3576530477621418E-007
  -3.8300000000000001E-002    -1.4494840172574186E-007
  -3.7200000000000011E-002    -1.5466375202777272E-007
  -3.6099999999999993E-002    -1.6493670784711867E-007
  -3.5000000000000003E-002    -1.7579293398739537E-007
  -3.3900000000000013E-002    -1.8725877737324481E-007
  -3.2799999999999996E-002    -1.9936160811084847E-007
  -3.1700000000000006E-002    -2.1212964895767072E-007
  -3.0599999999999988E-002    -2.2559120793630427E-007
  -2.9499999999999998E-002    -2.3977412411113619E-007
  -2.8400000000000009E-002    -2.5470589548604039E-007
  -2.7299999999999991E-002    -2.7041437533625867E-007
  -2.6200000000000001E-002    -2.8692866749224777E-007
  -2.5100000000000011E-002    -3.0427915476138878E-007
  -2.3999999999999994E-002    -3.2249710102405515E-007
  -2.2900000000000004E-002    -3.4161416806455236E-007
  -2.1800000000000014E-002    -3.6166233030598960E-007
  -2.0699999999999996E-002    -3.8267407376224583E-007
  -1.9600000000000006E-002    -4.0468262341164518E-007
  -1.8499999999999989E-002    -4.2772140318447782E-007
  -1.7399999999999999E-002    -4.5182343910710188E-007
  -1.6300000000000009E-002    -4.7702098981972085E-007
  -1.5199999999999991E-002    -5.0334585921518737E-007
  -1.4100000000000001E-002    -5.3083033435541438E-007
  -1.3000000000000012E-002    -5.5950727073650341E-007
  -1.1899999999999994E-002    -5.8941009228874464E-007
  -1.0800000000000004E-002    -6.2057210925559048E-007
  -9.6999999999999864E-003    -6.5302606344630476E-007
  -8.5999999999999965E-003    -6.8680441245305701E-007
  -7.5000000000000067E-003    -7.2193910227724700E-007
  -6.3999999999999890E-003    -7.5846179470318020E-007
  -5.2999999999999992E-003    -7.9640301464678487E-007
  -4.2000000000000093E-003    -8.3579192278193659E-007
  -3.0999999999999917E-003    -8.7665654291413375E-007
  -2.0000000000000018E-003    -9.1902427357126726E-007
  -9.0000000000001190E-004    -9.6292217222071486E-007
   2.0000000000000573E-004    -1.0083771257995977E-006
   1.2999999999999956E-003    -1.0554148275332409E-006
   2.4000000000000132E-003    -1.1040591516575660E-006
   3.5000000000000031E-003    -1.1543322671059286E-006
   4.5999999999999930E-003    -1.2062549785696319E-006
   5.7000000000000106E-003    -1.2598476359926281E-006
   6.8000000000000005E-003    -1.3151291113899788E-006
   7.8999999999999904E-003    -1.3721165714741801E-006
   9.0000000000000080E-003    -1.4308245681604603E-006
   1.0099999999999998E-002    -1.4912654933141312E-006
   1.1199999999999988E-002    -1.5534501471847761E-006
   1.2300000000000005E-002    -1.6173883068404393E-006
   1.3399999999999995E-002    -1.6830877029860858E-006
   1.4500000000000013E-002    -1.7505534515294130E-006
   1.5600000000000003E-002    -1.8197870303993113E-006
   1.6699999999999993E-002    -1.8907871890405659E-006
   1.7800000000000010E-002    -1.9635501757875318E-006
   1.8900000000000000E-002    -2.0380712157930247E-006
   1.9999999999999990E-002    -2.1143434878467815E-006
   2.1100000000000008E-002    -2.1923578970017843E-006
   2.2199999999999998E-002    -2.2721028472005855E-006
   2.3300000000000015E-002    -2.3535621949122287E-006
   2.4400000000000005E-002    -2.4367177502426784E-006
   2.5499999999999995E-002    -2.5215495043084957E-006
   2.6600000000000013E-002    -2.6080344923684606E-006
   2.7700000000000002E-002    -2.6961470211972483E-006
   2.8799999999999992E-002    -2.7858575322170509E-006
   2.9900000000000010E-002    -2.8771337383659557E-006
   3.1000000000000000E-002    -2.9699403967242688E-006
   3.2099999999999990E-002    -3.0642399906355422E-006
   3.3200000000000007E-002    -3.1599922749592224E-006
   3.4299999999999997E-002    -3.2571554129390279E-006
   3.5400000000000015E-002    -3.3556837024661945E-006
   3.6500000000000005E-002    -3.4555289403215284E-006
   3.7599999999999995E-002    -3.5566395126807038E-006
   3.8700000000000012E-002    -3.6589617593563162E-006
   3.9800000000000002E-002    -3.7624386095558293E-006
   4.0899999999999992E-002    -3.8670104913762771E-006
   4.2000000000000010E-002    -3.9726155591779388E-006
   4.3099999999999999E-002    -4.0791896935843397E-006
   4.4200000000000017E-002    -4.1866669562296011E-006
   4.5300000000000007E-002    -4.2949786802637391E-006
   4.6399999999999997E-002    -4.4040543798473664E-006
   4.7500000000000014E-002    -4.5138212954043411E-006
   4.8600000000000004E-002    -4.6242066673585214E-006
   4.9699999999999994E-002    -4.7351359171443619E-006
   5.0800000000000012E-002    -4.8465321924595628E-006
   5.1900000000000002E-002    -4.9583186410018243E-006
   5.2999999999999992E-002    -5.0704143177426886E-006
   5.4099999999999981E-002    -5.1827364586642943E-006
   5.5200000000000027E-002    -5.2952022997487802E-006
   5.6300000000000017E-002    -5.4077281674835831E-006
   5.7400000000000007E-002    -5.5202299336087890E-006
   5.8499999999999996E-002    -5.6326234698644839E-006
   5.9599999999999986E-002    -5.7448228290013503E-006
   6.0700000000000032E-002    -5.8567425185174216E-006
   6.1800000000000022E-002    -5.9682965911633801E-006
   6.2900000000000011E-002    -6.0794000091846101E-006
   6.4000000000000001E-002    -6.1899686443211976E-006
   6.5099999999999991E-002    -6.2999183683132287E-006
   6.6199999999999981E-002    -6.4091650529007893E-006
   6.7300000000000026E-002    -6.5176241150766145E-006
   6.8400000000000016E-002    -6.6252127908228431E-006
   6.9500000000000006E-002    -6.7318492256163154E-006
   7.0599999999999996E-002    -6.8374533839232754E-006
   7.1699999999999986E-002    -6.9419475039467216E-006
   7.2800000000000031E-002    -7.0452538238896523E-006
   7.3900000000000021E-002    -7.1472964009444695E-006
   7.5000000000000011E-002    -7.2480011112929787E-006
   7.6100000000000001E-002    -7.3472947406116873E-006
   7.7199999999999991E-002    -7.4451090767979622E-006
   7.8299999999999981E-002    -7.5413768172438722E-006
   7.9400000000000026E-002    -7.6360329330782406E-006
   8.0500000000000016E-002    -7.7290142144192941E-006
   8.1600000000000006E-002    -7.8202601798693649E-006
   8.2699999999999996E-002    -7.9097126217675395E-006
   8.3799999999999986E-002    -7.9973178799264133E-006
   8.4900000000000031E-002    -8.0830222941585816E-006
   8.6000000000000021E-002    -8.1667776612448506E-006
   8.7100000000000011E-002    -8.2485357779660262E-006
   8.8200000000000001E-002    -8.3282548075658269E-006
   8.9299999999999990E-002    -8.4058938227826729E-006
   9.0399999999999980E-002    -8.4814191723125987E-006
   9.1500000000000026E-002    -8.5547972048516385E-006
   9.2600000000000016E-002    -8.6259979070746340E-006
   9.3700000000000006E-002    -8.6949949036352336E-006
   9.4799999999999995E-002    -8.7617654571658932E-006
   9.5899999999999985E-002    -8.8262913777725771E-006
   9.7000000000000031E-002    -8.8885553850559518E-006
   9.8100000000000021E-002    -8.9485438365954906E-006
   9.9200000000000010E-002    -9.0062439994653687E-006
  0.10030000000000000         -9.0616485977079719E-006
  0.10139999999999999         -9.1147539933444932E-006
  0.10249999999999998         -9.1655620053643361E-006
  0.10360000000000003         -9.2140753622516058E-006
  0.10470000000000002         -9.2603013399639167E-006
  0.10580000000000001         -9.3042481239535846E-006
  0.10690000000000000         -9.3459293566411361E-006
  0.10799999999999998         -9.3853586804470979E-006
  0.10910000000000003         -9.4225542852655053E-006
  0.11020000000000002         -9.4575361799797975E-006
  0.11130000000000001         -9.4903280114522204E-006
  0.11240000000000000         -9.5209552455344237E-006
  0.11349999999999999         -9.5494451670674607E-006
  0.11460000000000004         -9.5758286988711916E-006
  0.11570000000000003         -9.6001394922495820E-006
  0.11680000000000001         -9.6224130174960010E-006
  0.11790000000000000         -9.6426883828826249E-006
  0.11899999999999999         -9.6610037871869281E-006
  0.12009999999999998         -9.6774001576704904E-006
  0.12120000000000003         -9.6919202405842952E-006
  0.12230000000000002         -9.7046086011687294E-006
  0.12340000000000001         -9.7155098046641797E-006
  0.12450000000000000         -9.7246702353004366E-006
  0.12559999999999999         -9.7321371868019924E-006
  0.12670000000000003         -9.7379597718827426E-006
  0.12780000000000002         -9.7421880127512850E-006
  0.12890000000000001         -9.7448719316162169E-006
  0.13000000000000000         -9.7460633696755394E-006
  0.13109999999999999         -9.7458141681272537E-006
  0.13219999999999998         -9.7441770776640624E-006
  0.13330000000000003         -9.7412039394839667E-006
  0.13440000000000002         -9.7369484137743711E-006
  0.13550000000000001         -9.7314623417332768E-006
  0.13660000000000000         -9.7248002930427901E-006
  0.13769999999999999         -9.7170159278903157E-006
  0.13880000000000003         -9.7081619969685562E-006
  0.13990000000000002         -9.6982912509702146E-006
  0.14100000000000001         -9.6874573500826955E-006
  0.14210000000000000         -9.6757103165145963E-006
  0.14319999999999999         -9.6631010819692165E-006
  0.14429999999999998         -9.6496787591604516E-006
  0.14540000000000003         -9.6354924608021975E-006
  0.14650000000000002         -9.6205903901136480E-006
  0.14760000000000001         -9.6050207503139973E-006
  0.14870000000000000         -9.5888308351277374E-006
  0.14979999999999999         -9.5720679382793605E-006
  0.15090000000000003         -9.5547775345039554E-006
  0.15200000000000002         -9.5370041890419088E-006
  0.15310000000000001         -9.5187906481442042E-006
  0.15420000000000000         -9.5001796580618247E-006
  0.15529999999999999         -9.4812085080775432E-006
  0.15639999999999998         -9.4619153969688341E-006
  0.15750000000000003         -9.4423367045237683E-006
  0.15860000000000002         -9.4225079010357149E-006
  0.15970000000000001         -9.4024662757874466E-006
  0.16080000000000000         -9.3822491180617362E-006
  0.16189999999999999         -9.3618891696678475E-006
  0.16300000000000003         -9.3414182629203424E-006
  0.16410000000000002         -9.3208682301337831E-006
  0.16520000000000001         -9.3002672656439245E-006
  0.16630000000000000         -9.2796426542918198E-006
  0.16739999999999999         -9.2590198619291186E-006
  0.16850000000000004         -9.2384225354180671E-006
  0.16960000000000003         -9.2178706836421043E-006
  0.17070000000000002         -9.1973852249793708E-006
  0.17180000000000001         -9.1769852588186041E-006
  0.17290000000000000         -9.1566935225273483E-006
  0.17399999999999999         -9.1365272965049371E-006
  0.17510000000000003         -9.1165065896348096E-006
  0.17620000000000002         -9.0966495918110013E-006
  0.17730000000000001         -9.0769708549487405E-006
  0.17840000000000000         -9.0574849309632555E-006
  0.17949999999999999         -9.0382045527803712E-006
  0.18060000000000004         -9.0191406343365088E-006
  0.18170000000000003         -9.0003013610839844E-006
  0.18280000000000002         -8.9816949184751138E-006
  0.18390000000000001         -8.9633304014569148E-006
  0.18500000000000000         -8.9452150859870017E-006
  0.18609999999999999         -8.9273571575176902E-006
  0.18720000000000003         -8.9097638920065947E-006
  0.18830000000000002         -8.8924416559166275E-006
  0.18940000000000001         -8.8753959062159993E-006
  0.19050000000000000         -8.8586311903782189E-006
  0.19159999999999999         -8.8421502368873917E-006
  0.19270000000000004         -8.8259530457435176E-006
  0.19380000000000003         -8.8100414359360002E-006
  0.19490000000000002         -8.7944154074648395E-006
  0.19600000000000001         -8.7790749603300355E-006
  0.19710000000000000         -8.7640191850368865E-006
  0.19819999999999999         -8.7492489910800941E-006
  0.19930000000000003         -8.7347625594702549E-006
  0.20040000000000002         -8.7205598902073689E-006
  0.20150000000000001         -8.7066409832914360E-006
  0.20260000000000000         -8.6930040197330527E-006
  0.20369999999999999         -8.6796471805428155E-006
  0.20480000000000004         -8.6665686467313208E-006
  0.20590000000000003         -8.6537656898144633E-006
  0.20700000000000002         -8.6412346718134359E-006
  0.20810000000000001         -8.6289710452547297E-006
  0.20920000000000000         -8.6169711721595377E-006
  0.21029999999999999         -8.6052295955596492E-006
  0.21140000000000003         -8.5937435869709589E-006
  0.21250000000000002         -8.5825085989199579E-006
  0.21360000000000001         -8.5715182649437338E-006
  0.21470000000000000         -8.5607698565581813E-006
  0.21579999999999999         -8.5502597357844934E-006
  0.21690000000000004         -8.5399833551491611E-006
  0.21800000000000003         -8.5299370766733773E-006
  0.21910000000000002         -8.5201172623783350E-006
  0.22020000000000001         -8.5105193647905253E-006
  0.22130000000000000         -8.5011379269417375E-006
  0.22239999999999999         -8.4919674918637611E-006
  0.22350000000000003         -8.4830026025883853E-006
  0.22460000000000002         -8.4742378021473996E-006
  0.22570000000000001         -8.4656676335725933E-006
  0.22680000000000000         -8.4572893683798611E-006
  0.22789999999999999         -8.4491002780850977E-006
  0.22900000000000004         -8.4410958152147941E-006
  0.23010000000000003         -8.4332723417901434E-006
  0.23120000000000002         -8.4256253103376366E-006
  0.23230000000000001         -8.4181510828784667E-006
  0.23340000000000000         -8.4108460214338265E-006
  0.23450000000000004         -8.4037046690355055E-006
  0.23560000000000003         -8.3967233877046965E-006
  0.23670000000000002         -8.3898967204731889E-006
  0.23780000000000001         -8.3832201198674738E-006
  0.23890000000000000         -8.3766890384140424E-006
  0.23999999999999999         -8.3703007476287894E-006
  0.24110000000000004         -8.3640525190276094E-006
  0.24220000000000003         -8.3579425336210988E-006
  0.24330000000000002         -8.3519680629251525E-006
  0.24440000000000001         -8.3461263784556650E-006
  0.24550000000000000         -8.3404147517285310E-006
  0.24660000000000004         -8.3348304542596452E-006
  0.24770000000000003         -8.3293716670596041E-006
  0.24880000000000002         -8.3240347521496005E-006
  0.24990000000000001         -8.3188160715508275E-006
  0.25100000000000000         -8.3137119872844778E-006
  0.25209999999999999         -8.3087215898558497E-006
  0.25320000000000004         -8.3038430602755398E-006
  0.25430000000000003         -8.2990754890488461E-006
  0.25540000000000002         -8.2944161476916634E-006
  0.25650000000000001         -8.2898641267092898E-006
  0.25760000000000000         -8.2854176071123220E-006
  0.25870000000000004         -8.2810756794060580E-006
  0.25980000000000003         -8.2768356151063927E-006
  0.26090000000000002         -8.2726955952239223E-006
  0.26200000000000001         -8.2686547102639452E-006
  0.26310000000000000         -8.2647120507317595E-006
  0.26419999999999999         -8.2608657976379618E-006
  0.26530000000000004         -8.2571168604772538E-006
  0.26640000000000003         -8.2534643297549337E-006
  0.26750000000000002         -8.2499063864815980E-006
  0.26860000000000001         -8.2464430306572467E-006
  0.26970000000000000         -8.2430733527871780E-006
  0.27080000000000004         -8.2397973528713919E-006
  0.27190000000000003         -8.2366159404045902E-006
  0.27300000000000002         -8.2335309343761764E-006
  0.27410000000000001         -8.2305423347861506E-006
  0.27520000000000000         -8.2276519606239162E-006
  0.27629999999999999         -8.2248598118894733E-006
  0.27740000000000004         -8.2221658885828219E-006
  0.27850000000000003         -8.2195701907039620E-006
  0.27960000000000002         -8.2170727182528935E-006
  0.28070000000000001         -8.2146725617349148E-006
  0.28179999999999999         -8.2123688116553240E-006
  0.28290000000000004         -8.2101605585194193E-006
  0.28400000000000003         -8.2080487118219025E-006
  0.28510000000000002         -8.2060369095415808E-006
  0.28620000000000001         -8.2041260611731559E-006
  0.28730000000000000         -8.2023188952007331E-006
  0.28840000000000005         -8.2006172306137159E-006
  0.28950000000000004         -8.1990228864015080E-006
  0.29060000000000002         -8.1975395005429164E-006
  0.29170000000000001         -8.1961688920273446E-006
  0.29280000000000000         -8.1949110608547926E-006
  0.29389999999999999         -8.1937678260146640E-006
  0.29500000000000004         -8.1927382780122571E-006
  0.29610000000000003         -8.1918242358369753E-006
  0.29720000000000002         -8.1910284279729240E-006
  0.29830000000000001         -8.1903517639148049E-006
  0.29940000000000000         -8.1897969721467234E-006
  0.30050000000000004         -8.1893658716580831E-006
  0.30160000000000003         -8.1890611909329891E-006
  0.30270000000000002         -8.1888856584555469E-006
  0.30380000000000001         -8.1888410932151601E-006
  0.30490000000000000         -8.1889311331906356E-006
  0.30599999999999999         -8.1891575973713771E-006
  0.30709999999999998         -8.1895204857573844E-006
  0.30819999999999997         -8.1900197983486578E-006
  0.30930000000000007         -8.1906564446398988E-006
  0.31040000000000006         -8.1914331531152129E-006
  0.31150000000000005         -8.1923535617534071E-006
  0.31260000000000004         -8.1934213085332885E-006
  0.31370000000000003         -8.1946373029495589E-006
  0.31480000000000002         -8.1960042734863237E-006
  0.31590000000000001         -8.1975240391329862E-006
  0.31700000000000000         -8.1992011473630555E-006
  0.31809999999999999         -8.2010346886818297E-006
  0.31919999999999998         -8.2030264820787124E-006
  0.32029999999999997         -8.2051774370484054E-006
  0.32140000000000007         -8.2074884630856104E-006
  0.32250000000000006         -8.2099622886744328E-006
  0.32360000000000005         -8.2125998233095743E-006
  0.32470000000000004         -8.2154037954751402E-006
  0.32580000000000003         -8.2183742051711306E-006
  0.32690000000000002         -8.2215119618922472E-006
  0.32800000000000001         -8.2248170656384900E-006
  0.32910000000000000         -8.2282913353992626E-006
  0.33019999999999999         -8.2319374996586703E-006
  0.33129999999999998         -8.2357546489220113E-006
  0.33239999999999997         -8.2397427831892855E-006
  0.33350000000000007         -8.2439028119551949E-006
  0.33460000000000006         -8.2482356447144412E-006
  0.33570000000000005         -8.2527431004564278E-006
  0.33680000000000004         -8.2574242696864530E-006
  0.33790000000000003         -8.2622782429098152E-006
  0.33900000000000002         -8.2673032011371106E-006
  0.34010000000000001         -8.2724973253789358E-006
  0.34120000000000000         -8.2778606156352907E-006
  0.34229999999999999         -8.2833930719061755E-006
  0.34339999999999998         -8.2890974226756953E-006
  0.34449999999999997         -8.2949727584491484E-006
  0.34560000000000007         -8.3010172602371313E-006
  0.34670000000000006         -8.3072281995555386E-006
  0.34780000000000005         -8.3136046669096686E-006
  0.34890000000000004         -8.3201439338154159E-006
