 -0.20000000000000001          0.0000000000000000
 -0.19890000000000002          0.0000000000000000
 -0.19780000000000000          0.0000000000000000
 -0.19670000000000001          0.0000000000000000
 -0.19560000000000002          0.0000000000000000
 -0.19450000000000001          0.0000000000000000
 -0.19340000000000002          0.0000000000000000
 -0.19230000000000000          0.0000000000000000
 -0.19120000000000001          0.0000000000000000
 -0.19010000000000002          0.0000000000000000
 -0.18900000000000000          0.0000000000000000
 -0.18790000000000001         -5.3679914376062914E-030
 -0.18680000000000002         -2.2255885140706055E-028
 -0.18570000000000000         -3.1604837795485086E-027
 -0.18460000000000001         -2.5595061996802159E-026
 -0.18350000000000000         -1.3209263851557565E-025
 -0.18240000000000001         -4.5353817321309930E-025
 -0.18130000000000002         -1.0344165417220768E-024
 -0.18020000000000000         -1.3869883583721323E-024
 -0.17910000000000001          1.9061529549743122E-026
 -0.17800000000000002          5.9478542420462900E-024
 -0.17690000000000000          1.8344253531543552E-023
 -0.17580000000000001          2.3931233097304722E-023
 -0.17470000000000002         -3.9103469040345533E-023
 -0.17360000000000000         -2.4951150415031882E-022
 -0.17250000000000001         -3.7799533713290583E-022
 -0.17140000000000000          6.0269331617280634E-022
 -0.17030000000000001          3.5274378091210109E-021
 -0.16920000000000002          4.3114293347204703E-021
 -0.16810000000000000         -9.8455035084217738E-021
 -0.16700000000000001         -4.3760316558847216E-020
 -0.16589999999999999         -4.4474134653389266E-020
 -0.16480000000000000          1.1577119040655020E-019
 -0.16370000000000001          4.5279659935999597E-019
 -0.16260000000000002          4.4916444929027562E-019
 -0.16150000000000000         -9.7713398194817191E-019
 -0.16040000000000001         -3.8890417622966505E-018
 -0.15930000000000000         -4.2681493903776662E-018
 -0.15820000000000001          5.9120480215058446E-018
 -0.15710000000000002          2.7789225322947571E-017
 -0.15600000000000000          3.5782228568655624E-017
 -0.15490000000000001         -2.2816721714813651E-017
 -0.15379999999999999         -1.6492174851849556E-016
 -0.15270000000000000         -2.5565402523913469E-016
 -0.15160000000000001          1.1013697270726137E-017
 -0.15050000000000002          8.0334764651613343E-016
 -0.14940000000000001          1.5388791882971274E-015
 -0.14830000000000002          6.5631135602093704E-016
 -0.14720000000000000         -3.0993949861989186E-015
 -0.14610000000000001         -7.7697222638476067E-015
 -0.14500000000000002         -6.4192065799982458E-015
 -0.14390000000000000          8.4490011829311401E-015
 -0.14280000000000001          3.2628647640741207E-014
 -0.14169999999999999          3.9676063405850656E-014
 -0.14060000000000000         -7.5205742986763323E-015
 -0.13950000000000001         -1.1126339514435854E-013
 -0.13840000000000002         -1.8734357598235163E-013
 -0.13730000000000001         -8.1049838336014896E-014
 -0.13619999999999999          2.8726728027589354E-013
 -0.13510000000000000          7.0791820756116453E-013
 -0.13400000000000001          6.3636856201254588E-013
 -0.13290000000000002         -4.1846937698895859E-013
 -0.13180000000000000         -2.1362790009193944E-012
 -0.13070000000000001         -2.9196753521809615E-012
 -0.12959999999999999         -6.8340954640158658E-013
 -0.12850000000000000          4.8624953889742084E-012
 -0.12740000000000001          9.9764771097077265E-012
 -0.12630000000000002          7.6958344211175422E-012
 -0.12520000000000001         -6.4162794001509926E-012
 -0.12410000000000000         -2.6296813684933973E-011
 -0.12300000000000001         -3.3183403941317025E-011
 -0.12190000000000001         -7.0521188715033656E-012
 -0.12080000000000000          5.0473285273522350E-011
 -0.11970000000000000          9.9646089990468312E-011
 -0.11860000000000001          7.7357467653804690E-011
 -0.11750000000000001         -4.9245552080634525E-011
 -0.11640000000000000         -2.2198994031885633E-010
 -0.11530000000000000         -2.8744423508086925E-010
 -0.11420000000000001         -9.5346182338307273E-011
 -0.11310000000000001          3.3619362849179879E-010
 -0.11200000000000000          7.2295425201929220E-010
 -0.11090000000000001          6.3494576263423141E-010
 -0.10980000000000001         -1.5114939855287446E-010
 -0.10870000000000000         -1.2910394975307327E-009
 -0.10760000000000000         -1.8727930317652408E-009
 -0.10650000000000001         -9.9233599115677862E-010
 -0.10540000000000001          1.3469900750351371E-009
 -0.10430000000000000          3.7307179567847015E-009
 -0.10320000000000000          3.9377066052281862E-009
 -0.10210000000000001          6.3983485176777322E-010
 -0.10100000000000001         -4.8955581810616877E-009
  -9.9900000000000003E-002    -8.7291676109657601E-009
  -9.8799999999999999E-002    -6.6356111716459054E-009
  -9.7700000000000009E-002     2.1707926567415825E-009
  -9.6600000000000005E-002     1.2845858599064286E-008
  -9.5500000000000002E-002     1.6918756173822658E-008
  -9.4400000000000012E-002     8.3504909653697723E-009
  -9.3300000000000008E-002    -1.0261063998484588E-008
  -9.2200000000000004E-002    -2.6836708855171310E-008
  -9.1100000000000000E-002    -2.6979812162153394E-008
  -9.0000000000000011E-002    -5.5258850828465711E-009
  -8.8900000000000007E-002     2.6252511275970392E-008
  -8.7800000000000003E-002     4.5422364536307214E-008
  -8.6699999999999999E-002     3.3508495533851601E-008
  -8.5600000000000009E-002    -6.8695551469488692E-009
  -8.4500000000000006E-002    -4.9142254709977351E-008
  -8.3400000000000002E-002    -5.9737239155310817E-008
  -8.2299999999999998E-002    -2.4978547230602999E-008
  -8.1200000000000008E-002     3.3183848557882811E-008
  -8.0100000000000005E-002     6.9070239305801806E-008
  -7.9000000000000001E-002     4.8693429732793447E-008
  -7.7899999999999997E-002    -1.7430268783868996E-008
  -7.6800000000000007E-002    -7.4277544115375349E-008
  -7.5700000000000003E-002    -6.3179768972076999E-008
  -7.4600000000000000E-002     2.3425874573490546E-008
  -7.3500000000000010E-002     1.1999503612969420E-007
  -7.2399999999999992E-002     1.2795509007901273E-007
  -7.1300000000000002E-002    -1.0630792912635911E-009
  -7.0200000000000012E-002    -2.0190776695017121E-007
  -6.9099999999999995E-002    -3.1544976764052990E-007
  -6.8000000000000005E-002    -1.9840074116928008E-007
  -6.6900000000000015E-002     1.4571442363831011E-007
  -6.5799999999999997E-002     5.2035795761185000E-007
  -6.4700000000000008E-002     6.3670313465991057E-007
  -6.3599999999999990E-002     3.1722919402454863E-007
  -6.2500000000000000E-002    -3.3605525118218793E-007
  -6.1400000000000010E-002    -9.4921767868072493E-007
  -6.0299999999999992E-002    -1.0903592055910849E-006
  -5.9200000000000003E-002    -5.6598315723022097E-007
  -5.8100000000000013E-002     4.0744950524640444E-007
  -5.6999999999999995E-002     1.2986427009309409E-006
  -5.5900000000000005E-002     1.5814946436876198E-006
  -5.4800000000000015E-002     1.0665818308552844E-006
  -5.3699999999999998E-002     9.1178309347128561E-009
  -5.2600000000000008E-002    -1.0800125664900406E-006
  -5.1499999999999990E-002    -1.7639652014622698E-006
  -5.0400000000000000E-002    -1.8839415361071588E-006
  -4.9300000000000010E-002    -1.4885412156218081E-006
  -4.8199999999999993E-002    -6.0524291711772094E-007
  -4.7100000000000003E-002     8.4637269992526853E-007
  -4.6000000000000013E-002     2.8015767838951433E-006
  -4.4899999999999995E-002     4.6204172576835845E-006
  -4.3800000000000006E-002     4.9733566811482888E-006
  -4.2699999999999988E-002     2.4755881895544007E-006
  -4.1599999999999998E-002    -3.0541325486410642E-006
  -4.0500000000000008E-002    -9.5560544650652446E-006
  -3.9399999999999991E-002    -1.3024138752371073E-005
  -3.8300000000000001E-002    -9.6049916464835405E-006
  -3.7200000000000011E-002     1.3768794815405272E-006
  -3.6099999999999993E-002     1.5516163330175914E-005
  -3.5000000000000003E-002     2.4521950763300993E-005
  -3.3900000000000013E-002     2.0773130017914809E-005
  -3.2799999999999996E-002     2.9623065529449377E-006
  -3.1700000000000006E-002    -2.1044006643933244E-005
  -3.0599999999999988E-002    -3.7111840356374159E-005
  -2.9499999999999998E-002    -3.3053056540666148E-005
  -2.8400000000000009E-002    -7.5973907769366633E-006
  -2.7299999999999991E-002     2.6220734071102925E-005
  -2.6200000000000001E-002     4.7129138692980632E-005
  -2.5100000000000011E-002     3.9004866266623139E-005
  -2.3999999999999994E-002     3.5146742902725236E-006
  -2.2900000000000004E-002    -3.7471647374331951E-005
  -2.1800000000000014E-002    -5.3895782912150025E-005
  -2.0699999999999996E-002    -2.8450862373574637E-005
  -1.9600000000000006E-002     2.7073336241301149E-005
  -1.8499999999999989E-002     7.3537281423341483E-005
  -1.7399999999999999E-002     6.7731671151705086E-005
  -1.6300000000000009E-002    -4.5771776058245450E-006
  -1.5199999999999991E-002    -1.0810283856699243E-004
  -1.4100000000000001E-002    -1.6914591833483428E-004
  -1.3000000000000012E-002    -1.1948675819439813E-004
  -1.1899999999999994E-002     4.9588332331040874E-005
  -1.0800000000000004E-002     2.5973236188292503E-004
  -9.6999999999999864E-003     3.7258394877426326E-004
  -8.5999999999999965E-003     2.6869680732488632E-004
  -7.5000000000000067E-003    -6.1786624428350478E-005
  -6.3999999999999890E-003    -4.7643767902627587E-004
  -5.2999999999999992E-003    -7.2909222217276692E-004
  -4.2000000000000093E-003    -6.0250115348026156E-004
  -3.0999999999999917E-003    -5.9315087128197774E-005
  -2.0000000000000018E-003     6.8360770819708705E-004
  -9.0000000000001190E-004     1.2257703347131610E-003
   2.0000000000000573E-004     1.1884276755154133E-003
   1.2999999999999956E-003     4.5492267236113548E-004
   2.4000000000000132E-003    -6.9893052568659186E-004
   3.5000000000000031E-003    -1.6904071671888232E-003
   4.5999999999999930E-003    -1.9220969406887889E-003
   5.7000000000000106E-003    -1.1387682752683759E-003
   6.8000000000000005E-003     3.6128569627180696E-004
   7.8999999999999904E-003     1.8178001046180725E-003
   9.0000000000000080E-003     2.3977993987500668E-003
   1.0099999999999998E-002     1.6891128616407514E-003
   1.1199999999999988E-002     6.7994487835676409E-006
   1.2300000000000005E-002    -1.7079167300835252E-003
   1.3399999999999995E-002    -2.3936047218739986E-003
   1.4500000000000013E-002    -1.5197441680356860E-003
   1.5600000000000003E-002     5.0813215784728527E-004
   1.6699999999999993E-002     2.4812710471451283E-003
   1.7800000000000010E-002     3.0487969052046537E-003
   1.8900000000000000E-002     1.5573221025988460E-003
   1.9999999999999990E-002    -1.4438701327890158E-003
   2.1100000000000008E-002    -4.3986211530864239E-003
   2.2199999999999998E-002    -5.6014610454440117E-003
   2.3300000000000015E-002    -4.2413198389112949E-003
   2.4400000000000005E-002    -9.7206205828115344E-004
   2.5499999999999995E-002     2.4222505744546652E-003
   2.6600000000000013E-002     4.1529429145157337E-003
   2.7700000000000002E-002     3.6812438629567623E-003
   2.8799999999999992E-002     2.2583068348467350E-003
   2.9900000000000010E-002     2.2685404401272535E-003
   3.1000000000000000E-002     5.6374389678239822E-003
   3.2099999999999990E-002     1.2248672544956207E-002
   3.3200000000000007E-002     1.9469048827886581E-002
   3.4299999999999997E-002     2.3317202925682068E-002
   3.5400000000000015E-002     2.0796690136194229E-002
   3.6500000000000005E-002     1.2053511105477810E-002
   3.7599999999999995E-002     9.0943282702937722E-004
   3.8700000000000012E-002    -6.8468945100903511E-003
   3.9800000000000002E-002    -6.6641015000641346E-003
   4.0899999999999992E-002     1.8997675506398082E-003
   4.2000000000000010E-002     1.4510718174278736E-002
   4.3099999999999999E-002     2.4308338761329651E-002
   4.4200000000000017E-002     2.5998242199420929E-002
   4.5300000000000007E-002     1.9388951361179352E-002
   4.6399999999999997E-002     1.0028501041233540E-002
   4.7500000000000014E-002     6.1739711090922356E-003
   4.8600000000000004E-002     1.3601515442132950E-002
   4.9699999999999994E-002     3.1351368874311447E-002
   5.0800000000000012E-002     5.1291096955537796E-002
   5.1900000000000002E-002     6.2289066612720490E-002
   5.2999999999999992E-002     5.6935027241706848E-002
   5.4099999999999981E-002     3.6867275834083557E-002
   5.5200000000000027E-002     1.3172402977943420E-002
   5.6300000000000017E-002     1.0096151381731033E-003
   5.7400000000000007E-002     1.1118976399302483E-002
   5.8499999999999996E-002     4.3078817427158356E-002
   5.9599999999999986E-002     8.4570176899433136E-002
   6.0700000000000032E-002    0.11760776489973068
   6.1800000000000022E-002    0.12853030860424042
   6.2900000000000011E-002    0.11602034419775009
   6.4000000000000001E-002     9.2242211103439331E-002
   6.5099999999999991E-002     7.6069362461566925E-002
   6.6199999999999981E-002     8.2128621637821198E-002
   6.7300000000000026E-002    0.11212002485990524
   6.8400000000000016E-002    0.15377536416053772
   6.9500000000000006E-002    0.18834991753101349
   7.0599999999999996E-002    0.20230555534362793
   7.1699999999999986E-002    0.19606114923954010
   7.2800000000000031E-002    0.18423052132129669
   7.3900000000000021E-002    0.18686550855636597
   7.5000000000000011E-002    0.21686953306198120
   7.6100000000000001E-002    0.27138641476631165
   7.7199999999999991E-002    0.33282455801963806
   7.8299999999999981E-002    0.37933447957038879
   7.9400000000000026E-002    0.39856511354446411
   8.0500000000000016E-002    0.39613825082778931
   8.1600000000000006E-002    0.39320361614227295
   8.2699999999999996E-002    0.41405764222145081
   8.3799999999999986E-002    0.47113686800003052
   8.4900000000000031E-002    0.55671501159667969
   8.6000000000000021E-002    0.64686781167984009
   8.7100000000000011E-002    0.71583223342895508
   8.8200000000000001E-002    0.75225377082824707
   8.9299999999999990E-002    0.76727062463760376
   9.0399999999999980E-002    0.78896176815032959
   9.1500000000000026E-002    0.84596699476242065
   9.2600000000000016E-002    0.94991463422775269
   9.3700000000000006E-002     1.0874748229980469
   9.4799999999999995E-002     1.2273550033569336
   9.5899999999999985E-002     1.3386137485504150
   9.7000000000000031E-002     1.4096034765243530
   9.8100000000000021E-002     1.4561150074005127
   9.9200000000000010E-002     1.5134422779083252
  0.10030000000000000          1.6166449785232544
  0.10139999999999999          1.7804582118988037
  0.10249999999999998          1.9906903505325317
  0.10360000000000003          2.2122771739959717
  0.10470000000000002          2.4093589782714844
  0.10580000000000001          2.5656688213348389
  0.10690000000000000          2.6934211254119873
  0.10799999999999998          2.8258171081542969
  0.10910000000000003          2.9979870319366455
  0.11020000000000002          3.2277565002441406
  0.11130000000000001          3.5074281692504883
  0.11240000000000000          3.8106427192687988
  0.11349999999999999          4.1095581054687500
  0.11460000000000004          4.3914127349853516
  0.11570000000000003          4.6647129058837891
  0.11680000000000001          4.9520826339721680
  0.11790000000000000          5.2750816345214844
  0.11899999999999999          5.6409964561462402
  0.12009999999999998          6.0397305488586426
  0.12120000000000003          6.4523134231567383
  0.12230000000000002          6.8650140762329102
  0.12340000000000001          7.2796583175659180
  0.12450000000000000          7.7135176658630371
  0.12559999999999999          8.1887779235839844
  0.12670000000000003          8.7183208465576172
  0.12780000000000002          9.2971401214599609
  0.12890000000000001          9.9046325683593750
  0.13000000000000000          10.516636848449707
  0.13109999999999999          11.120049476623535
  0.13219999999999998          11.721192359924316
  0.13330000000000003          12.343087196350098
  0.13440000000000002          13.013510704040527
  0.13550000000000001          13.750582695007324
  0.13660000000000000          14.554413795471191
  0.13769999999999999          15.408606529235840
  0.13880000000000003          16.290273666381836
  0.13990000000000002          17.182086944580078
  0.14100000000000001          18.080112457275391
  0.14210000000000000          18.993820190429688
  0.14319999999999999          19.939428329467773
  0.14429999999999998          20.930988311767578
  0.14540000000000003          21.974750518798828
  0.14650000000000002          23.068418502807617
  0.14760000000000001          24.204868316650391
  0.14870000000000000          25.377304077148438
  0.14979999999999999          26.582569122314453
  0.15090000000000003          27.821176528930664
  0.15200000000000002          29.095586776733398
  0.15310000000000001          30.407764434814453
  0.15420000000000000          31.758270263671875
  0.15529999999999999          33.146358489990234
  0.15639999999999998          34.571014404296875
  0.15750000000000003          36.031726837158203
  0.15860000000000002          37.528385162353516
  0.15970000000000001          39.061412811279297
  0.16080000000000000          40.631423950195312
  0.16189999999999999          42.239250183105469
  0.16300000000000003          43.884792327880859
  0.16410000000000002          45.566055297851562
  0.16520000000000001          47.278884887695312
  0.16630000000000000          49.017597198486328
  0.16739999999999999          50.776096343994141
  0.16850000000000004          52.551265716552734
  0.16960000000000003          54.344573974609375
  0.17070000000000002          56.162151336669922
  0.17180000000000001          58.012176513671875
  0.17290000000000000          59.899700164794922
  0.17399999999999999          61.822536468505859
  0.17510000000000003          63.770523071289062
  0.17620000000000002          65.728134155273438
  0.17730000000000001          67.681953430175781
  0.17840000000000000          69.625312805175781
  0.17949999999999999          71.560066223144531
  0.18060000000000004          73.495628356933594
  0.18170000000000003          75.440681457519531
  0.18280000000000002          77.399749755859375
  0.18390000000000001          79.369781494140625
  0.18500000000000000          81.341445922851562
  0.18609999999999999          83.304290771484375
  0.18720000000000003          85.250434875488281
  0.18830000000000002          87.174476623535156
  0.18940000000000001          89.071983337402344
  0.19050000000000000          90.938804626464844
  0.19159999999999999          92.771804809570312
  0.19270000000000004          94.570320129394531
  0.19380000000000003          96.336486816406250
  0.19490000000000002          98.076698303222656
  0.19600000000000001          99.793945312500000
  0.19710000000000000          101.48712158203125
  0.19819999999999999          103.14656829833984
  0.19930000000000003          104.75810241699219
  0.20040000000000002          106.30490875244141
  0.20150000000000001          107.77530670166016
  0.20260000000000000          109.16901397705078
  0.20369999999999999          110.49246215820312
  0.20480000000000004          111.75931549072266
  0.20590000000000003          112.97994995117188
  0.20700000000000002          114.15411376953125
  0.20810000000000001          115.26858520507812
  0.20920000000000000          116.30806732177734
  0.21029999999999999          117.25812530517578
  0.21140000000000003          118.11880493164062
  0.21250000000000002          118.89910125732422
  0.21360000000000001          119.60744476318359
  0.21470000000000000          120.24328613281250
  0.21579999999999999          120.79749298095703
  0.21690000000000004          121.25514984130859
  0.21800000000000003          121.60886383056641
  0.21910000000000002          121.85987854003906
  0.22020000000000001          122.01881408691406
  0.22130000000000000          122.09991455078125
  0.22239999999999999          122.11528015136719
  0.22350000000000003          122.06905364990234
  0.22460000000000002          121.94857025146484
  0.22570000000000001          121.73485565185547
  0.22680000000000000          121.40992736816406
  0.22789999999999999          120.96590423583984
  0.22900000000000004          120.40896606445312
  0.23010000000000003          119.75484466552734
  0.23120000000000002          119.02696228027344
  0.23230000000000001          118.23667907714844
  0.23340000000000000          117.39151000976562
  0.23450000000000004          116.48366546630859
  0.23560000000000003          115.50097656250000
  0.23670000000000002          114.43161010742188
  0.23780000000000001          113.27193450927734
  0.23890000000000000          112.02536773681641
  0.23999999999999999          110.69864654541016
  0.24110000000000004          109.30390930175781
  0.24220000000000003          107.84642791748047
  0.24330000000000002          106.33246612548828
  0.24440000000000001          104.76767730712891
  0.24550000000000000          103.15490722656250
  0.24660000000000004          101.49563598632812
  0.24770000000000003          99.790931701660156
  0.24880000000000002          98.039451599121094
  0.24990000000000001          96.243949890136719
  0.25100000000000000          94.410667419433594
  0.25209999999999999          92.545669555664062
  0.25320000000000004          90.650627136230469
  0.25430000000000003          88.724800109863281
  0.25540000000000002          86.765571594238281
  0.25650000000000001          84.776565551757812
  0.25760000000000000          82.766410827636719
  0.25870000000000004          80.749687194824219
  0.25980000000000003          78.736778259277344
  0.26090000000000002          76.732116699218750
  0.26200000000000001          74.737373352050781
  0.26310000000000000          72.746192932128906
  0.26419999999999999          70.755966186523438
  0.26530000000000004          68.763031005859375
  0.26640000000000003          66.772308349609375
  0.26750000000000002          64.782569885253906
  0.26860000000000001          62.803451538085938
  0.26970000000000000          60.844314575195312
  0.27080000000000004          58.922534942626953
  0.27190000000000003          57.044834136962891
  0.27300000000000002          55.207340240478516
  0.27410000000000001          53.402633666992188
  0.27520000000000000          51.628929138183594
  0.27629999999999999          49.879413604736328
  0.27740000000000004          48.161449432373047
  0.27850000000000003          46.477130889892578
  0.27960000000000002          44.827186584472656
  0.28070000000000001          43.213100433349609
  0.28179999999999999          41.643089294433594
  0.28290000000000004          40.125198364257812
  0.28400000000000003          38.663604736328125
  0.28510000000000002          37.266349792480469
  0.28620000000000001          35.929748535156250
  0.28730000000000000          34.637962341308594
  0.28840000000000005          33.388164520263672
  0.28950000000000004          32.175571441650391
  0.29060000000000002          31.001594543457031
  0.29170000000000001          29.875011444091797
  0.29280000000000000          28.801652908325195
  0.29389999999999999          27.788150787353516
  0.29500000000000004          26.830575942993164
  0.29610000000000003          25.931076049804688
  0.29720000000000002          25.084434509277344
  0.29830000000000001          24.282854080200195
  0.29940000000000000          23.522344589233398
  0.30050000000000004          22.800693511962891
  0.30160000000000003          22.130859375000000
  0.30270000000000002          21.516519546508789
  0.30380000000000001          20.955469131469727
  0.30490000000000000          20.441688537597656
  0.30599999999999999          19.966093063354492
  0.30709999999999998          19.519351959228516
  0.30819999999999997          19.101095199584961
  0.30930000000000007          18.723173141479492
  0.31040000000000006          18.402589797973633
  0.31150000000000005          18.140144348144531
  0.31260000000000004          17.924600601196289
  0.31370000000000003          17.735025405883789
  0.31480000000000002          17.566692352294922
  0.31590000000000001          17.414688110351562
  0.31700000000000000          17.291477203369141
  0.31809999999999999          17.201416015625000
  0.31919999999999998          17.142726898193359
  0.32029999999999997          17.112461090087891
  0.32140000000000007          17.108163833618164
  0.32250000000000006          17.129035949707031
  0.32360000000000005          17.188156127929688
  0.32470000000000004          17.276620864868164
  0.32580000000000003          17.388536453247070
  0.32690000000000002          17.502723693847656
  0.32800000000000001          17.610649108886719
  0.32910000000000000          17.721151351928711
  0.33019999999999999          17.858360290527344
  0.33129999999999998          18.034490585327148
  0.33239999999999997          18.250648498535156
  0.33350000000000007          18.481355667114258
  0.33460000000000006          18.705369949340820
  0.33570000000000005          18.912994384765625
  0.33680000000000004          19.117425918579102
  0.33790000000000003          19.333766937255859
  0.33900000000000002          19.571535110473633
  0.34010000000000001          19.820167541503906
  0.34120000000000000          20.074693679809570
  0.34229999999999999          20.336341857910156
  0.34339999999999998          20.608303070068359
  0.34449999999999997          20.893833160400391
  0.34560000000000007          21.176292419433594
  0.34670000000000006          21.443771362304688
  0.34780000000000005          21.686819076538086
  0.34890000000000004          21.924278259277344
