 -0.20000000000000001          0.0000000000000000
 -0.19890000000000002          0.0000000000000000
 -0.19780000000000000          0.0000000000000000
 -0.19670000000000001         -5.8940170994704888E-014
 -0.19560000000000002         -2.7692708152657342E-013
 -0.19450000000000001         -5.3503626225651080E-013
 -0.19340000000000002         -4.8272470005647494E-013
 -0.19230000000000000         -1.6088139934838930E-013
 -0.19120000000000001         -9.3324883953561921E-014
 -0.19010000000000002          4.7208379783461596E-013
 -0.18900000000000000          4.8412935986508199E-012
 -0.18790000000000001          1.4577075657662419E-011
 -0.18680000000000002          2.0715316614849932E-011
 -0.18570000000000000          3.6259630280949251E-012
 -0.18460000000000001         -4.5984858282333008E-011
 -0.18350000000000000         -9.7683125477310284E-011
 -0.18240000000000001         -8.4065539251998445E-011
 -0.18130000000000002          3.8160922338770220E-011
 -0.18020000000000000          2.0958895730061045E-010
 -0.17910000000000001          2.6886134985026899E-010
 -0.17800000000000002          8.5849403974602723E-011
 -0.17690000000000000         -2.6345281511908070E-010
 -0.17580000000000001         -4.7712905848484866E-010
 -0.17470000000000002         -2.6827037813426102E-010
 -0.17360000000000000          2.9691099578954550E-010
 -0.17250000000000001          7.2011752116907246E-010
 -0.17140000000000000          4.5508699586527257E-010
 -0.17030000000000001         -4.9617587816186415E-010
 -0.16920000000000002         -1.3642593721385765E-009
 -0.16810000000000000         -1.1501414265424614E-009
 -0.16700000000000001          4.0216430186035268E-010
 -0.16589999999999999          2.2880719541262806E-009
 -0.16480000000000000          2.8472750823738124E-009
 -0.16370000000000001          1.1766850827044095E-009
 -0.16260000000000002         -1.8519012989770545E-009
 -0.16150000000000000         -4.0305527804207486E-009
 -0.16040000000000001         -3.5472600412589372E-009
 -0.15930000000000000         -5.8999527485781300E-010
 -0.15820000000000001          2.6519511031608545E-009
 -0.15710000000000002          3.7208505165864381E-009
 -0.15600000000000000          1.9178785226614536E-009
 -0.15490000000000001         -1.1287440981888608E-009
 -0.15379999999999999         -2.8190245693338056E-009
 -0.15270000000000000         -1.6262132751521108E-009
 -0.15160000000000001          1.9086991986938528E-009
 -0.15050000000000002          5.8679616721235561E-009
 -0.14940000000000001          8.4217859352975211E-009
 -0.14830000000000002          8.7072526966380792E-009
 -0.14720000000000000          6.7191137098632225E-009
 -0.14610000000000001          2.9636926246467965E-009
 -0.14500000000000002         -1.3756179528812140E-009
 -0.14390000000000000         -4.1160292951758493E-009
 -0.14280000000000001         -2.7040376604503535E-009
 -0.14169999999999999          3.8787670852968859E-009
 -0.14060000000000000          1.3326059367102516E-008
 -0.13950000000000001          2.0425078517405382E-008
 -0.13840000000000002          2.0239037112901315E-008
 -0.13730000000000001          1.1954239376166242E-008
 -0.13619999999999999          1.3406198373644429E-010
 -0.13510000000000000         -8.0515443201534254E-009
 -0.13400000000000001         -7.6410975324847641E-009
 -0.13290000000000002          1.0726400878624531E-009
 -0.13180000000000000          1.3506144647124074E-008
 -0.13070000000000001          2.4461957792709654E-008
 -0.12959999999999999          3.1115213516841322E-008
 -0.12850000000000000          3.3168674917760654E-008
 -0.12740000000000001          3.1174405279443818E-008
 -0.12630000000000002          2.5668676073564711E-008
 -0.12520000000000001          1.8242451105265900E-008
 -0.12410000000000000          1.2798333948182972E-008
 -0.12300000000000001          1.4416859706045670E-008
 -0.12190000000000001          2.5690875204986696E-008
 -0.12080000000000000          4.3618868517114606E-008
 -0.11970000000000000          6.0506600618737139E-008
 -0.11860000000000001          6.8943002418109245E-008
 -0.11750000000000001          6.6944586762929248E-008
 -0.11640000000000000          5.8898198318502182E-008
 -0.11530000000000000          5.1697021774543828E-008
 -0.11420000000000001          4.9833218440653582E-008
 -0.11310000000000001          5.3811113787105569E-008
 -0.11200000000000000          6.2515084664482856E-008
 -0.11090000000000001          7.6039725627197186E-008
 -0.10980000000000001          9.5337163941167091E-008
 -0.10870000000000000          1.1901461505203770E-007
 -0.10760000000000000          1.4138456094769936E-007
 -0.10650000000000001          1.5513793982790958E-007
 -0.10540000000000001          1.5721100510290853E-007
 -0.10430000000000000          1.5249106866122020E-007
 -0.10320000000000000          1.5131611519336730E-007
 -0.10210000000000001          1.6234861277553136E-007
 -0.10100000000000001          1.8684391989154392E-007
  -9.9900000000000003E-002     2.1907592895331618E-007
  -9.8799999999999999E-002     2.5191056352014130E-007
  -9.7700000000000009E-002     2.8197632673254702E-007
  -9.6600000000000005E-002     3.0999643740869942E-007
  -9.5500000000000002E-002     3.3720368719514227E-007
  -9.4400000000000012E-002     3.6264322034185170E-007
  -9.3300000000000008E-002     3.8462323459498293E-007
  -9.2200000000000004E-002     4.0450737515129731E-007
  -9.1100000000000000E-002     4.2808929379134497E-007
  -9.0000000000000011E-002     4.6221899197007588E-007
  -8.8900000000000007E-002     5.0954594144059229E-007
  -8.7800000000000003E-002     5.6653340152479359E-007
  -8.6699999999999999E-002     6.2672404510522028E-007
  -8.5600000000000009E-002     6.8594027879953501E-007
  -8.4500000000000006E-002     7.4436047725612298E-007
  -8.3400000000000002E-002     8.0404311120219063E-007
  -8.2299999999999998E-002     8.6544667965426925E-007
  -8.1200000000000008E-002     9.2732221901314915E-007
  -8.0100000000000005E-002     9.9013732324237935E-007
  -7.9000000000000001E-002     1.0586797998257680E-006
  -7.7899999999999997E-002     1.1399190498195821E-006
  -7.6800000000000007E-002     1.2373941444820957E-006
  -7.5700000000000003E-002     1.3477069842338096E-006
  -7.4600000000000000E-002     1.4631473277404439E-006
  -7.3500000000000010E-002     1.5783210756126209E-006
  -7.2399999999999992E-002     1.6943574792094296E-006
  -7.1300000000000002E-002     1.8166406334785279E-006
  -7.0200000000000012E-002     1.9487542886054143E-006
  -6.9099999999999995E-002     2.0892859993182356E-006
  -6.8000000000000005E-002     2.2349406663124682E-006
  -6.6900000000000015E-002     2.3863449314376339E-006
  -6.5799999999999997E-002     2.5497088245174382E-006
  -6.4700000000000008E-002     2.7318467346049147E-006
  -6.3599999999999990E-002     2.9334901228139643E-006
  -6.2500000000000000E-002     3.1482131817028858E-006
  -6.1400000000000010E-002     3.3686658298393013E-006
  -6.0299999999999992E-002     3.5939374356530607E-006
  -5.9200000000000003E-002     3.8302841858239844E-006
  -5.8100000000000013E-002     4.0843251554179005E-006
  -5.6999999999999995E-002     4.3559743971854914E-006
  -5.5900000000000005E-002     4.6389468479901552E-006
  -5.4800000000000015E-002     4.9287036745226942E-006
  -5.3699999999999998E-002     5.2293248700152617E-006
  -5.2600000000000008E-002     5.5513946790597402E-006
  -5.1499999999999990E-002     5.9023909670941066E-006
  -5.0400000000000000E-002     6.2793860706733540E-006
  -4.9300000000000010E-002     6.6720904214889742E-006
  -4.8199999999999993E-002     7.0735627559770364E-006
  -4.7100000000000003E-002     7.4875224527204409E-006
  -4.6000000000000013E-002     7.9242918218369596E-006
  -4.4899999999999995E-002     8.3893764895037748E-006
  -4.3800000000000006E-002     8.8770239017321728E-006
  -4.2699999999999988E-002     9.3762973847333342E-006
  -4.1599999999999998E-002     9.8839973361464217E-006
  -4.0500000000000008E-002     1.0410695722384844E-005
  -3.9399999999999991E-002     1.0972525160468649E-005
  -3.8300000000000001E-002     1.1576055840123445E-005
  -3.7200000000000011E-002     1.2211562534503173E-005
  -3.6099999999999993E-002     1.2862315088568721E-005
  -3.5000000000000003E-002     1.3521094842872117E-005
  -3.3900000000000013E-002     1.4197249583958182E-005
  -3.2799999999999996E-002     1.4906787328072824E-005
  -3.1700000000000006E-002     1.5655503375455737E-005
  -3.0599999999999988E-002     1.6432668417110108E-005
  -2.9499999999999998E-002     1.7222269889316522E-005
  -2.8400000000000009E-002     1.8020686184172519E-005
  -2.7299999999999991E-002     1.8842294593923725E-005
  -2.6200000000000001E-002     1.9706407329067588E-005
  -2.5100000000000011E-002     2.0618181224563159E-005
  -2.3999999999999994E-002     2.1562786059803329E-005
  -2.2900000000000004E-002     2.2519405320053920E-005
  -2.1800000000000014E-002     2.3481250536860898E-005
  -2.0699999999999996E-002     2.4461469365633093E-005
  -1.9600000000000006E-002     2.5479037503828295E-005
  -1.8499999999999989E-002     2.6538897145655937E-005
  -1.7399999999999999E-002     2.7626558221527375E-005
  -1.6300000000000009E-002     2.8722743081743829E-005
  -1.5199999999999991E-002     2.9823122531524859E-005
  -1.4100000000000001E-002     3.0942654120735824E-005
  -1.3000000000000012E-002     3.2100051612360403E-005
  -1.1899999999999994E-002     3.3298387279501185E-005
  -1.0800000000000004E-002     3.4521410270826891E-005
  -9.6999999999999864E-003     3.5749395465245470E-005
  -8.5999999999999965E-003     3.6978053685743362E-005
  -7.5000000000000067E-003     3.8220761780394241E-005
  -6.3999999999999890E-003     3.9492311771027744E-005
  -5.2999999999999992E-003     4.0791295759845525E-005
  -4.2000000000000093E-003     4.2099822167074308E-005
  -3.0999999999999917E-003     4.3400894355727360E-005
  -2.0000000000000018E-003     4.4695443648379296E-005
  -9.0000000000001190E-004     4.6000957809155807E-005
   2.0000000000000573E-004     4.7332538088085130E-005
   1.2999999999999956E-003     4.8685960791772231E-005
   2.4000000000000132E-003     5.0040216592606157E-005
   3.5000000000000031E-003     5.1376980991335586E-005
   4.5999999999999930E-003     5.2696803322760388E-005
   5.7000000000000106E-003     5.4015326895751059E-005
   6.8000000000000005E-003     5.5343873100355268E-005
   7.8999999999999904E-003     5.6674660299904644E-005
   9.0000000000000080E-003     5.7986329920822755E-005
   1.0099999999999998E-002     5.9264595620334148E-005
   1.1199999999999988E-002     6.0515936638694257E-005
   1.2300000000000005E-002     6.1759950767736882E-005
   1.3399999999999995E-002     6.3007733842823654E-005
   1.4500000000000013E-002     6.4247586124110967E-005
   1.5600000000000003E-002     6.5453816205263138E-005
   1.6699999999999993E-002     6.6609653003979474E-005
   1.7800000000000010E-002     6.7721048253588378E-005
   1.8900000000000000E-002     6.8807545176241547E-005
   1.9999999999999990E-002     6.9879395596217364E-005
   2.1100000000000008E-002     7.0925052568782121E-005
   2.2199999999999998E-002     7.1920854679774493E-005
   2.3300000000000015E-002     7.2853188612498343E-005
   2.4400000000000005E-002     7.3730654548853636E-005
   2.5499999999999995E-002     7.4573399615474045E-005
   2.6600000000000013E-002     7.5390576967038214E-005
   2.7700000000000002E-002     7.6169279054738581E-005
   2.8799999999999992E-002     7.6885015005245805E-005
   2.9900000000000010E-002     7.7523742220364511E-005
   3.1000000000000000E-002     7.8093435149639845E-005
   3.2099999999999990E-002     7.8612218203488737E-005
   3.3200000000000007E-002     7.9088014899753034E-005
   3.4299999999999997E-002     7.9509845818392932E-005
   3.5400000000000015E-002     7.9858546087052673E-005
   3.6500000000000005E-002     8.0126104876399040E-005
   3.7599999999999995E-002     8.0322904977947474E-005
   3.8700000000000012E-002     8.0465404607821256E-005
   3.9800000000000002E-002     8.0557154433336109E-005
   4.0899999999999992E-002     8.0583886301610619E-005
   4.2000000000000010E-002     8.0527461250312626E-005
   4.3099999999999999E-002     8.0383542808704078E-005
   4.4200000000000017E-002     8.0164762039203197E-005
   4.5300000000000007E-002     7.9886878666002303E-005
   4.6399999999999997E-002     7.9552388342563063E-005
   4.7500000000000014E-002     7.9148026998154819E-005
   4.8600000000000004E-002     7.8659431892447174E-005
   4.9699999999999994E-002     7.8087417932692915E-005
   5.0800000000000012E-002     7.7447977673728019E-005
   5.1900000000000002E-002     7.6756514317821711E-005
   5.2999999999999992E-002     7.6012576755601913E-005
   5.4099999999999981E-002     7.5200339779257774E-005
   5.5200000000000027E-002     7.4305062298662961E-005
   5.6300000000000017E-002     7.3328963480889797E-005
   5.7400000000000007E-002     7.2289512900169939E-005
   5.8499999999999996E-002     7.1203037805389613E-005
   5.9599999999999986E-002     7.0070243964437395E-005
   6.0700000000000032E-002     6.8877525336574763E-005
   6.1800000000000022E-002     6.7613560531754047E-005
   6.2900000000000011E-002     6.6283966589253396E-005
   6.4000000000000001E-002     6.4908788772299886E-005
   6.5099999999999991E-002     6.3504819991067052E-005
   6.6199999999999981E-002     6.2070925196167082E-005
   6.7300000000000026E-002     6.0590715293074027E-005
   6.8400000000000016E-002     5.9050438721897081E-005
   6.9500000000000006E-002     5.7453886256553233E-005
   7.0599999999999996E-002     5.5820484703872353E-005
   7.1699999999999986E-002     5.4168758651940152E-005
   7.2800000000000031E-002     5.2501614845823497E-005
   7.3900000000000021E-002     5.0808055675588548E-005
   7.5000000000000011E-002     4.9078167648985982E-005
   7.6100000000000001E-002     4.7317327698692679E-005
   7.7199999999999991E-002     4.5543802116299048E-005
   7.8299999999999981E-002     4.3772375647677109E-005
   7.9400000000000026E-002     4.2002237023552880E-005
   8.0500000000000016E-002     4.0220529626822099E-005
   8.1600000000000006E-002     3.8417681935243309E-005
   8.2699999999999996E-002     3.6599529266823083E-005
   8.3799999999999986E-002     3.4784217859851196E-005
   8.4900000000000031E-002     3.2987085432978347E-005
   8.6000000000000021E-002     3.1208128348225728E-005
   8.7100000000000011E-002     2.9435474061756395E-005
   8.8200000000000001E-002     2.7661290005198680E-005
   8.9299999999999990E-002     2.5892888515954837E-005
   9.0399999999999980E-002     2.4148335796780884E-005
   9.1500000000000026E-002     2.2440997781814076E-005
   9.2600000000000016E-002     2.0768649847013876E-005
   9.3700000000000006E-002     1.9118449927191250E-005
   9.4799999999999995E-002     1.7482714611105621E-005
   9.5899999999999985E-002     1.5867963156779297E-005
   9.7000000000000031E-002     1.4288430065789726E-005
   9.8100000000000021E-002     1.2752275324601214E-005
   9.9200000000000010E-002     1.1254599485255312E-005
  0.10030000000000000          9.7843476396519691E-006
  0.10139999999999999          8.3388167695375159E-006
  0.10249999999999998          6.9305124270613305E-006
  0.10360000000000003          5.5776654335204512E-006
  0.10470000000000002          4.2874175960605498E-006
  0.10580000000000001          3.0493267786368961E-006
  0.10690000000000000          1.8467449081072118E-006
  0.10799999999999998          6.7364840106165502E-007
  0.10910000000000003         -4.6048577928559098E-007
  0.11020000000000002         -1.5409209481731523E-006
  0.11130000000000001         -2.5638555598561652E-006
  0.11240000000000000         -3.5416510399954859E-006
  0.11349999999999999         -4.4889866330777295E-006
  0.11460000000000004         -5.4052256928116549E-006
  0.11570000000000003         -6.2725002862862311E-006
  0.11680000000000001         -7.0712276283302344E-006
  0.11790000000000000         -7.7982604125281796E-006
  0.11899999999999999         -8.4715729826712050E-006
  0.12009999999999998         -9.1141746452194639E-006
  0.12120000000000003         -9.7333759185858071E-006
  0.12230000000000002         -1.0316511179553345E-005
  0.12340000000000001         -1.0845365068234969E-005
  0.12450000000000000         -1.1316183190501761E-005
  0.12559999999999999         -1.1745719348255079E-005
  0.12670000000000003         -1.2153729585406836E-005
  0.12780000000000002         -1.2541338946903124E-005
  0.12890000000000001         -1.2888902347185649E-005
  0.13000000000000000         -1.3174652849556878E-005
  0.13109999999999999         -1.3397026123129763E-005
  0.13219999999999998         -1.3577693607658148E-005
  0.13330000000000003         -1.3741941074840724E-005
  0.13440000000000002         -1.3896387827116996E-005
  0.13550000000000001         -1.4026199096406344E-005
  0.13660000000000000         -1.4113287761574611E-005
  0.13769999999999999         -1.4156481483951211E-005
  0.13880000000000003         -1.4174062926031183E-005
  0.13990000000000002         -1.4185779946274124E-005
  0.14100000000000001         -1.4192014532454778E-005
  0.14210000000000000         -1.4172534974932205E-005
  0.14319999999999999         -1.4106532034929842E-005
  0.14429999999999998         -1.3994714208820369E-005
  0.14540000000000003         -1.3860755643690936E-005
  0.14650000000000002         -1.3729144484386779E-005
  0.14760000000000001         -1.3602389117295388E-005
  0.14870000000000000         -1.3461278285831213E-005
  0.14979999999999999         -1.3287328329170123E-005
  0.15090000000000003         -1.3084171769150998E-005
  0.15200000000000002         -1.2875248103227932E-005
  0.15310000000000001         -1.2680337022175081E-005
  0.15420000000000000         -1.2495373994170222E-005
  0.15529999999999999         -1.2295530723349657E-005
  0.15639999999999998         -1.2060670087521430E-005
  0.15750000000000003         -1.1796853868872859E-005
  0.15860000000000002         -1.1530720257724170E-005
  0.15970000000000001         -1.1283274034212809E-005
  0.16080000000000000         -1.1049203749280423E-005
  0.16189999999999999         -1.0803603800013661E-005
  0.16300000000000003         -1.0530058716540225E-005
  0.16410000000000002         -1.0240137271466665E-005
  0.16520000000000001         -9.9640965345315635E-006
  0.16630000000000000         -9.7201555036008358E-006
  0.16739999999999999         -9.4950873972265981E-006
  0.16850000000000004         -9.2571981440414675E-006
  0.16960000000000003         -8.9873065007850528E-006
  0.17070000000000002         -8.6979935076669790E-006
  0.17180000000000001         -8.4212215369916521E-006
  0.17290000000000000         -8.1754997154348530E-006
  0.17399999999999999         -7.9466572060482576E-006
  0.17510000000000003         -7.7036374932504259E-006
  0.17620000000000002         -7.4320137173344847E-006
  0.17730000000000001         -7.1509225563204382E-006
  0.17840000000000000         -6.8948902480769902E-006
  0.17949999999999999         -6.6795710154110566E-006
  0.18060000000000004         -6.4857363213377539E-006
  0.18170000000000003         -6.2779668041912373E-006
  0.18280000000000002         -6.0404513533285353E-006
  0.18390000000000001         -5.7911452131520491E-006
  0.18500000000000000         -5.5611053539905697E-006
  0.18609999999999999         -5.3610124268743675E-006
  0.18720000000000003         -5.1706929298234172E-006
  0.18830000000000002         -4.9617433433013503E-006
  0.18940000000000001         -4.7287749112001620E-006
  0.19050000000000000         -4.4967018766328692E-006
  0.19159999999999999         -4.2966385080944747E-006
  0.19270000000000004         -4.1341031646879856E-006
  0.19380000000000003         -3.9825167732487898E-006
  0.19490000000000002         -3.8105260955489939E-006
  0.19600000000000001         -3.6131523302174173E-006
  0.19710000000000000         -3.4138670343963895E-006
  0.19819999999999999         -3.2375241971749347E-006
  0.19930000000000003         -3.0827770842734026E-006
  0.20040000000000002         -2.9240950425446499E-006
  0.20150000000000001         -2.7414100713940570E-006
  0.20260000000000000         -2.5437695967411855E-006
  0.20369999999999999         -2.3619500097993296E-006
  0.20480000000000004         -2.2167355382407550E-006
  0.20590000000000003         -2.0957825199729996E-006
  0.20700000000000002         -1.9639242054836359E-006
  0.20810000000000001         -1.7986476450460032E-006
  0.20920000000000000         -1.6129430377986864E-006
  0.21029999999999999         -1.4410082940230495E-006
  0.21140000000000003         -1.3036017207923578E-006
  0.21250000000000002         -1.1861935718116001E-006
  0.21360000000000001         -1.0535713954595849E-006
  0.21470000000000000         -8.8759071559252334E-007
  0.21579999999999999         -7.0574537858192343E-007
  0.21690000000000004         -5.4282025985230575E-007
  0.21800000000000003         -4.1503199099679478E-007
  0.21910000000000002         -3.0288157404356753E-007
  0.22020000000000001         -1.7178314237753511E-007
  0.22130000000000000         -7.7618951266344993E-009
  0.22239999999999999          1.6889734411051904E-007
  0.22350000000000003          3.2500520319445059E-007
  0.22460000000000002          4.4869352677778807E-007
  0.22570000000000001          5.6111446156137390E-007
  0.22680000000000000          6.9422208071046043E-007
  0.22789999999999999          8.5788525439056684E-007
  0.22900000000000004          1.0310512834621477E-006
  0.23010000000000003          1.1857030131068313E-006
  0.23120000000000002          1.3162185723558650E-006
  0.23230000000000001          1.4430260080189328E-006
  0.23340000000000000          1.5890580016275635E-006
  0.23450000000000004          1.7548337609696318E-006
  0.23560000000000003          1.9181427433068166E-006
  0.23670000000000002          2.0589627638400998E-006
  0.23780000000000001          2.1821915652253665E-006
  0.23890000000000000          2.3125221559894271E-006
  0.23999999999999999          2.4675418899278156E-006
  0.24110000000000004          2.6387963316665264E-006
  0.24220000000000003          2.8005877084069652E-006
  0.24330000000000002          2.9380021260294598E-006
  0.24440000000000001          3.0631385925516952E-006
  0.24550000000000000          3.2021046081354143E-006
  0.24660000000000004          3.3669771255517844E-006
  0.24770000000000003          3.5419195683061844E-006
  0.24880000000000002          3.6984631606173934E-006
  0.24990000000000001          3.8255789149843622E-006
  0.25100000000000000          3.9424598980986048E-006
  0.25209999999999999          4.0787581383483484E-006
  0.25320000000000004          4.2436722651473247E-006
  0.25430000000000003          4.4168523345433641E-006
  0.25540000000000002          4.5687152123718988E-006
  0.25650000000000001          4.6909335651434958E-006
  0.25760000000000000          4.8055508159450255E-006
  0.25870000000000004          4.9416325964557473E-006
  0.25980000000000003          5.1055603762506507E-006
  0.26090000000000002          5.2752729970961809E-006
  0.26200000000000001          5.4229644774750341E-006
  0.26310000000000000          5.5422206060029566E-006
  0.26419999999999999          5.6526323533034883E-006
  0.26530000000000004          5.7778011068876367E-006
  0.26640000000000003          5.9212793530605268E-006
  0.26750000000000002          6.0654733715637121E-006
  0.26860000000000001          6.1927025853947271E-006
  0.26970000000000000          6.3035799939825665E-006
  0.27080000000000004          6.4143459894694388E-006
  0.27190000000000003          6.5380822888982948E-006
  0.27300000000000002          6.6708221311273519E-006
  0.27410000000000001          6.7973273871757556E-006
  0.27520000000000000          6.9088650889170822E-006
  0.27629999999999999          7.0125292950251605E-006
  0.27740000000000004          7.1210633905138820E-006
  0.27850000000000003          7.2361181082669646E-006
  0.27960000000000002          7.3444271038169973E-006
  0.28070000000000001          7.4329745984869078E-006
  0.28179999999999999          7.5064590419060551E-006
  0.28290000000000004          7.5843377089768182E-006
  0.28400000000000003          7.6807900768471882E-006
  0.28510000000000002          7.7893073466839269E-006
  0.28620000000000001          7.8874491009628400E-006
  0.28730000000000000          7.9592646216042340E-006
  0.28840000000000005          8.0124164014705457E-006
  0.28950000000000004          8.0697454905021004E-006
  0.29060000000000002          8.1454018072690815E-006
  0.29170000000000001          8.2292581282672472E-006
  0.29280000000000000          8.2972383097512648E-006
  0.29389999999999999          8.3370450738584623E-006
  0.29500000000000004          8.3605928011820652E-006
  0.29610000000000003          8.3912309492006898E-006
  0.29720000000000002          8.4398134276852943E-006
  0.29830000000000001          8.4947396317147650E-006
  0.29940000000000000          8.5355377450468950E-006
  0.30050000000000004          8.5545116235152818E-006
  0.30160000000000003          8.5626361396862194E-006
  0.30270000000000002          8.5753135863342322E-006
  0.30380000000000001          8.5942101577529684E-006
  0.30490000000000000          8.6062018453958444E-006
  0.30599999999999999          8.6004365584813058E-006
  0.30709999999999998          8.5822512119193561E-006
  0.30819999999999997          8.5669034888269380E-006
  0.30930000000000007          8.5604260675609112E-006
  0.31040000000000006          8.5502242654911242E-006
  0.31150000000000005          8.5175179265206680E-006
  0.31260000000000004          8.4604243966168724E-006
  0.31370000000000003          8.3998938862350769E-006
  0.31480000000000002          8.3590839494718239E-006
  0.31590000000000001          8.3375280155451037E-006
  0.31700000000000000          8.3083050412824377E-006
  0.31809999999999999          8.2439992183935829E-006
  0.31919999999999998          8.1454663813929074E-006
  0.32029999999999997          8.0430245361640118E-006
  0.32140000000000007          7.9652545537101105E-006
  0.32250000000000006          7.9075389294303022E-006
  0.32360000000000005          7.8351577030844055E-006
  0.32470000000000004          7.7194335972308181E-006
  0.32580000000000003          7.5696525527746417E-006
  0.32690000000000002          7.4261070039938204E-006
  0.32800000000000001          7.3191895353375003E-006
  0.32910000000000000          7.2373431976302527E-006
  0.33019999999999999          7.1380941335519310E-006
  0.33129999999999998          6.9914672167215031E-006
  0.33239999999999997          6.8106246544630267E-006
  0.33350000000000007          6.6371344473736826E-006
  0.33460000000000006          6.4953933360811789E-006
  0.33570000000000005          6.3655979829491116E-006
  0.33680000000000004          6.2061462813289836E-006
  0.33790000000000003          5.9993562899762765E-006
  0.33900000000000002          5.7729757827473804E-006
  0.34010000000000001          5.5731375141476747E-006
  0.34120000000000000          5.4144857131177559E-006
  0.34229999999999999          5.2631562539318111E-006
  0.34339999999999998          5.0714161261566915E-006
  0.34449999999999997          4.8288425205100793E-006
  0.34560000000000007          4.5741917347186245E-006
  0.34670000000000006          4.3534687392821070E-006
  0.34780000000000005          4.1691159822221380E-006
  0.34890000000000004          3.9748306335241068E-006
