 -0.20000000000000001          0.0000000000000000
 -0.19890000000000002          0.0000000000000000
 -0.19780000000000000          0.0000000000000000
 -0.19670000000000001          0.0000000000000000
 -0.19560000000000002          0.0000000000000000
 -0.19450000000000001          0.0000000000000000
 -0.19340000000000002          0.0000000000000000
 -0.19230000000000000          0.0000000000000000
 -0.19120000000000001          0.0000000000000000
 -0.19010000000000002          0.0000000000000000
 -0.18900000000000000          0.0000000000000000
 -0.18790000000000001          2.2291323477062747E-039
 -0.18680000000000002         -3.1766023677391564E-038
 -0.18570000000000000          1.3769893215058713E-036
 -0.18460000000000001          3.4749206499658123E-036
 -0.18350000000000000         -1.1644263798732152E-035
 -0.18240000000000001          8.0316242710939311E-035
 -0.18130000000000002          8.2885374006326472E-034
 -0.18020000000000000          8.5624312577940866E-034
 -0.17910000000000001         -8.8694479743678055E-033
 -0.17800000000000002         -2.5441979489967172E-032
 -0.17690000000000000          4.6567479071525609E-032
 -0.17580000000000001          3.3620974555693407E-031
 -0.17470000000000002          2.7660764456204992E-031
 -0.17360000000000000         -2.1156116624969389E-030
 -0.17250000000000001         -6.4975670294244416E-030
 -0.17140000000000000          6.2079643418338253E-031
 -0.17030000000000001          4.2492707179739169E-029
 -0.16920000000000002          8.6535053703918764E-029
 -0.16810000000000000         -5.3672706432782768E-029
 -0.16700000000000001         -5.6868613841798391E-028
 -0.16589999999999999         -9.2563033873918526E-028
 -0.16480000000000000          7.6628919886578784E-028
 -0.16370000000000001          5.7791013914538353E-027
 -0.16260000000000002          8.5998873362953900E-027
 -0.16150000000000000         -6.3661491052203640E-027
 -0.16040000000000001         -4.7266869111419433E-026
 -0.15930000000000000         -7.1161077663087092E-026
 -0.15820000000000001          3.2148510100230114E-026
 -0.15710000000000002          3.1906948565099797E-025
 -0.15600000000000000          5.2168145732028759E-025
 -0.15490000000000001         -4.3518867691197965E-026
 -0.15379999999999999         -1.7867924328613905E-024
 -0.15270000000000000         -3.3420608953581085E-024
 -0.15160000000000001         -9.5992963264555378E-025
 -0.15050000000000002          8.1899618066135968E-024
 -0.14940000000000001          1.8480019648775709E-023
 -0.14830000000000002          1.1756724603228027E-023
 -0.14720000000000000         -2.9320713446834760E-023
 -0.14610000000000001         -8.7217080148184758E-023
 -0.14500000000000002         -8.4980867741162168E-023
 -0.14390000000000000          6.9523725215869926E-023
 -0.14280000000000001          3.4596983105679082E-022
 -0.14169999999999999          4.6299597057290921E-022
 -0.14060000000000000         -1.5212822639399206E-024
 -0.13950000000000001         -1.1185925457256947E-021
 -0.13840000000000002         -2.0258063156658873E-021
 -0.13730000000000001         -1.0591981100772246E-021
 -0.13619999999999999          2.7195640686631754E-021
 -0.13510000000000000          7.2388013277064616E-021
 -0.13400000000000001          6.8882011481932876E-021
 -0.13290000000000002         -3.4939923281719491E-021
 -0.13180000000000000         -2.0858239640512564E-020
 -0.13070000000000001         -2.9282112905020485E-020
 -0.12959999999999999         -8.0607248197258027E-021
 -0.12850000000000000          4.5578013643189817E-020
 -0.12740000000000001          9.5108923100965950E-020
 -0.12630000000000002          7.3990801729682551E-020
 -0.12520000000000001         -5.8082031211710840E-020
 -0.12410000000000000         -2.4122732161760096E-019
 -0.12300000000000001         -3.0069964310620884E-019
 -0.12190000000000001         -5.9711027718814781E-020
 -0.12080000000000000          4.5219689341589502E-019
 -0.11970000000000000          8.6779848935183155E-019
 -0.11860000000000001          6.4214987380074803E-019
 -0.11750000000000001         -4.6254921387836102E-019
 -0.11640000000000000         -1.8848122961972569E-018
 -0.11530000000000000         -2.3149358749671744E-018
 -0.11420000000000001         -6.0600756110373888E-019
 -0.11310000000000001          2.8832803001189371E-018
 -0.11200000000000000          5.6926863405016821E-018
 -0.11090000000000001          4.5189137425664856E-018
 -0.10980000000000001         -1.8774729294172270E-018
 -0.10870000000000000         -1.0189368776925193E-017
 -0.10760000000000000         -1.3316121418542988E-017
 -0.10650000000000001         -5.3682648634874658E-018
 -0.10540000000000001          1.1870376798284031E-017
 -0.10430000000000000          2.6742851774235341E-017
 -0.10320000000000000          2.4093226836105483E-017
 -0.10210000000000001         -1.9006970590904190E-018
 -0.10100000000000001         -3.7901693599865546E-017
  -9.9900000000000003E-002    -5.5421465000522378E-017
  -9.8799999999999999E-002    -3.0858346636927571E-017
  -9.7700000000000009E-002     3.0688337859990773E-017
  -9.6600000000000005E-002     8.8697180803187168E-017
  -9.5500000000000002E-002     9.0577249838956893E-017
  -9.4400000000000012E-002     1.4810602693312956E-017
  -9.3300000000000008E-002    -9.8674103956209754E-017
  -9.2200000000000004E-002    -1.6328247506776247E-016
  -9.1100000000000000E-002    -1.0764767687854022E-016
  -9.0000000000000011E-002     5.6022640017391217E-017
  -8.8900000000000007E-002     2.1699471360750938E-016
  -8.7800000000000003E-002     2.3466293414961743E-016
  -8.6699999999999999E-002     5.4444650723880957E-017
  -8.5600000000000009E-002    -2.1919993741590635E-016
  -8.4500000000000006E-002    -3.7064308887276064E-016
  -8.3400000000000002E-002    -2.3360710758086494E-016
  -8.2299999999999998E-002     1.4742951230606939E-016
  -8.1200000000000008E-002     4.9874459310679758E-016
  -8.0100000000000005E-002     4.9763153887454623E-016
  -7.9000000000000001E-002     4.5514924991460704E-017
  -7.7899999999999997E-002    -5.8278656685865882E-016
  -7.6800000000000007E-002    -8.7852335583216948E-016
  -7.5700000000000003E-002    -4.8148137342748530E-016
  -7.4600000000000000E-002     4.6468296307797881E-016
  -7.3500000000000010E-002     1.2997881511877217E-015
  -7.2399999999999992E-002     1.2757696849353788E-015
  -7.1300000000000002E-002     1.7044255045002148E-016
  -7.0200000000000012E-002    -1.3899566083679549E-015
  -6.9099999999999995E-002    -2.2419083818260794E-015
  -6.8000000000000005E-002    -1.5173804333046292E-015
  -6.6900000000000015E-002     5.7603163792298339E-016
  -6.5799999999999997E-002     2.6846270923674845E-015
  -6.4700000000000008E-002     3.1579222099971122E-015
  -6.3599999999999990E-002     1.3132683629059187E-015
  -6.2500000000000000E-002    -1.8322459790842205E-015
  -6.1400000000000010E-002    -4.0613455286819203E-015
  -6.0299999999999992E-002    -3.5137503749850399E-015
  -5.9200000000000003E-002    -2.3044740998981038E-016
  -5.8100000000000013E-002     3.5721378383469365E-015
  -5.6999999999999995E-002     4.9444298922372582E-015
  -5.5900000000000005E-002     2.4825703474152866E-015
  -5.4800000000000015E-002    -2.2797533903929279E-015
  -5.3699999999999998E-002    -5.6663971542800402E-015
  -5.2600000000000008E-002    -4.5668408155596571E-015
  -5.1499999999999990E-002     8.5003938482146107E-016
  -5.0400000000000000E-002     6.6754209175319892E-015
  -4.9300000000000010E-002     7.8547381137305736E-015
  -4.8199999999999993E-002     2.2464319612808909E-015
  -4.7100000000000003E-002    -6.9611742585518055E-015
  -4.6000000000000013E-002    -1.2804442056613911E-014
  -4.4899999999999995E-002    -9.5508148644559560E-015
  -4.3800000000000006E-002     2.3102016837478782E-015
  -4.2699999999999988E-002     1.5193248609625225E-014
  -4.1599999999999998E-002     1.9146229401716640E-014
  -4.0500000000000008E-002     9.3695252497880653E-015
  -3.9399999999999991E-002    -9.0484650344278481E-015
  -3.8300000000000001E-002    -2.3463303918053527E-014
  -3.7200000000000011E-002    -2.2385229181908460E-014
  -3.6099999999999993E-002    -4.6484740393677639E-015
  -3.5000000000000003E-002     1.8184924933614156E-014
  -3.3900000000000013E-002     2.9118844651048609E-014
  -3.2799999999999996E-002     1.8350274235247668E-014
  -3.1700000000000006E-002    -8.0287195281295541E-015
  -3.0599999999999988E-002    -3.0727167094372551E-014
  -2.9499999999999998E-002    -3.0814082839156209E-014
  -2.8400000000000009E-002    -4.8832647960830779E-015
  -2.7299999999999991E-002     3.0007548231176032E-014
  -2.6200000000000001E-002     4.6974512631471968E-014
  -2.5100000000000011E-002     2.9248667696808381E-014
  -2.3999999999999994E-002    -1.5085707612575924E-014
  -2.2900000000000004E-002    -5.5909226223281247E-014
  -2.1800000000000014E-002    -6.1579491777031398E-014
  -2.0699999999999996E-002    -2.3333311465704304E-014
  -1.9600000000000006E-002     3.5093134046490851E-014
  -1.8499999999999989E-002     7.2064736448239353E-014
  -1.7399999999999999E-002     5.8433618187192504E-014
  -1.6300000000000009E-002     1.7494925542033699E-015
  -1.5199999999999991E-002    -5.5617989190960906E-014
  -1.4100000000000001E-002    -6.6333772513488959E-014
  -1.3000000000000012E-002    -1.5942583082677320E-014
  -1.1899999999999994E-002     6.0308549332862421E-014
  -1.0800000000000004E-002     9.8108743080537603E-014
  -9.6999999999999864E-003     5.1479938476158005E-014
  -8.5999999999999965E-003    -6.6203403978511155E-014
  -7.5000000000000067E-003    -1.8044310349293186E-013
  -6.3999999999999890E-003    -2.0041048898536418E-013
  -5.2999999999999992E-003    -8.3343901712776974E-014
  -4.2000000000000093E-003     1.2633332422719301E-013
  -3.0999999999999917E-003     3.1439453362751280E-013
  -2.0000000000000018E-003     3.6390980289943697E-013
  -9.0000000000001190E-004     2.2920711552701367E-013
   2.0000000000000573E-004    -3.3400460674147536E-014
   1.2999999999999956E-003    -2.9949437027609882E-013
   2.4000000000000132E-003    -4.5126605902577610E-013
   3.5000000000000031E-003    -4.4076260653433397E-013
   4.5999999999999930E-003    -2.9943641966997947E-013
   5.7000000000000106E-003    -9.3768661455287394E-014
   6.8000000000000005E-003     1.3122069078032317E-013
   7.8999999999999904E-003     3.7019912417675382E-013
   9.0000000000000080E-003     6.2067663291962005E-013
   1.0099999999999998E-002     8.2502803417164317E-013
   1.1199999999999988E-002     8.5201794621306282E-013
   1.2300000000000005E-002     5.5549092886283957E-013
   1.3399999999999995E-002    -1.1250884528494695E-013
   1.4500000000000013E-002    -1.0104549575534749E-012
   1.5600000000000003E-002    -1.8163820057412461E-012
   1.6699999999999993E-002    -2.1571956460714192E-012
   1.7800000000000010E-002    -1.7955271601130529E-012
   1.8900000000000000E-002    -7.6365319233093198E-013
   1.9999999999999990E-002     6.4051249113600273E-013
   2.1100000000000008E-002     1.9947329378544598E-012
   2.2199999999999998E-002     2.9429340908659896E-012
   2.3300000000000015E-002     3.3195900455557092E-012
   2.4400000000000005E-002     3.1456725245460060E-012
   2.5499999999999995E-002     2.5273231857997347E-012
   2.6600000000000013E-002     1.5517930907274491E-012
   2.7700000000000002E-002     2.6042462999455174E-013
   2.8799999999999992E-002    -1.3013473762132910E-012
   2.9900000000000010E-002    -3.0349550997343933E-012
   3.1000000000000000E-002    -4.8257222870495831E-012
   3.2099999999999990E-002    -6.6732279424552843E-012
   3.3200000000000007E-002    -8.8178101972924416E-012
   3.4299999999999997E-002    -1.1725240570137352E-011
   3.5400000000000015E-002    -1.5865527641656385E-011
   3.6500000000000005E-002    -2.1373706624028266E-011
   3.7599999999999995E-002    -2.7802572744040077E-011
   3.8700000000000012E-002    -3.4166700718651910E-011
   3.9800000000000002E-002    -3.9317462480203957E-011
   4.0899999999999992E-002    -4.2475047784540365E-011
   4.2000000000000010E-002    -4.3623125944858288E-011
   4.3099999999999999E-002    -4.3539300637052136E-011
   4.4200000000000017E-002    -4.3455825743388132E-011
   4.5300000000000007E-002    -4.4572779495100079E-011
   4.6399999999999997E-002    -4.7718894807813328E-011
   4.7500000000000014E-002    -5.3320018539304570E-011
   4.8600000000000004E-002    -6.1589330857536595E-011
   4.9699999999999994E-002    -7.2683414842344973E-011
   5.0800000000000012E-002    -8.6610760230421135E-011
   5.1900000000000002E-002    -1.0291388574668048E-010
   5.2999999999999992E-002    -1.2039923225071192E-010
   5.4099999999999981E-002    -1.3725355574312204E-010
   5.5200000000000027E-002    -1.5167898881340847E-010
   5.6300000000000017E-002    -1.6281716253008227E-010
   5.7400000000000007E-002    -1.7146233044496029E-010
   5.8499999999999996E-002    -1.8009362057203049E-010
   5.9599999999999986E-002    -1.9210226465116165E-010
   6.0700000000000032E-002    -2.1054806509379631E-010
   6.1800000000000022E-002    -2.3705806762031045E-010
   6.2900000000000011E-002    -2.7139798741693255E-010
   6.4000000000000001E-002    -3.1185481974560503E-010
   6.5099999999999991E-002    -3.5612685023167501E-010
   6.6199999999999981E-002    -4.0220149433167762E-010
   6.7300000000000026E-002    -4.4883441407961300E-010
   6.8400000000000016E-002    -4.9559134573939900E-010
   6.9500000000000006E-002    -5.4271204197320344E-010
   7.0599999999999996E-002    -5.9108995476009341E-010
   7.1699999999999986E-002    -6.4242661190760941E-010
   7.2800000000000031E-002    -6.9932792889915163E-010
   7.3900000000000021E-002    -7.6501605050793842E-010
   7.5000000000000011E-002    -8.4253987120419538E-010
   7.6100000000000001E-002    -9.3375362997250022E-010
   7.7199999999999991E-002    -1.0386072002432911E-009
   7.8299999999999981E-002    -1.1552289125305037E-009
   7.9400000000000026E-002    -1.2808757388071967E-009
   8.0500000000000016E-002    -1.4133263448457001E-009
   8.1600000000000006E-002    -1.5520258411783061E-009
   8.2699999999999996E-002    -1.6984325057478600E-009
   8.3799999999999986E-002    -1.8554828784544952E-009
   8.4900000000000031E-002    -2.0265757960657993E-009
   8.6000000000000021E-002    -2.2146813272172494E-009
   8.7100000000000011E-002    -2.4219923844270852E-009
   8.8200000000000001E-002    -2.6501314476234938E-009
   8.9299999999999990E-002    -2.9005731150277825E-009
   9.0399999999999980E-002    -3.1748914608442647E-009
   9.1500000000000026E-002    -3.4746538979391062E-009
   9.2600000000000016E-002    -3.8011069847243562E-009
   9.3700000000000006E-002    -4.1549643725602436E-009
   9.4799999999999995E-002    -4.5365382561612932E-009
   9.5899999999999985E-002    -4.9462132167832351E-009
   9.7000000000000031E-002    -5.3850537362620798E-009
   9.8100000000000021E-002    -5.8552735993089300E-009
   9.9200000000000010E-002    -6.3604059796773527E-009
  0.10030000000000000         -6.9051484530291418E-009
  0.10139999999999999         -7.4949522144152070E-009
  0.10249999999999998         -8.1354265546451643E-009
  0.10360000000000003         -8.8316305379976257E-009
  0.10470000000000002         -9.5873859962125607E-009
  0.10580000000000001         -1.0404840544708804E-008
  0.10690000000000000         -1.1284591927562815E-008
  0.10799999999999998         -1.2226508694368476E-008
  0.10910000000000003         -1.3231120199463930E-008
  0.11020000000000002         -1.4301076767253562E-008
  0.11130000000000001         -1.5442012113453529E-008
  0.11240000000000000         -1.6662344393125750E-008
  0.11349999999999999         -1.7971999000110372E-008
  0.11460000000000004         -1.9380573590410677E-008
  0.11570000000000003         -2.0895747354643390E-008
  0.11680000000000001         -2.2522607778796555E-008
  0.11790000000000000         -2.4264107167937254E-008
  0.11899999999999999         -2.6122332741351784E-008
  0.12009999999999998         -2.8099993443220228E-008
  0.12120000000000003         -3.0201519507500052E-008
  0.12230000000000002         -3.2433572272339006E-008
  0.12340000000000001         -3.4805015758365698E-008
  0.12450000000000000         -3.7326476132193420E-008
  0.12559999999999999         -4.0009695112530608E-008
  0.12670000000000003         -4.2866656002615855E-008
  0.12780000000000002         -4.5908528534255311E-008
  0.12890000000000001         -4.9144713187843081E-008
  0.13000000000000000         -5.2582318943450446E-008
  0.13109999999999999         -5.6226578948326278E-008
  0.13219999999999998         -6.0082129493821412E-008
  0.13330000000000003         -6.4154839662933227E-008
  0.13440000000000002         -6.8453324786332814E-008
  0.13550000000000001         -7.2989514876553585E-008
  0.13660000000000000         -7.7777983165105979E-008
  0.13769999999999999         -8.2834461068159726E-008
  0.13880000000000003         -8.8174132883978018E-008
  0.13990000000000002         -9.3810484713685582E-008
  0.14100000000000001         -9.9754984717037587E-008
  0.14210000000000000         -1.0601755917605260E-007
  0.14319999999999999         -1.1260748067343229E-007
  0.14429999999999998         -1.1953424916555377E-007
  0.14540000000000003         -1.2680834515776951E-007
  0.14650000000000002         -1.3444147839436482E-007
  0.14760000000000001         -1.4244662338569469E-007
  0.14870000000000000         -1.5083787729963660E-007
  0.14979999999999999         -1.5963011890107737E-007
  0.15090000000000003         -1.6883852538285282E-007
  0.15200000000000002         -1.7847800393155921E-007
  0.15310000000000001         -1.8856259487165516E-007
  0.15420000000000000         -1.9910518744836736E-007
  0.15529999999999999         -2.1011742035170755E-007
  0.15639999999999998         -2.2161015067467815E-007
  0.15750000000000003         -2.3359406498002500E-007
  0.15860000000000002         -2.4608041826468252E-007
  0.15970000000000001         -2.5908164502652653E-007
  0.16080000000000000         -2.7261145874035719E-007
  0.16189999999999999         -2.8668452500824060E-007
  0.16300000000000003         -3.0131556627566169E-007
  0.16410000000000002         -3.1651839549340366E-007
  0.16520000000000001         -3.3230506346626498E-007
  0.16630000000000000         -3.4868551779254631E-007
  0.16739999999999999         -3.6566794392456359E-007
  0.16850000000000004         -3.8325973150676873E-007
  0.16960000000000003         -4.0146829860532307E-007
  0.17070000000000002         -4.2030202962450858E-007
  0.17180000000000001         -4.3977053110211273E-007
  0.17290000000000000         -4.5988403485353047E-007
  0.17399999999999999         -4.8065226110338699E-007
  0.17510000000000003         -5.0208365109938313E-007
  0.17620000000000002         -5.2418454288272187E-007
  0.17730000000000001         -5.4695937024007435E-007
  0.17840000000000000         -5.7041103218580247E-007
  0.17949999999999999         -5.9454174561324180E-007
  0.18060000000000004         -6.1935332951179589E-007
  0.18170000000000003         -6.4484760287086829E-007
  0.18280000000000002         -6.7102632783644367E-007
  0.18390000000000001         -6.9789092549399356E-007
  0.18500000000000000         -7.2544241902505746E-007
  0.18609999999999999         -7.5368080842963536E-007
  0.18720000000000003         -7.8260461577883689E-007
  0.18830000000000002         -8.1220980518992292E-007
  0.18940000000000001         -8.4249006704339990E-007
  0.19050000000000000         -8.7343698851327645E-007
  0.19159999999999999         -9.0504147465253482E-007
  0.19270000000000004         -9.3729482841808931E-007
  0.19380000000000003         -9.7018937594839372E-007
  0.19490000000000002         -1.0037172160082264E-006
  0.19600000000000001         -1.0378696515545016E-006
  0.19710000000000000         -1.0726355412771227E-006
  0.19819999999999999         -1.1080023796239402E-006
  0.19930000000000003         -1.1439556146797258E-006
  0.20040000000000002         -1.1804792166003608E-006
  0.20150000000000001         -1.2175561323601869E-006
  0.20260000000000000         -1.2551682857520063E-006
  0.20369999999999999         -1.2932969184475951E-006
  0.20480000000000004         -1.3319222489371896E-006
  0.20590000000000003         -1.3710243820241885E-006
  0.20700000000000002         -1.4105839909461793E-006
  0.20810000000000001         -1.4505807257592096E-006
  0.20920000000000000         -1.4909934407114633E-006
  0.21029999999999999         -1.5317992847485584E-006
  0.21140000000000003         -1.5729741562608979E-006
  0.21250000000000002         -1.6144924757099943E-006
  0.21360000000000001         -1.6563278677494964E-006
  0.21470000000000000         -1.6984529338515131E-006
  0.21579999999999999         -1.7408392523066141E-006
  0.21690000000000004         -1.7834590835263953E-006
  0.21800000000000003         -1.8262858247908298E-006
  0.21910000000000002         -1.8692945786824566E-006
  0.22020000000000001         -1.9124597656627884E-006
  0.22130000000000000         -1.9557546693249606E-006
  0.22239999999999999         -1.9991505268990295E-006
  0.22350000000000003         -2.0426182345545385E-006
  0.22460000000000002         -2.0861284610873554E-006
  0.22570000000000001         -2.1296532395354006E-006
  0.22680000000000000         -2.1731639208155684E-006
  0.22789999999999999         -2.2166304916027002E-006
  0.22900000000000004         -2.2600222564506112E-006
  0.23010000000000003         -2.3033098841551691E-006
  0.23120000000000002         -2.3464679088647244E-006
  0.23230000000000001         -2.3894726837170310E-006
  0.23340000000000000         -2.4323019260918954E-006
  0.23450000000000004         -2.4749313070060452E-006
  0.23560000000000003         -2.5173353606078308E-006
  0.23670000000000002         -2.5594870294298744E-006
  0.23780000000000001         -2.6013603928731754E-006
  0.23890000000000000         -2.6429306672071107E-006
  0.23999999999999999         -2.6841742055694340E-006
  0.24110000000000004         -2.7250694074609783E-006
  0.24220000000000003         -2.7655951271299273E-006
  0.24330000000000002         -2.8057331746822456E-006
  0.24440000000000001         -2.8454669518396258E-006
  0.24550000000000000         -2.8847823614341905E-006
  0.24660000000000004         -2.9236657610454131E-006
  0.24770000000000003         -2.9621023713843897E-006
  0.24880000000000002         -3.0000774131622165E-006
  0.24990000000000001         -3.0375747428479372E-006
  0.25100000000000000         -3.0745798085263232E-006
  0.25209999999999999         -3.1110796498978743E-006
  0.25320000000000004         -3.1470638077735202E-006
  0.25430000000000003         -3.1825236419535941E-006
  0.25540000000000002         -3.2174534680962097E-006
  0.25650000000000001         -3.2518503303435864E-006
  0.25760000000000000         -3.2857124097063206E-006
  0.25870000000000004         -3.3190392514370615E-006
  0.25980000000000003         -3.3518294912937563E-006
  0.26090000000000002         -3.3840819924080279E-006
  0.26200000000000001         -3.4157942536694463E-006
  0.26310000000000000         -3.4469660477043362E-006
  0.26419999999999999         -3.4775980566337239E-006
  0.26530000000000004         -3.5076934636890655E-006
  0.26640000000000003         -3.5372554521018174E-006
  0.26750000000000002         -3.5662894788401900E-006
  0.26860000000000001         -3.5948032746091485E-006
  0.26970000000000000         -3.6228082080924651E-006
  0.27080000000000004         -3.6503165574686136E-006
  0.27190000000000003         -3.6773392366740154E-006
  0.27300000000000002         -3.7038855680293636E-006
  0.27410000000000001         -3.7299646464816760E-006
  0.27520000000000000         -3.7555880680884002E-006
  0.27629999999999999         -3.7807699300174136E-006
  0.27740000000000004         -3.8055243294365937E-006
  0.27850000000000003         -3.8298639992717654E-006
  0.27960000000000002         -3.8538005355803762E-006
  0.28070000000000001         -3.8773459891672246E-006
  0.28179999999999999         -3.9005180951789953E-006
  0.28290000000000004         -3.9233395909832325E-006
  0.28400000000000003         -3.9458327592001297E-006
  0.28510000000000002         -3.9680157897237223E-006
  0.28620000000000001         -3.9899041439639404E-006
  0.28730000000000000         -4.0115101000992581E-006
  0.28840000000000005         -4.0328495742869563E-006
  0.28950000000000004         -4.0539416659157723E-006
  0.29060000000000002         -4.0748059291217942E-006
  0.29170000000000001         -4.0954619180411100E-006
  0.29280000000000000         -4.1159291868098080E-006
  0.29389999999999999         -4.1362245610798709E-006
  0.29500000000000004         -4.1563666854926851E-006
  0.29610000000000003         -4.1763746594369877E-006
  0.29720000000000002         -4.1962653085647617E-006
  0.29830000000000001         -4.2160563680226915E-006
  0.29940000000000000         -4.2357646634627599E-006
  0.30050000000000004         -4.2554102037684061E-006
  0.30160000000000003         -4.2750125430757180E-006
  0.30270000000000002         -4.2945903260260820E-006
  0.30380000000000001         -4.3141576497873757E-006
  0.30490000000000000         -4.3337267925380729E-006
  0.30599999999999999         -4.3533091229619458E-006
  0.30709999999999998         -4.3729187382268719E-006
  0.30819999999999997         -4.3925738282268867E-006
  0.30930000000000007         -4.4122957660874818E-006
  0.31040000000000006         -4.4321022869553417E-006
  0.31150000000000005         -4.4520074879983440E-006
  0.31260000000000004         -4.4720181904267520E-006
  0.31370000000000003         -4.4921398512087762E-006
  0.31480000000000002         -4.5123820200387854E-006
  0.31590000000000001         -4.5327583393373061E-006
  0.31700000000000000         -4.5532838157669175E-006
  0.31809999999999999         -4.5739702727587428E-006
  0.31919999999999998         -4.5948240767756943E-006
  0.32029999999999997         -4.6158506847859826E-006
  0.32140000000000007         -4.6370587369892746E-006
  0.32250000000000006         -4.6584582378272898E-006
  0.32360000000000005         -4.6800578274996951E-006
  0.32470000000000004         -4.7018643272167537E-006
  0.32580000000000003         -4.7238791012205184E-006
  0.32690000000000002         -4.7461044232477434E-006
  0.32800000000000001         -4.7685480240033939E-006
  0.32910000000000000         -4.7912167246977333E-006
  0.33019999999999999         -4.8141123443201650E-006
  0.33129999999999998         -4.8372307901445311E-006
  0.33239999999999997         -4.8605666052026208E-006
  0.33350000000000007         -4.8841188799997326E-006
  0.33460000000000006         -4.9078948904934805E-006
  0.33570000000000005         -4.9319046411255840E-006
  0.33680000000000004         -4.9561526793695521E-006
  0.33790000000000003         -4.9806335482571740E-006
  0.33900000000000002         -5.0053349696099758E-006
  0.34010000000000001         -5.0302455747441854E-006
  0.34120000000000000         -5.0553599066915922E-006
  0.34229999999999999         -5.0806806939363014E-006
  0.34339999999999998         -5.1062097554677166E-006
  0.34449999999999997         -5.1319439080543816E-006
  0.34560000000000007         -5.1578763304860331E-006
  0.34670000000000006         -5.1839988373103552E-006
  0.34780000000000005         -5.2103014240856282E-006
  0.34890000000000004         -5.2367749958648346E-006
