 -0.20000000000000001          0.0000000000000000
 -0.19890000000000002          0.0000000000000000
 -0.19780000000000000          0.0000000000000000
 -0.19670000000000001          0.0000000000000000
 -0.19560000000000002          0.0000000000000000
 -0.19450000000000001          0.0000000000000000
 -0.19340000000000002          0.0000000000000000
 -0.19230000000000000          0.0000000000000000
 -0.19120000000000001          1.9001828241680495E-020
 -0.19010000000000002         -6.8905618441133315E-019
 -0.18900000000000000         -1.1872917276740335E-018
 -0.18790000000000001          9.9265321372864680E-018
 -0.18680000000000002          1.1187961891914521E-017
 -0.18570000000000000         -1.6266261900393974E-016
 -0.18460000000000001         -4.5736782772681306E-016
 -0.18350000000000000          7.3973155464995442E-016
 -0.18240000000000001          5.5916278619600086E-015
 -0.18130000000000002          6.5634516322344433E-015
 -0.18020000000000000         -2.2926439189490701E-014
 -0.17910000000000001         -8.7658660441036068E-014
 -0.17800000000000002         -5.8583773411818169E-014
 -0.17690000000000000          3.2127715743866803E-013
 -0.17580000000000001          9.4202597111792130E-013
 -0.17470000000000002          5.2234236901094189E-013
 -0.17360000000000000         -2.8409913310767365E-012
 -0.17250000000000001         -7.7994668015723967E-012
 -0.17140000000000000         -5.0903920835454475E-012
 -0.17030000000000001          1.7479151806498727E-011
 -0.16920000000000002          5.1654899108077856E-011
 -0.16810000000000000          4.4321695619187196E-011
 -0.16700000000000001         -7.4724955390070846E-011
 -0.16589999999999999         -2.7597935048362388E-010
 -0.16480000000000000         -3.0966071373761395E-010
 -0.16370000000000001          1.8466381201953652E-010
 -0.16260000000000002          1.1807855804235601E-009
 -0.16150000000000000          1.7101524640850130E-009
 -0.16040000000000001          1.5578925649517572E-010
 -0.15930000000000000         -3.9310683597193474E-009
 -0.15820000000000001         -7.5092669860055139E-009
 -0.15710000000000002         -4.3503489699503461E-009
 -0.15600000000000000          9.3114920218795305E-009
 -0.15490000000000001          2.6201973923889454E-008
 -0.15379999999999999          2.6034015832010482E-008
 -0.15270000000000000         -9.8854533447934045E-009
 -0.15160000000000001         -7.1096870613018837E-008
 -0.15050000000000002         -1.0284253448844538E-007
 -0.14940000000000001         -3.5647374829750333E-008
 -0.14830000000000002          1.3870355530798406E-007
 -0.14720000000000000          3.0255469596340845E-007
 -0.14610000000000001          2.5066853481803264E-007
 -0.14500000000000002         -1.3307912638538255E-007
 -0.14390000000000000         -6.6872036086351727E-007
 -0.14280000000000001         -8.6799178689034306E-007
 -0.14169999999999999         -2.7011677161681291E-007
 -0.14060000000000000          1.0240607934974832E-006
 -0.13950000000000001          2.0956863409082871E-006
 -0.13840000000000002          1.6895779708647751E-006
 -0.13730000000000001         -6.5240323010584689E-007
 -0.13619999999999999         -3.6592011838365579E-006
 -0.13510000000000000         -4.7048411033756565E-006
 -0.13400000000000001         -1.7794690165828797E-006
 -0.13290000000000002          4.1936937122954987E-006
 -0.13180000000000000          8.9110699263983406E-006
 -0.13070000000000001          7.4161221164104063E-006
 -0.12959999999999999         -1.3663678828379489E-006
 -0.12850000000000000         -1.2063717804267071E-005
 -0.12740000000000001         -1.5570631148875691E-005
 -0.12630000000000002         -6.3645738919149153E-006
 -0.12520000000000001          1.1071306289522909E-005
 -0.12410000000000000          2.3267544747795910E-005
 -0.12300000000000001          1.7698073861538433E-005
 -0.12190000000000001         -5.1360857469262555E-006
 -0.12080000000000000         -2.8446871510823257E-005
 -0.11970000000000000         -3.0486080504488200E-005
 -0.11860000000000001         -3.8281150409602560E-006
 -0.11750000000000001          3.3589054510230199E-005
 -0.11640000000000000          4.8498492105863988E-005
 -0.11530000000000000          1.9653221897897311E-005
 -0.11420000000000001         -3.8684716855641454E-005
 -0.11310000000000001         -8.0144571256823838E-005
 -0.11200000000000000         -6.0284743085503578E-005
 -0.11090000000000001          2.2337564587360248E-005
 -0.10980000000000001          1.1356175673427060E-004
 -0.10870000000000000          1.3720280549023300E-004
 -0.10760000000000000          5.5234519095392898E-005
 -0.10650000000000001         -9.2074209533166140E-005
 -0.10540000000000001         -2.0381226204335690E-004
 -0.10430000000000000         -1.8872172222472727E-004
 -0.10320000000000000         -3.8184185541467741E-005
 -0.10210000000000001          1.5680503565818071E-004
 -0.10100000000000001          2.6445183902978897E-004
  -9.9900000000000003E-002     2.0742337801493704E-004
  -9.8799999999999999E-002     2.2784670363762416E-005
  -9.7700000000000009E-002    -1.6232696361839771E-004
  -9.6600000000000005E-002    -2.2475549485534430E-004
  -9.5500000000000002E-002    -1.3875521835871041E-004
  -9.4400000000000012E-002     5.0031876526190899E-006
  -9.3300000000000008E-002     7.4095143645536155E-005
  -9.2200000000000004E-002     8.5419960669241846E-006
  -9.1100000000000000E-002    -1.1622400779742748E-004
  -9.0000000000000011E-002    -1.3728493649978191E-004
  -8.8900000000000007E-002     5.8897250710288063E-005
  -8.7800000000000003E-002     4.0869828080758452E-004
  -8.6699999999999999E-002     6.6284544300287962E-004
  -8.5600000000000009E-002     5.3575419588014483E-004
  -8.4500000000000006E-002    -6.6164764575660229E-005
  -8.3400000000000002E-002    -8.9920021127909422E-004
  -8.2299999999999998E-002    -1.4585528988391161E-003
  -8.1200000000000008E-002    -1.2764898128807545E-003
  -8.0100000000000005E-002    -2.7006346499547362E-004
  -7.9000000000000001E-002     1.1129715712741017E-003
  -7.7899999999999997E-002     2.1008772309869528E-003
  -7.6800000000000007E-002     2.0678839646279812E-003
  -7.5700000000000003E-002     9.6209760522469878E-004
  -7.4600000000000000E-002    -6.2615389470010996E-004
  -7.3500000000000010E-002    -1.8366053700447083E-003
  -7.2399999999999992E-002    -2.1027992479503155E-003
  -7.1300000000000002E-002    -1.4927150914445519E-003
  -7.0200000000000012E-002    -5.6734849931672215E-004
  -6.9099999999999995E-002     1.2215631431899965E-004
  -6.8000000000000005E-002     4.7538132639601827E-004
  -6.6900000000000015E-002     8.3828606875613332E-004
  -6.5799999999999997E-002     1.5474389074370265E-003
  -6.4700000000000008E-002     2.4280732031911612E-003
  -6.3599999999999990E-002     2.7361246757209301E-003
  -6.2500000000000000E-002     1.6871503321453929E-003
  -6.1400000000000010E-002    -7.9913088120520115E-004
  -6.0299999999999992E-002    -3.7573811132460833E-003
  -5.9200000000000003E-002    -5.6010470725595951E-003
  -5.8100000000000013E-002    -5.0925416871905327E-003
  -5.6999999999999995E-002    -2.1897293627262115E-003
  -5.5900000000000005E-002     1.8477617995813489E-003
  -5.4800000000000015E-002     5.1824743859469891E-003
  -5.3699999999999998E-002     6.4488658681511879E-003
  -5.2600000000000008E-002     5.4152971133589745E-003
  -5.1499999999999990E-002     2.8654171619564295E-003
  -5.0400000000000000E-002    -1.0648524767020717E-004
  -4.9300000000000010E-002    -2.7869581244885921E-003
  -4.8199999999999993E-002    -4.9923569895327091E-003
  -4.7100000000000003E-002    -6.6226674243807793E-003
  -4.6000000000000013E-002    -7.0912558585405350E-003
  -4.4899999999999995E-002    -5.2766148000955582E-003
  -4.3800000000000006E-002    -3.0017519020475447E-004
  -4.2699999999999988E-002     7.2435000911355019E-003
  -4.1599999999999998E-002     1.4538200572133064E-002
  -4.0500000000000008E-002     1.7186436802148819E-002
  -3.9399999999999991E-002     1.1373534798622131E-002
  -3.8300000000000001E-002    -3.4575003664940596E-003
  -3.7200000000000011E-002    -2.3171929642558098E-002
  -3.6099999999999993E-002    -4.0121018886566162E-002
  -3.5000000000000003E-002    -4.6777844429016113E-002
  -3.3900000000000013E-002    -3.9899315685033798E-002
  -3.2799999999999996E-002    -2.2572170943021774E-002
  -3.1700000000000006E-002    -2.6167926844209433E-003
  -3.0599999999999988E-002     1.1795117519795895E-002
  -2.9499999999999998E-002     1.6468252986669540E-002
  -2.8400000000000009E-002     1.2598820962011814E-002
  -2.7299999999999991E-002     4.5351819135248661E-003
  -2.6200000000000001E-002    -4.1416510939598083E-003
  -2.5100000000000011E-002    -1.3045348227024078E-002
  -2.3999999999999994E-002    -2.4062765762209892E-002
  -2.2900000000000004E-002    -3.8044825196266174E-002
  -2.1800000000000014E-002    -5.2119392901659012E-002
  -2.0699999999999996E-002    -6.0231808573007584E-002
  -1.9600000000000006E-002    -5.6948062032461166E-002
  -1.8499999999999989E-002    -4.1861295700073242E-002
  -1.7399999999999999E-002    -2.1248841658234596E-002
  -1.6300000000000009E-002    -5.4659480229020119E-003
  -1.5199999999999991E-002    -3.5203578881919384E-003
  -1.4100000000000001E-002    -1.8178077414631844E-002
  -1.3000000000000012E-002    -4.4565524905920029E-002
  -1.1899999999999994E-002    -7.2982117533683777E-002
  -1.0800000000000004E-002    -9.4129249453544617E-002
  -9.6999999999999864E-003   -0.10370500385761261
  -8.5999999999999965E-003   -0.10389322787523270
  -7.5000000000000067E-003   -0.10116124898195267
  -6.3999999999999890E-003   -0.10190905630588531
  -5.2999999999999992E-003   -0.10872267931699753
  -4.2000000000000093E-003   -0.11958526819944382
  -3.0999999999999917E-003   -0.13048379123210907
  -2.0000000000000018E-003   -0.13947258889675140
  -9.0000000000001190E-004   -0.14905141294002533
   2.0000000000000573E-004   -0.16476617753505707
   1.2999999999999956E-003   -0.19079278409481049
   2.4000000000000132E-003   -0.22585316002368927
   3.5000000000000031E-003   -0.26292702555656433
   4.5999999999999930E-003   -0.29347550868988037
   5.7000000000000106E-003   -0.31327161192893982
   6.8000000000000005E-003   -0.32546851038932800
   7.8999999999999904E-003   -0.33859497308731079
   9.0000000000000080E-003   -0.36111938953399658
   1.0099999999999998E-002   -0.39676734805107117
   1.1199999999999988E-002   -0.44374340772628784
   1.2300000000000005E-002   -0.49749892950057983
   1.3399999999999995E-002   -0.55391913652420044
   1.4500000000000013E-002   -0.61028856039047241
   1.5600000000000003E-002   -0.66431522369384766
   1.6699999999999993E-002   -0.71376013755798340
   1.7800000000000010E-002   -0.75842481851577759
   1.8900000000000000E-002   -0.80310529470443726
   1.9999999999999990E-002   -0.85800802707672119
   2.1100000000000008E-002   -0.93443530797958374
   2.2199999999999998E-002    -1.0376827716827393
   2.3300000000000015E-002    -1.1621359586715698
   2.4400000000000005E-002    -1.2928065061569214
   2.5499999999999995E-002    -1.4130811691284180
   2.6600000000000013E-002    -1.5140031576156616
   2.7700000000000002E-002    -1.5994912385940552
   2.8799999999999992E-002    -1.6846181154251099
   2.9900000000000010E-002    -1.7885680198669434
   3.1000000000000000E-002    -1.9261288642883301
   3.2099999999999990E-002    -2.1016843318939209
   3.3200000000000007E-002    -2.3077633380889893
   3.4299999999999997E-002    -2.5285055637359619
   3.5400000000000015E-002    -2.7468245029449463
   3.6500000000000005E-002    -2.9524667263031006
   3.7599999999999995E-002    -3.1470472812652588
   3.8700000000000012E-002    -3.3430962562561035
   3.9800000000000002E-002    -3.5572752952575684
   4.0899999999999992E-002    -3.8020331859588623
   4.2000000000000010E-002    -4.0811495780944824
   4.3099999999999999E-002    -4.3915147781372070
   4.4200000000000017E-002    -4.7283267974853516
   4.5300000000000007E-002    -5.0881557464599609
   4.6399999999999997E-002    -5.4674520492553711
   4.7500000000000014E-002    -5.8590636253356934
   4.8600000000000004E-002    -6.2529726028442383
   4.9699999999999994E-002    -6.6430983543395996
   5.0800000000000012E-002    -7.0356602668762207
   5.1900000000000002E-002    -7.4508967399597168
   5.2999999999999992E-002    -7.9140248298645020
   5.4099999999999981E-002    -8.4404973983764648
   5.5200000000000027E-002    -9.0263462066650391
   5.6300000000000017E-002    -9.6510200500488281
   5.7400000000000007E-002    -10.290960311889648
   5.8499999999999996E-002    -10.933288574218750
   5.9599999999999986E-002    -11.580550193786621
   6.0700000000000032E-002    -12.245132446289062
   6.1800000000000022E-002    -12.940056800842285
   6.2900000000000011E-002    -13.674205780029297
   6.4000000000000001E-002    -14.453137397766113
   6.5099999999999991E-002    -15.281186103820801
   6.6199999999999981E-002    -16.161083221435547
   6.7300000000000026E-002    -17.090614318847656
   6.8400000000000016E-002    -18.061565399169922
   6.9500000000000006E-002    -19.063179016113281
   7.0599999999999996E-002    -20.088933944702148
   7.1699999999999986E-002    -21.139953613281250
   7.2800000000000031E-002    -22.223163604736328
   7.3900000000000021E-002    -23.346374511718750
   7.5000000000000011E-002    -24.515848159790039
   7.6100000000000001E-002    -25.736474990844727
   7.7199999999999991E-002    -27.012908935546875
   7.8299999999999981E-002    -28.347200393676758
   7.9400000000000026E-002    -29.733947753906250
   8.0500000000000016E-002    -31.159902572631836
   8.1600000000000006E-002    -32.610847473144531
   8.2699999999999996E-002    -34.082523345947266
   8.3799999999999986E-002    -35.585456848144531
   8.4900000000000031E-002    -37.138675689697266
   8.6000000000000021E-002    -38.754676818847656
   8.7100000000000011E-002    -40.430023193359375
   8.8200000000000001E-002    -42.149513244628906
   8.9299999999999990E-002    -43.899490356445312
   9.0399999999999980E-002    -45.678710937500000
   9.1500000000000026E-002    -47.496139526367188
   9.2600000000000016E-002    -49.358814239501953
   9.3700000000000006E-002    -51.262664794921875
   9.4799999999999995E-002    -53.194812774658203
   9.5899999999999985E-002    -55.145664215087891
   9.7000000000000031E-002    -57.118591308593750
   9.8100000000000021E-002    -59.125888824462891
   9.9200000000000010E-002    -61.175544738769531
  0.10030000000000000         -63.262954711914062
  0.10139999999999999         -65.375068664550781
  0.10249999999999998         -67.501701354980469
  0.10360000000000003         -69.643669128417969
  0.10470000000000002         -71.804763793945312
  0.10580000000000001         -73.981170654296875
  0.10690000000000000         -76.158050537109375
  0.10799999999999998         -78.318878173828125
  0.10910000000000003         -80.460502624511719
  0.11020000000000002         -82.596763610839844
  0.11130000000000001         -84.746894836425781
  0.11240000000000000         -86.918395996093750
  0.11349999999999999         -89.097145080566406
  0.11460000000000004         -91.259216308593750
  0.11570000000000003         -93.385963439941406
  0.11680000000000001         -95.472351074218750
  0.11790000000000000         -97.520774841308594
  0.11899999999999999         -99.529518127441406
  0.12009999999999998         -101.48876953125000
  0.12120000000000003         -103.39183807373047
  0.12230000000000002         -105.24563598632812
  0.12340000000000001         -107.06349182128906
  0.12450000000000000         -108.85362243652344
  0.12559999999999999         -110.60301208496094
  0.12670000000000003         -112.28471374511719
  0.12780000000000002         -113.87416839599609
  0.12890000000000001         -115.36431884765625
  0.13000000000000000         -116.76393890380859
  0.13109999999999999         -118.07847595214844
  0.13219999999999998         -119.30015563964844
  0.13330000000000003         -120.41625213623047
  0.13440000000000002         -121.42176055908203
  0.13550000000000001         -122.33312225341797
  0.13660000000000000         -123.16645812988281
  0.13769999999999999         -123.92204284667969
  0.13880000000000003         -124.57369232177734
  0.13990000000000002         -125.08546447753906
  0.14100000000000001         -125.43825531005859
  0.14210000000000000         -125.64476013183594
  0.14319999999999999         -125.72716522216797
  0.14429999999999998         -125.69858551025391
  0.14540000000000003         -125.54504394531250
  0.14650000000000002         -125.24343872070312
  0.14760000000000001         -124.78519439697266
  0.14870000000000000         -124.18493652343750
  0.14979999999999999         -123.46486663818359
  0.15090000000000003         -122.62775421142578
  0.15200000000000002         -121.64939880371094
  0.15310000000000001         -120.50173950195312
  0.15420000000000000         -119.17378234863281
  0.15529999999999999         -117.68385314941406
  0.15639999999999998         -116.05800628662109
  0.15750000000000003         -114.30453491210938
  0.15860000000000002         -112.41271209716797
  0.15970000000000001         -110.36311340332031
  0.16080000000000000         -108.15850830078125
  0.16189999999999999         -105.81951904296875
  0.16300000000000003         -103.36443328857422
  0.16410000000000002         -100.79196929931641
  0.16520000000000001         -98.076377868652344
  0.16630000000000000         -95.194107055664062
  0.16739999999999999         -92.149917602539062
  0.16850000000000004         -88.974349975585938
  0.16960000000000003         -85.697547912597656
  0.17070000000000002         -82.328422546386719
  0.17180000000000001         -78.850654602050781
  0.17290000000000000         -75.251556396484375
  0.17399999999999999         -71.534889221191406
  0.17510000000000003         -67.724143981933594
  0.17620000000000002         -63.831043243408203
  0.17730000000000001         -59.849536895751953
  0.17840000000000000         -55.764343261718750
  0.17949999999999999         -51.575641632080078
  0.18060000000000004         -47.304157257080078
  0.18170000000000003         -42.978248596191406
  0.18280000000000002         -38.609428405761719
  0.18390000000000001         -34.190574645996094
  0.18500000000000000         -29.706399917602539
  0.18609999999999999         -25.163599014282227
  0.18720000000000003         -20.589609146118164
  0.18830000000000002         -16.010463714599609
  0.18940000000000001         -11.426315307617188
  0.19050000000000000         -6.8077569007873535
  0.19159999999999999         -2.1356658935546875
  0.19270000000000004          2.5818545818328857
  0.19380000000000003          7.2925605773925781
  0.19490000000000002          11.947155952453613
  0.19600000000000001          16.548770904541016
  0.19710000000000000          21.134914398193359
  0.19819999999999999          25.739660263061523
  0.19930000000000003          30.361778259277344
  0.20040000000000002          34.952465057373047
  0.20150000000000001          39.470035552978516
  0.20260000000000000          43.906326293945312
  0.20369999999999999          48.292087554931641
  0.20480000000000004          52.652069091796875
  0.20590000000000003          56.979633331298828
  0.20700000000000002          61.243846893310547
  0.20810000000000001          65.411857604980469
  0.20920000000000000          69.488334655761719
  0.21029999999999999          73.501335144042969
  0.21140000000000003          77.456192016601562
  0.21250000000000002          81.334930419921875
  0.21360000000000001          85.106353759765625
  0.21470000000000000          88.767097473144531
  0.21579999999999999          92.337097167968750
  0.21690000000000004          95.850746154785156
  0.21800000000000003          99.300971984863281
  0.21910000000000002          102.64683532714844
  0.22020000000000001          105.84634399414062
  0.22130000000000000          108.89408874511719
  0.22239999999999999          111.84239196777344
  0.22350000000000003          114.73924255371094
  0.22460000000000002          117.58513641357422
  0.22570000000000001          120.32581329345703
  0.22680000000000000          122.90435028076172
  0.22789999999999999          125.31738281250000
  0.22900000000000004          127.62414550781250
  0.23010000000000003          129.87380981445312
  0.23120000000000002          132.07331848144531
  0.23230000000000001          134.15927124023438
  0.23340000000000000          136.07723999023438
  0.23450000000000004          137.84762573242188
  0.23560000000000003          139.52531433105469
  0.23670000000000002          141.14346313476562
  0.23780000000000001          142.69407653808594
  0.23890000000000000          144.10624694824219
  0.23999999999999999          145.35142517089844
  0.24110000000000004          146.46929931640625
  0.24220000000000003          147.52639770507812
  0.24330000000000002          148.55966186523438
  0.24440000000000001          149.52693176269531
  0.24550000000000000          150.34121704101562
  0.24660000000000004          150.96040344238281
  0.24770000000000003          151.42686462402344
  0.24880000000000002          151.85296630859375
  0.24990000000000001          152.28411865234375
  0.25100000000000000          152.67819213867188
  0.25209999999999999          152.92909240722656
  0.25320000000000004          152.98803710937500
  0.25430000000000003          152.90153503417969
  0.25540000000000002          152.75498962402344
  0.25650000000000001          152.60905456542969
  0.25760000000000000          152.41703796386719
  0.25870000000000004          152.09411621093750
  0.25980000000000003          151.59494018554688
  0.26090000000000002          150.97219848632812
  0.26200000000000001          150.30513000488281
  0.26310000000000000          149.62651062011719
  0.26419999999999999          148.88380432128906
  0.26530000000000004          148.00726318359375
  0.26640000000000003          146.96926879882812
  0.26750000000000002          145.83770751953125
  0.26860000000000001          144.66857910156250
  0.26970000000000000          143.47883605957031
  0.27080000000000004          142.20336914062500
  0.27190000000000003          140.76608276367188
  0.27300000000000002          139.17115783691406
  0.27410000000000001          137.50610351562500
  0.27520000000000000          135.84782409667969
  0.27629999999999999          134.18388366699219
  0.27740000000000004          132.42417907714844
  0.27850000000000003          130.48568725585938
  0.27960000000000002          128.38183593750000
  0.28070000000000001          126.20748901367188
  0.28179999999999999          124.04419708251953
  0.28290000000000004          121.87230682373047
  0.28400000000000003          119.59838867187500
  0.28510000000000002          117.14643859863281
  0.28620000000000001          114.55819702148438
  0.28730000000000000          111.92097473144531
  0.28840000000000005          109.30928039550781
  0.28950000000000004          106.68727874755859
  0.29060000000000002          103.95526123046875
  0.29170000000000001          101.05392456054688
  0.29280000000000000          98.042701721191406
  0.29389999999999999          95.010482788085938
  0.29500000000000004          91.988212585449219
  0.29610000000000003          88.933036804199219
  0.29720000000000002          85.767471313476562
  0.29830000000000001          82.486007690429688
  0.29940000000000000          79.150032043457031
  0.30050000000000004          75.835289001464844
  0.30160000000000003          72.542160034179688
  0.30270000000000002          69.184936523437500
  0.30380000000000001          65.705307006835938
  0.30490000000000000          62.120445251464844
  0.30599999999999999          58.529937744140625
  0.30709999999999998          55.011013031005859
  0.30819999999999997          51.545131683349609
  0.30930000000000007          48.031238555908203
  0.31040000000000006          44.420227050781250
  0.31150000000000005          40.742916107177734
  0.31260000000000004          37.111766815185547
  0.31370000000000003          33.580074310302734
  0.31480000000000002          30.097982406616211
  0.31590000000000001          26.563587188720703
  0.31700000000000000          22.960680007934570
  0.31809999999999999          19.358875274658203
  0.31919999999999998          15.865858078002930
  0.32029999999999997          12.519195556640625
  0.32140000000000007          9.2258205413818359
  0.32250000000000006          5.9000315666198730
  0.32360000000000005          2.5342154502868652
  0.32470000000000004        -0.79255622625350952
  0.32580000000000003         -3.9533269405364990
  0.32690000000000002         -6.9429397583007812
  0.32800000000000001         -9.8392391204833984
  0.32910000000000000         -12.750025749206543
  0.33019999999999999         -15.674318313598633
  0.33129999999999998         -18.514383316040039
  0.33239999999999997         -21.158733367919922
  0.33350000000000007         -23.604055404663086
  0.33460000000000006         -25.933225631713867
  0.33570000000000005         -28.242136001586914
  0.33680000000000004         -30.510896682739258
  0.33790000000000003         -32.639808654785156
  0.33900000000000002         -34.549926757812500
  0.34010000000000001         -36.269359588623047
  0.34120000000000000         -37.907882690429688
  0.34229999999999999         -39.521850585937500
  0.34339999999999998         -41.059692382812500
  0.34449999999999997         -42.392120361328125
  0.34560000000000007         -43.470512390136719
  0.34670000000000006         -44.341156005859375
  0.34780000000000005         -45.135433197021484
  0.34890000000000004         -45.904167175292969
