 -0.20000000000000001          0.0000000000000000
 -0.19890000000000002          0.0000000000000000
 -0.19780000000000000          0.0000000000000000
 -0.19670000000000001          0.0000000000000000
 -0.19560000000000002          0.0000000000000000
 -0.19450000000000001          0.0000000000000000
 -0.19340000000000002          0.0000000000000000
 -0.19230000000000000          0.0000000000000000
 -0.19120000000000001          9.5046687453380311E-021
 -0.19010000000000002         -5.5462847812600765E-020
 -0.18900000000000000         -6.0919417101602150E-019
 -0.18790000000000001         -9.2277725556016567E-019
 -0.18680000000000002          6.0315818238749306E-018
 -0.18570000000000000          2.9120774350921563E-017
 -0.18460000000000001          3.1384651882189640E-017
 -0.18350000000000000         -1.3189034878156745E-016
 -0.18240000000000001         -5.5967384352474272E-016
 -0.18130000000000002         -6.9382602173832827E-016
 -0.18020000000000000          1.1378557804635843E-015
 -0.17910000000000001          5.9877699247980420E-015
 -0.17800000000000002          9.2278437427667014E-015
 -0.17690000000000000         -2.4998148794312319E-015
 -0.17580000000000001         -3.9439429505444363E-014
 -0.17470000000000002         -7.7216370504650750E-014
 -0.17360000000000000         -3.6640124528165984E-014
 -0.17250000000000001          1.5974175378732149E-013
 -0.17140000000000000          4.3149522583470425E-013
 -0.17030000000000001          4.2051597121984721E-013
 -0.16920000000000002         -3.1254366499385866E-013
 -0.16810000000000000         -1.6578288221381436E-012
 -0.16700000000000001         -2.3680439120016846E-012
 -0.16589999999999999         -5.3882647042108974E-013
 -0.16480000000000000          4.2912288306110583E-012
 -0.16370000000000001          8.7860040423608043E-012
 -0.16260000000000002          6.4672746324934599E-012
 -0.16150000000000000         -6.4402112115454234E-012
 -0.16040000000000001         -2.3218272790505327E-011
 -0.15930000000000000         -2.6039899403419479E-011
 -0.15820000000000001          1.7175510688224591E-013
 -0.15710000000000002          4.5825173516925266E-011
 -0.15600000000000000          6.9484050457817186E-011
 -0.15490000000000001          2.6701234973061113E-011
 -0.15379999999999999         -7.5427948609265874E-011
 -0.15270000000000000         -1.5016005106006229E-010
 -0.15160000000000001         -8.5353654699645748E-011
 -0.15050000000000002          1.3107404051026719E-010
 -0.14940000000000001          3.2559951956834539E-010
 -0.14830000000000002          2.3034918417153638E-010
 -0.14720000000000000         -2.4347557303627147E-010
 -0.14610000000000001         -7.6992945352571093E-010
 -0.14500000000000002         -7.2681616281043354E-010
 -0.14390000000000000          2.4767998763055946E-010
 -0.14280000000000001          1.6532073487951627E-009
 -0.14169999999999999          2.1633577151902347E-009
 -0.14060000000000000          6.3338828626402186E-010
 -0.13950000000000001         -2.5191360109035189E-009
 -0.13840000000000002         -4.9057784501372515E-009
 -0.13730000000000001         -3.6859810759180845E-009
 -0.13619999999999999          1.6813989089929286E-009
 -0.13510000000000000          7.8178361562213486E-009
 -0.13400000000000001          9.1550163006106480E-009
 -0.13290000000000002          2.6317619195023213E-009
 -0.13180000000000000         -8.3076461265827133E-009
 -0.13070000000000001         -1.4795579872385191E-008
 -0.12959999999999999         -9.4655403515280359E-009
 -0.12850000000000000          5.7800235708787347E-009
 -0.12740000000000001          1.8776564303381222E-008
 -0.12630000000000002          1.6125275337232426E-008
 -0.12520000000000001         -3.7041492095815147E-009
 -0.12410000000000000         -2.5216404964112457E-008
 -0.12300000000000001         -2.6384977758199037E-008
 -0.12190000000000001          1.0123862859133250E-009
 -0.12080000000000000          3.8723104722747329E-008
 -0.11970000000000000          5.1975131754032388E-008
 -0.11860000000000001          1.8739422458223254E-008
 -0.11750000000000001         -4.5036181006708721E-008
 -0.11640000000000000         -8.9834870209413823E-008
 -0.11530000000000000         -6.9993362217241729E-008
 -0.11420000000000001          1.3401075804615965E-008
 -0.11310000000000001          1.0316333032279224E-007
 -0.11200000000000000          1.2590237474796608E-007
 -0.11090000000000001          5.3861391791079907E-008
 -0.10980000000000001         -6.4008048639166604E-008
 -0.10870000000000000         -1.3493655615094653E-007
 -0.10760000000000000         -9.8625896782783307E-008
 -0.10650000000000001          1.6525657287054594E-008
 -0.10540000000000001          1.1082882878101269E-007
 -0.10430000000000000          9.7004651422613939E-008
 -0.10320000000000000         -1.8929180001223329E-008
 -0.10210000000000001         -1.3388594766183603E-007
 -0.10100000000000001         -1.3255149156067148E-007
  -9.9900000000000003E-002     7.5822406131288488E-009
  -9.8799999999999999E-002     1.8436058724089681E-007
  -9.7700000000000009E-002     2.4766603701207765E-007
  -9.6600000000000005E-002     1.2538610860700732E-007
  -9.5500000000000002E-002    -1.0849823439684551E-007
  -9.4400000000000012E-002    -2.8583255584633776E-007
  -9.3300000000000008E-002    -2.7644207989393870E-007
  -9.2200000000000004E-002    -9.0877684044666450E-008
  -9.1100000000000000E-002     1.3126690134870276E-007
  -9.0000000000000011E-002     2.3483782740640777E-007
  -8.8900000000000007E-002     1.6753416787193698E-007
  -8.7800000000000003E-002     8.2197866290854041E-009
  -8.6699999999999999E-002    -1.0834536112728665E-007
  -8.5600000000000009E-002    -9.8896364875161956E-008
  -8.4500000000000006E-002     1.5599058045278806E-008
  -8.3400000000000002E-002     1.4060974251609339E-007
  -8.2299999999999998E-002     1.8128058343339721E-007
  -8.1200000000000008E-002     9.8100933598763601E-008
  -8.0100000000000005E-002    -8.0752705855505391E-008
  -7.9000000000000001E-002    -2.7643145017466260E-007
  -7.7899999999999997E-002    -3.8739381125199313E-007
  -7.6800000000000007E-002    -3.2953877848741493E-007
  -7.5700000000000003E-002    -9.0498424754045932E-008
  -7.4600000000000000E-002     2.3175356034247717E-007
  -7.3500000000000010E-002     4.5877538923382338E-007
  -7.2399999999999992E-002     4.4561866729967038E-007
  -7.1300000000000002E-002     2.0838324132909509E-007
  -7.0200000000000012E-002    -5.5340358073915747E-008
  -6.9099999999999995E-002    -1.1047945491791225E-007
  -6.8000000000000005E-002     9.9496780592187471E-008
  -6.6900000000000015E-002     3.5820735888584095E-007
  -6.5799999999999997E-002     3.2749360912018931E-007
  -6.4700000000000008E-002    -1.4558618488530115E-007
  -6.3599999999999990E-002    -8.2855927985278682E-007
  -6.2500000000000000E-002    -1.2228637160658723E-006
  -6.1400000000000010E-002    -9.4974654984963161E-007
  -6.0299999999999992E-002    -9.1418392855665349E-008
  -5.9200000000000003E-002     8.2475281715228813E-007
  -5.8100000000000013E-002     1.2206868404971839E-006
  -5.6999999999999995E-002     9.2263604756199986E-007
  -5.5900000000000005E-002     2.8355418635303662E-007
  -5.4800000000000015E-002    -1.4141112103529537E-007
  -5.3699999999999998E-002    -8.4577948200569105E-008
  -5.2600000000000008E-002     2.1375545600240005E-007
  -5.1499999999999990E-002     2.4938529463749813E-007
  -5.0400000000000000E-002    -2.5978431494855757E-007
  -4.9300000000000010E-002    -1.0838409707501970E-006
  -4.8199999999999993E-002    -1.6423335864601445E-006
  -4.7100000000000003E-002    -1.4663894489786563E-006
  -4.6000000000000013E-002    -5.5807072385515292E-007
  -4.4899999999999995E-002     6.3611292944177451E-007
  -4.3800000000000006E-002     1.5650674640709318E-006
  -4.2699999999999988E-002     1.9080580386797791E-006
  -4.1599999999999998E-002     1.6600173466939817E-006
  -4.0500000000000008E-002     9.9748717730102508E-007
  -3.9399999999999991E-002     1.3258450337617653E-007
  -3.8300000000000001E-002    -7.1690362801737296E-007
  -3.7200000000000011E-002    -1.3141701629136540E-006
  -3.6099999999999993E-002    -1.4819404441367091E-006
  -3.5000000000000003E-002    -1.2533839708338739E-006
  -3.3900000000000013E-002    -9.0304484956503581E-007
  -3.2799999999999996E-002    -7.2548846219438342E-007
  -3.1700000000000006E-002    -7.1139487545230355E-007
  -3.0599999999999988E-002    -4.7133116254374280E-007
  -2.9499999999999998E-002     4.0642083831702106E-007
  -2.8400000000000009E-002     1.8192450852439424E-006
  -2.7299999999999991E-002     2.9743562208750518E-006
  -2.6200000000000001E-002     2.8798863240807655E-006
  -2.5100000000000011E-002     1.1906911367984998E-006
  -2.3999999999999994E-002    -1.3329537296160576E-006
  -2.2900000000000004E-002    -3.2581185678283117E-006
  -2.1800000000000014E-002    -3.5353884868526475E-006
  -2.0699999999999996E-002    -2.2975111733100215E-006
  -1.9600000000000006E-002    -6.8241416784034155E-007
  -1.8499999999999989E-002     1.8259990497461221E-007
  -1.7399999999999999E-002     1.2330212939571838E-007
  -1.6300000000000009E-002    -7.1469933971146898E-008
  -1.5199999999999991E-002     4.3489220047343846E-007
  -1.4100000000000001E-002     1.5752463013992391E-006
  -1.3000000000000012E-002     2.3252916889757433E-006
  -1.1899999999999994E-002     1.6318138023051943E-006
  -1.0800000000000004E-002    -5.4072353350409429E-007
  -9.6999999999999864E-003    -3.0391420295925387E-006
  -8.5999999999999965E-003    -4.4043299567417257E-006
  -7.5000000000000067E-003    -4.0086088120003247E-006
  -6.3999999999999890E-003    -2.4403525458180683E-006
  -5.2999999999999992E-003    -8.6683331801377218E-007
  -4.2000000000000093E-003    -5.2574822717482489E-008
  -3.0999999999999917E-003     5.7474764503250015E-008
  -2.0000000000000018E-003    -7.0510076000195147E-008
  -9.0000000000001190E-004    -2.1865717769754574E-007
   2.0000000000000573E-004    -5.9407369690244736E-007
   1.2999999999999956E-003    -1.4060813100513987E-006
   2.4000000000000132E-003    -2.4274256702482315E-006
   3.5000000000000031E-003    -3.1238109841067203E-006
   4.5999999999999930E-003    -3.2494381230204619E-006
   5.7000000000000106E-003    -3.2059083423515281E-006
   6.8000000000000005E-003    -3.6566059407047185E-006
   7.8999999999999904E-003    -4.7172788981695049E-006
   9.0000000000000080E-003    -5.6224389481938409E-006
   1.0099999999999998E-002    -5.3775711421619931E-006
   1.1199999999999988E-002    -3.8647913243036597E-006
   1.2300000000000005E-002    -2.2668871224591951E-006
   1.3399999999999995E-002    -2.2068550151739162E-006
   1.4500000000000013E-002    -4.2781894080685882E-006
   1.5600000000000003E-002    -7.3671862992338174E-006
   1.6699999999999993E-002    -9.5302639238067613E-006
   1.7800000000000010E-002    -9.7060046755355612E-006
   1.8900000000000000E-002    -8.6522122728632439E-006
   1.9999999999999990E-002    -8.1636489994699233E-006
   2.1100000000000008E-002    -9.2829195637013200E-006
   2.2199999999999998E-002    -1.1236980753891569E-005
   2.3300000000000015E-002    -1.2207340660096662E-005
   2.4400000000000005E-002    -1.1224554327781515E-005
   2.5499999999999995E-002    -9.3349090093391132E-006
   2.6600000000000013E-002    -8.8111728473443366E-006
   2.7700000000000002E-002    -1.1075505426560191E-005
   2.8799999999999992E-002    -1.5296884157577472E-005
   2.9900000000000010E-002    -1.9062088540521192E-005
   3.1000000000000000E-002    -2.0516470613073113E-005
   3.2099999999999990E-002    -1.9979474018326347E-005
   3.3200000000000007E-002    -1.9512053768265230E-005
   3.4299999999999997E-002    -2.0878618670392825E-005
   3.5400000000000015E-002    -2.3909127776276258E-005
   3.6500000000000005E-002    -2.6813228032549690E-005
   3.7599999999999995E-002    -2.8071808628735822E-005
   3.8700000000000012E-002    -2.8003250918116105E-005
   3.9800000000000002E-002    -2.8445685529729906E-005
   4.0899999999999992E-002    -3.0912622605680978E-005
   4.2000000000000010E-002    -3.5077180655205052E-005
   4.3099999999999999E-002    -3.9096557884474396E-005
   4.4200000000000017E-002    -4.1451443394177311E-005
   4.5300000000000007E-002    -4.2425490391902807E-005
   4.6399999999999997E-002    -4.3755051592593801E-005
   4.7500000000000014E-002    -4.6821543946858080E-005
   4.8600000000000004E-002    -5.1211965910620559E-005
   4.9699999999999994E-002    -5.5098673328753193E-005
   5.0800000000000012E-002    -5.7075634686039346E-005
   5.1900000000000002E-002    -5.7598783314456518E-005
   5.2999999999999992E-002    -5.8638826885721546E-005
   5.4099999999999981E-002    -6.1836515669705771E-005
   5.5200000000000027E-002    -6.6993678046850587E-005
   5.6300000000000017E-002    -7.2382317739533129E-005
   5.7400000000000007E-002    -7.6453077781473829E-005
   5.8499999999999996E-002    -7.9312150774051639E-005
   5.9599999999999986E-002    -8.2445432781235085E-005
   6.0700000000000032E-002    -8.7101449025787681E-005
   6.1800000000000022E-002    -9.2961789050597599E-005
   6.2900000000000011E-002    -9.8466902272767936E-005
   6.4000000000000001E-002    -1.0242492135147684E-004
   6.5099999999999991E-002    -1.0529568680794060E-004
   6.6199999999999981E-002    -1.0876858868868123E-004
   6.7300000000000026E-002    -1.1406582052585647E-004
   6.8400000000000016E-002    -1.2065767077728103E-004
   6.9500000000000006E-002    -1.2670354044529497E-004
   7.0599999999999996E-002    -1.3081273937131131E-004
   7.1699999999999986E-002    -1.3348895299712950E-004
   7.2800000000000031E-002    -1.3678835239260245E-004
   7.3900000000000021E-002    -1.4246080536394132E-004
   7.5000000000000011E-002    -1.5035917749627205E-004
   7.6100000000000001E-002    -1.5852690557947974E-004
   7.7199999999999991E-002    -1.6490055713801240E-004
   7.8299999999999981E-002    -1.6902816423679224E-004
   7.9400000000000026E-002    -1.7228719661942137E-004
   8.0500000000000016E-002    -1.7646301421335301E-004
   8.1600000000000006E-002    -1.8201218335887727E-004
   8.2699999999999996E-002    -1.8786307191474659E-004
   8.3799999999999986E-002    -1.9259945838710573E-004
   8.4900000000000031E-002    -1.9608942966440934E-004
   8.6000000000000021E-002    -1.9979686476288545E-004
   8.7100000000000011E-002    -2.0551048510240503E-004
   8.8200000000000001E-002    -2.1352886687962388E-004
   8.9299999999999990E-002    -2.2198031365403903E-004
   9.0399999999999980E-002    -2.2820409503763496E-004
   9.1500000000000026E-002    -2.3086776491252619E-004
   9.2600000000000016E-002    -2.3117175442164637E-004
   9.3700000000000006E-002    -2.3200160649137412E-004
   9.4799999999999995E-002    -2.3542647249994621E-004
   9.5899999999999985E-002    -2.4100157315840758E-004
   9.7000000000000031E-002    -2.4613412097094383E-004
   9.8100000000000021E-002    -2.4833536008370821E-004
   9.9200000000000010E-002    -2.4763151304794218E-004
  0.10030000000000000         -2.4654911248942548E-004
  0.10139999999999999         -2.4781571119090231E-004
  0.10249999999999998         -2.5170992012133511E-004
  0.10360000000000003         -2.5560299400238014E-004
  0.10470000000000002         -2.5628154980947884E-004
  0.10580000000000001         -2.5291094789279297E-004
  0.10690000000000000         -2.4783317348917608E-004
  0.10799999999999998         -2.4452173965980897E-004
  0.10910000000000003         -2.4397201195822739E-004
  0.11020000000000002         -2.4366103752979782E-004
  0.11130000000000001         -2.3957372468428521E-004
  0.11240000000000000         -2.3062998661769430E-004
  0.11349999999999999         -2.1988875232634969E-004
  0.11460000000000004         -2.1217351604716782E-004
  0.11570000000000003         -2.0937299996146908E-004
  0.11680000000000001         -2.0802413928320678E-004
  0.11790000000000000         -2.0206875342408323E-004
  0.11899999999999999         -1.8840948177965567E-004
  0.12009999999999998         -1.6984372632576454E-004
  0.12120000000000003         -1.5282613458110427E-004
  0.12230000000000002         -1.4130577619651870E-004
  0.12340000000000001         -1.3295777898746292E-004
  0.12450000000000000         -1.2116227298973949E-004
  0.12559999999999999         -1.0167699656448341E-004
  0.12670000000000003         -7.7073556894894171E-005
  0.12780000000000002         -5.4201598686625230E-005
  0.12890000000000001         -3.7851412344020738E-005
  0.13000000000000000         -2.5261177142963032E-005
  0.13109999999999999         -8.5860910985498145E-006
  0.13219999999999998          1.7633788957026224E-005
  0.13330000000000003          5.0614838983161888E-005
  0.13440000000000002          8.1748272350518606E-005
  0.13550000000000001          1.0510438733034978E-004
  0.13660000000000000          1.2302216782699289E-004
  0.13769999999999999          1.4486166764980782E-004
  0.13880000000000003          1.7769433907231644E-004
  0.13990000000000002          2.1923999884164035E-004
  0.14100000000000001          2.5965255917979218E-004
  0.14210000000000000          2.9051385354248333E-004
  0.14319999999999999          3.1394275720228584E-004
  0.14429999999999998          3.3988326322284345E-004
  0.14540000000000003          3.7662903196175097E-004
  0.14650000000000002          4.2237734305668797E-004
  0.14760000000000001          4.6682506217617434E-004
  0.14870000000000000          5.0162867410104284E-004
  0.14979999999999999          5.2903662435705898E-004
  0.15090000000000003          5.6031747953961338E-004
  0.15200000000000002          6.0401129303494755E-004
  0.15310000000000001          6.5701961284497714E-004
  0.15420000000000000          7.0690119173371811E-004
  0.15529999999999999          7.4404786573716670E-004
  0.15639999999999998          7.7138323104002364E-004
  0.15750000000000003          8.0171518493436658E-004
  0.15860000000000002          8.4501266246654106E-004
  0.15970000000000001          8.9803343871600603E-004
  0.16080000000000000          9.4760343199587710E-004
  0.16189999999999999          9.8317745141676574E-004
  0.16300000000000003          1.0083871893583848E-003
  0.16410000000000002          1.0372982360421692E-003
  0.16520000000000001          1.0806306963785529E-003
  0.16630000000000000          1.1346864048390596E-003
  0.16739999999999999          1.1840902734546839E-003
  0.16850000000000004          1.2169968103988909E-003
  0.16960000000000003          1.2366494629531012E-003
  0.17070000000000002          1.2584719806908438E-003
  0.17180000000000001          1.2943195179103651E-003
  0.17290000000000000          1.3402495533226743E-003
  0.17399999999999999          1.3802917674182649E-003
  0.17510000000000003          1.4024493284522268E-003
  0.17620000000000002          1.4110286720095820E-003
  0.17730000000000001          1.4232492540030399E-003
  0.17840000000000000          1.4514696085824266E-003
  0.17949999999999999          1.4911510515956757E-003
  0.18060000000000004          1.5241751680149299E-003
  0.18170000000000003          1.5365236904470768E-003
  0.18280000000000002          1.5321002574636170E-003
  0.18390000000000001          1.5285863773895913E-003
  0.18500000000000000          1.5400176635010645E-003
  0.18609999999999999          1.5622732462360069E-003
  0.18720000000000003          1.5777722001074361E-003
  0.18830000000000002          1.5729010337962317E-003
  0.18940000000000001          1.5521722380070491E-003
  0.19050000000000000          1.5337535878642004E-003
  0.19159999999999999          1.5310734743251011E-003
  0.19270000000000004          1.5393701614810642E-003
  0.19380000000000003          1.5399896074085070E-003
  0.19490000000000002          1.5188800171016305E-003
  0.19600000000000001          1.4805996324865679E-003
  0.19710000000000000          1.4435092452912206E-003
  0.19819999999999999          1.4216351555659070E-003
  0.19930000000000003          1.4106614980845375E-003
  0.20040000000000002          1.3919264310969664E-003
  0.20150000000000001          1.3517617480828152E-003
  0.20260000000000000          1.2947553768752828E-003
  0.20369999999999999          1.2395835947244215E-003
  0.20480000000000004          1.1999328853561368E-003
  0.20590000000000003          1.1715171858667267E-003
  0.20700000000000002          1.1363455560057341E-003
  0.20810000000000001          1.0813416447489482E-003
  0.20920000000000000          1.0108826681970620E-003
  0.21029999999999999          9.4221223844206405E-004
  0.21140000000000003          8.8795699411994811E-004
  0.21250000000000002          8.4322137990958676E-004
  0.21360000000000001          7.9141155583776828E-004
  0.21470000000000000          7.2117277886711930E-004
  0.21579999999999999          6.3746556406834643E-004
  0.21690000000000004          5.5744033306831618E-004
  0.21800000000000003          4.9225753173227232E-004
  0.21910000000000002          4.3674220796670321E-004
  0.22020000000000001          3.7488510133695092E-004
  0.22130000000000000          2.9713357798752323E-004
  0.22239999999999999          2.0920633687635510E-004
  0.22350000000000003          1.2624917144419873E-004
  0.22460000000000002          5.6982415117081081E-005
  0.22570000000000001         -4.4112589421298764E-006
  0.22680000000000000         -7.2630922659295592E-005
  0.22789999999999999         -1.5498089487663252E-004
  0.22900000000000004         -2.4502177257089002E-004
  0.23010000000000003         -3.2798390020613881E-004
  0.23120000000000002         -3.9672348066229949E-004
  0.23230000000000001         -4.5779344509351880E-004
  0.23340000000000000         -5.2410294301803370E-004
  0.23450000000000004         -6.0167815536255466E-004
  0.23560000000000003         -6.8354484392324304E-004
  0.23670000000000002         -7.5701490277418101E-004
  0.23780000000000001         -8.1677868729450277E-004
  0.23890000000000000         -8.6980580817900459E-004
  0.23999999999999999         -9.2823471641159834E-004
  0.24110000000000004         -9.9622749257824070E-004
  0.24220000000000003         -1.0671608615665706E-003
  0.24330000000000002         -1.1294172145425298E-003
  0.24440000000000001         -1.1786986142395897E-003
  0.24550000000000000         -1.2216612230985275E-003
  0.24660000000000004         -1.2679877690969770E-003
  0.24770000000000003         -1.3211395125834967E-003
  0.24880000000000002         -1.3739013811572181E-003
  0.24990000000000001         -1.4167792396618673E-003
  0.25100000000000000         -1.4471497852353962E-003
  0.25209999999999999         -1.4721961924804923E-003
  0.25320000000000004         -1.5009416965766397E-003
  0.25430000000000003         -1.5351487090809765E-003
  0.25540000000000002         -1.5689602587370672E-003
  0.25650000000000001         -1.5951074892653601E-003
  0.25760000000000000         -1.6112652374430055E-003
  0.25870000000000004         -1.6220191027967669E-003
  0.25980000000000003         -1.6328783240167821E-003
  0.26090000000000002         -1.6449328977613167E-003
  0.26200000000000001         -1.6544915270058820E-003
  0.26310000000000000         -1.6581437084822359E-003
  0.26419999999999999         -1.6550404252482951E-003
  0.26530000000000004         -1.6486546956001225E-003
  0.26640000000000003         -1.6429790994150946E-003
  0.26750000000000002         -1.6368632204829174E-003
  0.26860000000000001         -1.6273787477983561E-003
  0.26970000000000000         -1.6120462678371405E-003
  0.27080000000000004         -1.5925507759673937E-003
  0.27190000000000003         -1.5728820580987693E-003
  0.27300000000000002         -1.5529115917159702E-003
  0.27410000000000001         -1.5313549665732791E-003
  0.27520000000000000         -1.5044067986308167E-003
  0.27629999999999999         -1.4725604560224860E-003
  0.27740000000000004         -1.4395853504537218E-003
  0.27850000000000003         -1.4088929165153407E-003
  0.27960000000000002         -1.3789804652332006E-003
  0.28070000000000001         -1.3433285057543492E-003
  0.28179999999999999         -1.3000457547603856E-003
  0.28290000000000004         -1.2525897473095696E-003
  0.28400000000000003         -1.2092193355782701E-003
  0.28510000000000002         -1.1726728407665005E-003
  0.28620000000000001         -1.1394837638362201E-003
  0.28730000000000000         -1.1009727604686214E-003
  0.28840000000000005         -1.0523282689972747E-003
  0.28950000000000004         -9.9745579063883084E-004
  0.29060000000000002         -9.4584678299716176E-004
  0.29170000000000001         -9.0254662791258635E-004
  0.29280000000000000         -8.6385168833650184E-004
  0.29389999999999999         -8.2063610898323327E-004
  0.29500000000000004         -7.6848181197412650E-004
  0.29610000000000003         -7.1208487497635871E-004
  0.29720000000000002         -6.6039897501462294E-004
  0.29830000000000001         -6.1803107382723762E-004
  0.29940000000000000         -5.8159942273045158E-004
  0.30050000000000004         -5.4113537771622374E-004
  0.30160000000000003         -4.9181579379360284E-004
  0.30270000000000002         -4.3659753282550214E-004
  0.30380000000000001         -3.8510738522741804E-004
  0.30490000000000000         -3.4391315421086104E-004
  0.30599999999999999         -3.0971539672461172E-004
  0.30709999999999998         -2.7361739194018081E-004
  0.30819999999999997         -2.2909203835295175E-004
  0.30930000000000007         -1.7830175056586015E-004
  0.31040000000000006         -1.3067173131274382E-004
  0.31150000000000005         -9.2986825620744210E-005
  0.31260000000000004         -6.3767263782203425E-005
  0.31370000000000003         -3.4791843063427161E-005
  0.31480000000000002          5.3801352351094764E-007
  0.31590000000000001          4.1376857552675943E-005
  0.31700000000000000          8.0106146924659174E-005
  0.31809999999999999          1.0987728455801690E-004
  0.31919999999999998          1.3333195238373103E-004
  0.32029999999999997          1.5803174756000318E-004
  0.32140000000000007          1.8979264132211240E-004
  0.32250000000000006          2.2545162937602053E-004
  0.32360000000000005          2.5791465304789840E-004
  0.32470000000000004          2.8091855347154177E-004
  0.32580000000000003          2.9585996526290871E-004
  0.32690000000000002          3.1002191826698400E-004
  0.32800000000000001          3.2961240503934106E-004
  0.32910000000000000          3.5497409407977693E-004
  0.33019999999999999          3.7945597432550537E-004
  0.33129999999999998          3.9691745769229069E-004
  0.33239999999999997          4.0723645361136744E-004
  0.33350000000000007          4.1576646617609981E-004
  0.33460000000000006          4.2830218444574517E-004
  0.33570000000000005          4.4580525718625441E-004
  0.33680000000000004          4.6314735664050713E-004
  0.33790000000000003          4.7439048648807703E-004
  0.33900000000000002          4.7884424566286985E-004
  0.34010000000000001          4.8094385419967882E-004
  0.34120000000000000          4.8622678150418464E-004
  0.34229999999999999          4.9684330588202193E-004
  0.34339999999999998          5.0782918697218557E-004
  0.34449999999999997          5.1347061526025738E-004
  0.34560000000000007          5.1104504382233206E-004
  0.34670000000000006          5.0466344691808417E-004
  0.34780000000000005          5.0208234461019828E-004
  0.34890000000000004          5.0699408166105897E-004
