 -0.20000000000000001          0.0000000000000000
 -0.19890000000000002          0.0000000000000000
 -0.19780000000000000          0.0000000000000000
 -0.19670000000000001          0.0000000000000000
 -0.19560000000000002          0.0000000000000000
 -0.19450000000000001          0.0000000000000000
 -0.19340000000000002          0.0000000000000000
 -0.19230000000000000          0.0000000000000000
 -0.19120000000000001          0.0000000000000000
 -0.19010000000000002          4.6670732496610289E-045
 -0.18900000000000000          2.1060903228308385E-032
 -0.18790000000000001          4.0797924751837671E-031
 -0.18680000000000002          1.7256764883652775E-030
 -0.18570000000000000         -7.8733779367748172E-031
 -0.18460000000000001         -2.3028434623013153E-029
 -0.18350000000000000         -5.5316192732339314E-029
 -0.18240000000000001         -3.8828998609520145E-029
 -0.18130000000000002         -2.4127537564431060E-028
 -0.18020000000000000         -1.6885729454372166E-027
 -0.17910000000000001         -3.0147767792352609E-027
 -0.17800000000000002          8.2745053240490262E-027
 -0.17690000000000000          4.8559904579720453E-026
 -0.17580000000000001          7.1132413662568221E-026
 -0.17470000000000002         -1.0747195686290395E-025
 -0.17360000000000000         -5.8579262682194372E-025
 -0.17250000000000001         -6.5874175017156527E-025
 -0.17140000000000000          1.3390636778731883E-024
 -0.17030000000000001          5.1554213746473411E-024
 -0.16920000000000002          3.3304330856174327E-024
 -0.16810000000000000         -1.5640724657433163E-023
 -0.16700000000000001         -4.1169830228151663E-023
 -0.16589999999999999         -9.4840818107575967E-024
 -0.16480000000000000          1.5032427386986294E-022
 -0.16370000000000001          3.2405860725828275E-022
 -0.16260000000000002          4.4971208935555938E-023
 -0.16150000000000000         -1.1325454630333849E-021
 -0.16040000000000001         -2.4138616614464990E-021
 -0.15930000000000000         -8.3160535230386775E-022
 -0.15820000000000001          6.5392214025753131E-021
 -0.15710000000000002          1.5766115789638446E-020
 -0.15600000000000000          1.0569809994641860E-020
 -0.15490000000000001         -2.7560006880213594E-020
 -0.15379999999999999         -8.5768141130084827E-020
 -0.15270000000000000         -8.8159959720691288E-020
 -0.15160000000000001          6.9634403334861875E-020
 -0.15050000000000002          3.7588746565515789E-019
 -0.14940000000000001          5.3684533572705461E-019
 -0.14830000000000002          4.8705709555179337E-020
 -0.14720000000000000         -1.2683494306447901E-018
 -0.14610000000000001         -2.5118114782000093E-018
 -0.14500000000000002         -1.6372726042294779E-018
 -0.14390000000000000          2.8946093657881190E-018
 -0.14280000000000001          9.1453394580696102E-018
 -0.14169999999999999          1.0251028474148100E-017
 -0.14060000000000000         -1.5814819602470550E-018
 -0.13950000000000001         -2.5187068971450032E-017
 -0.13840000000000002         -4.2083812897820301E-017
 -0.13730000000000001         -2.2754100833729213E-017
 -0.13619999999999999          4.5905565998817998E-017
 -0.13510000000000000          1.2726182988552015E-016
 -0.13400000000000001          1.3327348740999487E-016
 -0.13290000000000002         -1.4192817889719314E-017
 -0.13180000000000000         -2.7937520939677127E-016
 -0.13070000000000001         -4.5659385137130510E-016
 -0.12959999999999999         -2.6948167928446114E-016
 -0.12850000000000000          3.6744879527971519E-016
 -0.12740000000000001          1.1037722334571521E-015
 -0.12630000000000002          1.2176839770611089E-015
 -0.12520000000000001          1.3997251217132840E-016
 -0.12410000000000000         -1.8263796406497173E-015
 -0.12300000000000001         -3.2484782906300622E-015
 -0.12190000000000001         -2.3426129759585558E-015
 -0.12080000000000000          1.3997182395681883E-015
 -0.11970000000000000          5.9469285371801024E-015
 -0.11860000000000001          7.3444659845475030E-015
 -0.11750000000000001          2.6099062926847024E-015
 -0.11640000000000000         -6.8420996373756354E-015
 -0.11530000000000000         -1.4428501525065424E-014
 -0.11420000000000001         -1.2333019940590519E-014
 -0.11310000000000001          1.5713662899543847E-015
 -0.11200000000000000          1.9302625565097219E-014
 -0.11090000000000001          2.6254634927161747E-014
 -0.10980000000000001          1.2437916500779680E-014
 -0.10870000000000000         -1.6392532066454443E-014
 -0.10760000000000000         -3.8595489922511726E-014
 -0.10650000000000001         -3.1742515652644728E-014
 -0.10540000000000001          6.1686364465052269E-015
 -0.10430000000000000          4.7890582152058746E-014
 -0.10320000000000000          5.3553183751705889E-014
 -0.10210000000000001          5.5077660944720689E-015
 -0.10100000000000001         -6.6279941875624145E-014
  -9.9900000000000003E-002    -9.6495653535791852E-014
  -9.8799999999999999E-002    -3.5845065522568044E-014
  -9.7700000000000009E-002     9.4338938245483196E-014
  -9.6600000000000005E-002     1.9547116204312512E-013
  -9.5500000000000002E-002     1.5592644634235096E-013
  -9.4400000000000012E-002    -4.9959029832971004E-014
  -9.3300000000000008E-002    -3.0759409234102843E-013
  -9.2200000000000004E-002    -4.1527306766933161E-013
  -9.1100000000000000E-002    -2.2920676316135123E-013
  -9.0000000000000011E-002     2.0006813859683469E-013
  -8.8900000000000007E-002     6.1763967421426364E-013
  -8.7800000000000003E-002     7.1697519882927972E-013
  -8.6699999999999999E-002     3.6257748105985349E-013
  -8.5600000000000009E-002    -2.8451641541873575E-013
  -8.4500000000000006E-002    -8.5054446125051711E-013
  -8.3400000000000002E-002    -9.9712046345432991E-013
  -8.2299999999999998E-002    -6.5011434820595262E-013
  -8.1200000000000008E-002    -2.8510864730409984E-014
  -8.0100000000000005E-002     5.4881262295100623E-013
  -7.9000000000000001E-002     9.0827746799385251E-013
  -7.7899999999999997E-002     1.0931586582122291E-012
  -7.6800000000000007E-002     1.1871830558550117E-012
  -7.5700000000000003E-002     1.0634082590195544E-012
  -7.4600000000000000E-002     3.5462342155689959E-013
  -7.3500000000000010E-002    -1.2080725959524560E-012
  -7.2399999999999992E-002    -3.2885233165052341E-012
  -7.1300000000000002E-002    -4.7367929890963578E-012
  -7.0200000000000012E-002    -4.0562965313021683E-012
  -6.9099999999999995E-002    -4.5470783171785030E-013
  -6.8000000000000005E-002     5.1649483301380202E-012
  -6.6900000000000015E-002     1.0103509175129787E-011
  -6.5799999999999997E-002     1.1053417729723139E-011
  -6.4700000000000008E-002     6.1069287647662562E-012
  -6.3599999999999990E-002    -3.6145476802598950E-012
  -6.2500000000000000E-002    -1.3920146285649679E-011
  -6.1400000000000010E-002    -1.9445023716202120E-011
  -6.0299999999999992E-002    -1.6564040070111417E-011
  -5.9200000000000003E-002    -5.5943301206804068E-012
  -5.8100000000000013E-002     9.1484363487467883E-012
  -5.6999999999999995E-002     2.1548585832362844E-011
  -5.5900000000000005E-002     2.6752090126479802E-011
  -5.4800000000000015E-002     2.3129938936384808E-011
  -5.3699999999999998E-002     1.2061514981234982E-011
  -5.2600000000000008E-002    -3.7920738597776365E-012
  -5.1499999999999990E-002    -2.1816449688456783E-011
  -5.0400000000000000E-002    -3.8912682104316951E-011
  -4.9300000000000010E-002    -4.9673033047926044E-011
  -4.8199999999999993E-002    -4.5856280578297794E-011
  -4.7100000000000003E-002    -1.9751519864115863E-011
  -4.6000000000000013E-002     2.8780632391192478E-011
  -4.4899999999999995E-002     8.5837316421415576E-011
  -4.3800000000000006E-002     1.2386569547828546E-010
  -4.2699999999999988E-002     1.1264356808427527E-010
  -4.1599999999999998E-002     3.7787346168783631E-011
  -4.0500000000000008E-002    -8.3310455756254210E-011
  -3.9399999999999991E-002    -2.0013082857593797E-010
  -3.8300000000000001E-002    -2.4812207843893408E-010
  -3.7200000000000011E-002    -1.8211300523152646E-010
  -3.6099999999999993E-002    -7.0584866077181588E-012
  -3.5000000000000003E-002     2.1303568631390126E-010
  -3.3900000000000013E-002     3.7758682291941903E-010
  -3.2799999999999996E-002     3.9580480559740759E-010
  -3.1700000000000006E-002     2.3450749675468589E-010
  -3.0599999999999988E-002    -5.8484543596902674E-011
  -2.9499999999999998E-002    -3.6997985231043948E-010
  -2.8400000000000009E-002    -5.7026405819723435E-010
  -2.7299999999999991E-002    -5.7114291074352804E-010
  -2.6200000000000001E-002    -3.6378342005425368E-010
  -2.5100000000000011E-002    -1.7941037544487172E-011
  -2.3999999999999994E-002     3.5446390267421618E-010
  -2.2900000000000004E-002     6.4898025842192405E-010
  -2.1800000000000014E-002     8.0306455929595821E-010
  -2.0699999999999996E-002     7.9840306588247067E-010
  -1.9600000000000006E-002     6.3653393667092989E-010
  -1.8499999999999989E-002     3.1246200071778504E-010
  -1.7399999999999999E-002    -1.8607763940797929E-010
  -1.6300000000000009E-002    -8.4347856477143437E-010
  -1.5199999999999991E-002    -1.5638705885833422E-009
  -1.4100000000000001E-002    -2.1421928675379662E-009
  -1.3000000000000012E-002    -2.2976951452591034E-009
  -1.1899999999999994E-002    -1.7786045969359250E-009
  -1.0800000000000004E-002    -5.0124199235673185E-010
  -9.6999999999999864E-003     1.3477833293861677E-009
  -8.5999999999999965E-003     3.3167433244329244E-009
  -7.5000000000000067E-003     4.8275774489069822E-009
  -6.3999999999999890E-003     5.4045652397859736E-009
  -5.2999999999999992E-003     4.8901376281661545E-009
  -4.2000000000000093E-003     3.5341807258502942E-009
  -3.0999999999999917E-003     1.8956491931730207E-009
  -2.0000000000000018E-003     5.9096011417714894E-010
  -9.0000000000001190E-004     1.2828947973139734E-011
   2.0000000000000573E-004     1.7167788024491041E-010
   1.2999999999999956E-003     7.5327349913191231E-010
   2.4000000000000132E-003     1.3641729967868905E-009
   3.5000000000000031E-003     1.8178816230114711E-009
   4.5999999999999930E-003     2.2750357153706961E-009
   5.7000000000000106E-003     3.1273024170271064E-009
   6.8000000000000005E-003     4.6742347770131038E-009
   7.8999999999999904E-003     6.7922556468144854E-009
   9.0000000000000080E-003     8.8341298720705030E-009
   1.0099999999999998E-002     9.8823527139301189E-009
   1.1199999999999988E-002     9.2633927195605230E-009
   1.2300000000000005E-002     7.0395311801971315E-009
   1.3399999999999995E-002     4.1600434208528414E-009
   1.4500000000000013E-002     2.1181183473821769E-009
   1.5600000000000003E-002     2.2441235536510282E-009
   1.6699999999999993E-002     5.0029753673176397E-009
   1.7800000000000010E-002     9.6993906240061761E-009
   1.8900000000000000E-002     1.4788494873129131E-008
   1.9999999999999990E-002     1.8648856681123725E-008
   2.1100000000000008E-002     2.0400250377859804E-008
   2.2199999999999998E-002     2.0310341852790297E-008
   2.3300000000000015E-002     1.9566336106889466E-008
   2.4400000000000005E-002     1.9557189645523285E-008
   2.5499999999999995E-002     2.1097505964460770E-008
   2.6600000000000013E-002     2.4049979785443610E-008
   2.7700000000000002E-002     2.7551200432183411E-008
   2.8799999999999992E-002     3.0670406658825912E-008
   2.9900000000000010E-002     3.3066385185518063E-008
   3.1000000000000000E-002     3.5220796945620101E-008
   3.2099999999999990E-002     3.8108009192679904E-008
   3.3200000000000007E-002     4.2530803767700304E-008
   3.4299999999999997E-002     4.8568683297385517E-008
   3.5400000000000015E-002     5.5508209584327214E-008
   3.6500000000000005E-002     6.2302895287297881E-008
   3.7599999999999995E-002     6.8256021279461603E-008
   3.8700000000000012E-002     7.3469202277459432E-008
   3.9800000000000002E-002     7.8755505228394293E-008
   4.0899999999999992E-002     8.5077118683323097E-008
   4.2000000000000010E-002     9.2891916381169652E-008
   4.3099999999999999E-002     1.0186168708513948E-007
   4.4200000000000017E-002     1.1113738196399073E-007
   4.5300000000000007E-002     1.2004691996024993E-007
   4.6399999999999997E-002     1.2872696686371319E-007
   4.7500000000000014E-002     1.3825450650982680E-007
   4.8600000000000004E-002     1.5014299492575982E-007
   4.9699999999999994E-002     1.6547717507363312E-007
   5.0800000000000012E-002     1.8420955427698851E-007
   5.1900000000000002E-002     2.0506804787599468E-007
   5.2999999999999992E-002     2.2616944761464774E-007
   5.4099999999999981E-002     2.4601072823313958E-007
   5.5200000000000027E-002     2.6427977672936023E-007
   5.6300000000000017E-002     2.8202640578454052E-007
   5.7400000000000007E-002     3.0110504667388608E-007
   5.8499999999999996E-002     3.2322233778356425E-007
   5.9599999999999986E-002     3.4914063462562683E-007
   6.0700000000000032E-002     3.7847968314960434E-007
   6.1800000000000022E-002     4.1019094965119019E-007
   6.2900000000000011E-002     4.4337829763204376E-007
   6.4000000000000001E-002     4.7794793545104466E-007
   6.5099999999999991E-002     5.1470124162729277E-007
   6.6199999999999981E-002     5.5484628092012736E-007
   6.7300000000000026E-002     5.9926111362069144E-007
   6.8400000000000016E-002     6.4798012999739580E-007
   6.9500000000000006E-002     7.0020968223610583E-007
   7.0599999999999996E-002     7.5483086447996529E-007
   7.1699999999999986E-002     8.1105253002526934E-007
   7.2800000000000031E-002     8.6881732386238743E-007
   7.3900000000000021E-002     9.2875961854580617E-007
   7.5000000000000011E-002     9.9182318535887146E-007
   7.6100000000000001E-002     1.0588507848296138E-006
   7.7199999999999991E-002     1.1304294957880275E-006
   7.8299999999999981E-002     1.2070423736075917E-006
   7.9400000000000026E-002     1.2893153780168013E-006
   8.0500000000000016E-002     1.3780639847026337E-006
   8.1600000000000006E-002     1.4739861171618622E-006
   8.2699999999999996E-002     1.5771486232550666E-006
   8.3799999999999986E-002     1.6866504211064656E-006
   8.4900000000000031E-002     1.8008252027355733E-006
   8.6000000000000021E-002     1.9180504295944269E-006
   8.7100000000000011E-002     2.0377990495033494E-006
   8.8200000000000001E-002     2.1613043372779440E-006
   8.9299999999999990E-002     2.2913204702488552E-006
   9.0399999999999980E-002     2.4309379114127074E-006
   9.1500000000000026E-002     2.5820074824876079E-006
   9.2600000000000016E-002     2.7440664780440307E-006
   9.3700000000000006E-002     2.9144707696102457E-006
   9.4799999999999995E-002     3.0897801934767966E-006
   9.5899999999999985E-002     3.2677055514793211E-006
   9.7000000000000031E-002     3.4485340165699039E-006
   9.8100000000000021E-002     3.6351962080513329E-006
   9.9200000000000010E-002     3.8319030863928167E-006
  0.10030000000000000          4.0421114135821196E-006
  0.10139999999999999          4.2669526010282463E-006
  0.10249999999999998          4.5049623622613415E-006
  0.10360000000000003          4.7531871132373994E-006
  0.10470000000000002          5.0089452088282408E-006
  0.10580000000000001          5.2711948228529864E-006
  0.10690000000000000          5.5407949730574592E-006
  0.10799999999999998          5.8196546888206812E-006
  0.10910000000000003          6.1094096963637921E-006
  0.11020000000000002          6.4104865487019216E-006
  0.11130000000000001          6.7220748860557917E-006
  0.11240000000000000          7.0429191509896040E-006
  0.11349999999999999          7.3723258537932567E-006
  0.11460000000000004          7.7106933531461247E-006
  0.11570000000000003          8.0592481026535529E-006
  0.11680000000000001          8.4192233771311404E-006
  0.11790000000000000          8.7910848378661983E-006
  0.11899999999999999          9.1743404482250657E-006
  0.12009999999999998          9.5680470622020059E-006
  0.12120000000000003          9.9715998658203398E-006
  0.12230000000000002          1.0385225323260805E-005
  0.12340000000000001          1.0809758350659636E-005
  0.12450000000000000          1.1245829227845154E-005
  0.12559999999999999          1.1693080523399566E-005
  0.12670000000000003          1.2149963367845754E-005
  0.12780000000000002          1.2614334082171637E-005
  0.12890000000000001          1.3084544661977604E-005
  0.13000000000000000          1.3560299521485577E-005
  0.13109999999999999          1.4042733710083370E-005
  0.13219999999999998          1.4533670764648037E-005
  0.13330000000000003          1.5034471289253431E-005
  0.13440000000000002          1.5545136193394254E-005
  0.13550000000000001          1.6064144801929142E-005
  0.13660000000000000          1.6589036022195094E-005
  0.13769999999999999          1.7117425159084068E-005
  0.13880000000000003          1.7647875210967256E-005
  0.13990000000000002          1.8180200640925500E-005
  0.14100000000000001          1.8715158148550675E-005
  0.14210000000000000          1.9253729988120695E-005
  0.14319999999999999          1.9796370906986444E-005
  0.14429999999999998          2.0342617062850025E-005
  0.14540000000000003          2.0891220628980601E-005
  0.14650000000000002          2.1440575437734837E-005
  0.14760000000000001          2.1989217202642888E-005
  0.14870000000000000          2.2536076357935463E-005
  0.14979999999999999          2.3080399841999492E-005
  0.15090000000000003          2.3621543732586126E-005
  0.15200000000000002          2.4158740416167066E-005
  0.15310000000000001          2.4691056751178292E-005
  0.15420000000000000          2.5217577785949821E-005
  0.15529999999999999          2.5737612304508306E-005
  0.15639999999999998          2.6250698283545245E-005
  0.15750000000000003          2.6756453735285898E-005
  0.15860000000000002          2.7254382075623093E-005
  0.15970000000000001          2.7743766622731834E-005
  0.16080000000000000          2.8223681511005714E-005
  0.16189999999999999          2.8693058993664854E-005
  0.16300000000000003          2.9150791306162496E-005
  0.16410000000000002          2.9595832529591598E-005
  0.16520000000000001          3.0027184038769619E-005
  0.16630000000000000          3.0443974537772251E-005
  0.16739999999999999          3.0845592846159913E-005
  0.16850000000000004          3.1231673347062488E-005
  0.16960000000000003          3.1601954106005856E-005
  0.17070000000000002          3.1955973099681537E-005
  0.17180000000000001          3.2293020922222129E-005
  0.17290000000000000          3.2612257200523207E-005
  0.17399999999999999          3.2912972528717381E-005
  0.17510000000000003          3.3194679417644501E-005
  0.17620000000000002          3.3457017707402664E-005
  0.17730000000000001          3.3699721825538960E-005
  0.17840000000000000          3.3922475267897166E-005
  0.17949999999999999          3.4124903322660150E-005
  0.18060000000000004          3.4306594898222711E-005
  0.18170000000000003          3.4467120713085619E-005
  0.18280000000000002          3.4606095141495316E-005
  0.18390000000000001          3.4723434509939238E-005
  0.18500000000000000          3.4819448046615996E-005
  0.18609999999999999          3.4894732380049945E-005
  0.18720000000000003          3.4949989640150855E-005
  0.18830000000000002          3.4985634556502732E-005
  0.18940000000000001          3.5001521609953302E-005
  0.19050000000000000          3.4997039620062965E-005
  0.19159999999999999          3.4971464629049110E-005
  0.19270000000000004          3.4924425563073414E-005
  0.19380000000000003          3.4856377169486771E-005
  0.19490000000000002          3.4768436307782949E-005
  0.19600000000000001          3.4661989047887453E-005
  0.19710000000000000          3.4538257750679470E-005
  0.19819999999999999          3.4398075513305812E-005
  0.19930000000000003          3.4241926186947835E-005
  0.20040000000000002          3.4070097171931293E-005
  0.20150000000000001          3.3882912248370023E-005
  0.20260000000000000          3.3680757042017564E-005
  0.20369999999999999          3.3464133593949308E-005
  0.20480000000000004          3.3233700378329333E-005
  0.20590000000000003          3.2990541512842150E-005
  0.20700000000000002          3.2736264984120495E-005
  0.20810000000000001          3.2472704333483149E-005
  0.20920000000000000          3.2201605790757502E-005
  0.21029999999999999          3.1924195354801557E-005
  0.21140000000000003          3.1641171517546264E-005
  0.21250000000000002          3.1352981750384907E-005
  0.21360000000000001          3.1059917091622047E-005
  0.21470000000000000          3.0762366804990042E-005
  0.21579999999999999          3.0460940251939079E-005
  0.21690000000000004          3.0156796128719221E-005
  0.21800000000000003          2.9851848012182996E-005
  0.21910000000000002          2.9548611564675507E-005
  0.22020000000000001          2.9249518775029296E-005
  0.22130000000000000          2.8956039386682425E-005
  0.22239999999999999          2.8668522645600379E-005
  0.22350000000000003          2.8386666599542166E-005
  0.22460000000000002          2.8110564016967367E-005
  0.22570000000000001          2.7841291739602884E-005
  0.22680000000000000          2.7580861569729036E-005
  0.22789999999999999          2.7331654564475064E-005
  0.22900000000000004          2.7095489713244515E-005
  0.23010000000000003          2.6873191018237196E-005
  0.23120000000000002          2.6664938559404055E-005
  0.23230000000000001          2.6470796001374219E-005
  0.23340000000000000          2.6291123504049591E-005
  0.23450000000000004          2.6127005185114679E-005
  0.23560000000000003          2.5980079954022080E-005
  0.23670000000000002          2.5852030375970076E-005
  0.23780000000000001          2.5744318918439118E-005
  0.23890000000000000          2.5657773221607817E-005
  0.23999999999999999          2.5592487872925156E-005
  0.24110000000000004          2.5548095436531623E-005
  0.24220000000000003          2.5523977456030008E-005
  0.24330000000000002          2.5519961127426975E-005
  0.24440000000000001          2.5536795874356789E-005
  0.24550000000000000          2.5576016923876041E-005
  0.24660000000000004          2.5639610612413398E-005
  0.24770000000000003          2.5729246772241320E-005
  0.24880000000000002          2.5845611162364942E-005
  0.24990000000000001          2.5988219931602924E-005
  0.25100000000000000          2.6155528757951651E-005
  0.25209999999999999          2.6345767764721474E-005
  0.25320000000000004          2.6557745513853071E-005
  0.25430000000000003          2.6791361960929248E-005
  0.25540000000000002          2.7047473849959074E-005
  0.25650000000000001          2.7327308998789942E-005
  0.25760000000000000          2.7631900593403069E-005
  0.25870000000000004          2.7961590603806318E-005
  0.25980000000000003          2.8315713279877995E-005
  0.26090000000000002          2.8692455089182761E-005
  0.26200000000000001          2.9089542294966184E-005
  0.26310000000000000          2.9505197744581004E-005
  0.26419999999999999          2.9938511943325443E-005
  0.26530000000000004          3.0389481253220695E-005
  0.26640000000000003          3.0858744139547408E-005
  0.26750000000000002          3.1346717150878993E-005
  0.26860000000000001          3.1852767278903010E-005
  0.26970000000000000          3.2375002774639785E-005
  0.27080000000000004          3.2910778827496549E-005
  0.27190000000000003          3.3457730751248698E-005
  0.27300000000000002          3.4014501579801188E-005
  0.27410000000000001          3.4580440114947542E-005
  0.27520000000000000          3.5155066143485239E-005
  0.27629999999999999          3.5737790312847514E-005
  0.27740000000000004          3.6327455745773720E-005
  0.27850000000000003          3.6922127037538492E-005
  0.27960000000000002          3.7519617762878752E-005
  0.28070000000000001          3.8118021620899593E-005
  0.28179999999999999          3.8715137634422723E-005
  0.28290000000000004          3.9308524719668585E-005
  0.28400000000000003          3.9895850932221838E-005
  0.28510000000000002          4.0474904380967758E-005
  0.28620000000000001          4.1044211684489486E-005
  0.28730000000000000          4.1603088902771275E-005
  0.28840000000000005          4.2151044908674181E-005
  0.28950000000000004          4.2687282984839446E-005
  0.29060000000000002          4.3210355215701852E-005
  0.29170000000000001          4.3717715016096422E-005
  0.29280000000000000          4.4206266466058335E-005
  0.29389999999999999          4.4672935473495591E-005
  0.29500000000000004          4.5114898966853888E-005
  0.29610000000000003          4.5530159695768138E-005
  0.29720000000000002          4.5917440729677045E-005
  0.29830000000000001          4.6276025386755620E-005
  0.29940000000000000          4.6605295210606650E-005
  0.30050000000000004          4.6903936890880775E-005
  0.30160000000000003          4.7169782192208975E-005
  0.30270000000000002          4.7399946197397219E-005
  0.30380000000000001          4.7591369366268751E-005
  0.30490000000000000          4.7742025344628019E-005
  0.30599999999999999          4.7851575800445958E-005
  0.30709999999999998          4.7920573706501246E-005
  0.30819999999999997          4.7949244617479936E-005
  0.30930000000000007          4.7936246119202197E-005
  0.31040000000000006          4.7878747864156113E-005
  0.31150000000000005          4.7773421101733200E-005
  0.31260000000000004          4.7617861127941972E-005
  0.31370000000000003          4.7411434934469995E-005
  0.31480000000000002          4.7154793719523730E-005
  0.31590000000000001          4.6849050704618155E-005
  0.31700000000000000          4.6494758862531949E-005
  0.31809999999999999          4.6091674448685028E-005
  0.31919999999999998          4.5638749725180957E-005
  0.32029999999999997          4.5134795072949818E-005
  0.32140000000000007          4.4579181121657983E-005
  0.32250000000000006          4.3971642298852529E-005
  0.32360000000000005          4.3312120396872547E-005
  0.32470000000000004          4.2600582673908775E-005
  0.32580000000000003          4.1837265598583673E-005
  0.32690000000000002          4.1023075027620201E-005
  0.32800000000000001          4.0159105992639300E-005
  0.32910000000000000          3.9246358937812913E-005
  0.33019999999999999          3.8285652408372650E-005
  0.33129999999999998          3.7277844967316970E-005
  0.33239999999999997          3.6224068026054879E-005
  0.33350000000000007          3.5125369322482834E-005
  0.33460000000000006          3.3982807508433683E-005
  0.33570000000000005          3.2797452149676713E-005
  0.33680000000000004          3.1570394639854057E-005
  0.33790000000000003          3.0303228413683222E-005
  0.33900000000000002          2.8998336347282846E-005
  0.34010000000000001          2.7658652470560852E-005
  0.34120000000000000          2.6286918000548386E-005
  0.34229999999999999          2.4885150196493975E-005
  0.34339999999999998          2.3454545953425154E-005
  0.34449999999999997          2.1995836505082150E-005
  0.34560000000000007          2.0510256945269967E-005
  0.34670000000000006          1.8999986423294056E-005
  0.34780000000000005          1.7468035366617285E-005
  0.34890000000000004          1.5917901691862669E-005
