 -0.20000000000000001          0.0000000000000000
 -0.19890000000000002          0.0000000000000000
 -0.19780000000000000          0.0000000000000000
 -0.19670000000000001          0.0000000000000000
 -0.19560000000000002          0.0000000000000000
 -0.19450000000000001          0.0000000000000000
 -0.19340000000000002          0.0000000000000000
 -0.19230000000000000          0.0000000000000000
 -0.19120000000000001          0.0000000000000000
 -0.19010000000000002          0.0000000000000000
 -0.18900000000000000          8.2298018697910270E-022
 -0.18790000000000001          3.9086226686659064E-021
 -0.18680000000000002         -1.4076203569648763E-020
 -0.18570000000000000         -1.4068472015860807E-019
 -0.18460000000000001         -2.2075930604664742E-019
 -0.18350000000000000          1.2135423044134038E-018
 -0.18240000000000001          5.9399872874657419E-018
 -0.18130000000000002          4.5581398879846690E-018
 -0.18020000000000000         -3.9222168333798247E-017
 -0.17910000000000001         -1.4050668555838040E-016
 -0.17800000000000002         -9.4170727560679158E-017
 -0.17690000000000000          6.5537252587802406E-016
 -0.17580000000000001          2.2115555914359319E-015
 -0.17470000000000002          1.9383313500136645E-015
 -0.17360000000000000         -6.4175353839933131E-015
 -0.17250000000000001         -2.4428042257724179E-014
 -0.17140000000000000         -2.8794176922366035E-014
 -0.17030000000000001          3.5830696455642005E-014
 -0.16920000000000002          1.9506027652479996E-013
 -0.16810000000000000          2.9889366806243323E-013
 -0.16700000000000001         -4.7157749574885596E-014
 -0.16589999999999999         -1.1320030199671316E-012
 -0.16480000000000000         -2.2558083873081003E-012
 -0.16370000000000001         -1.1410285693722044E-012
 -0.16260000000000002          4.5507963716828748E-012
 -0.16150000000000000          1.2719153855145215E-011
 -0.16040000000000001          1.2764535088638507E-011
 -0.15930000000000000         -9.6841597241326127E-012
 -0.15820000000000001         -5.3564628427205108E-011
 -0.15710000000000002         -7.9900204508209782E-011
 -0.15600000000000000         -1.9347388274804089E-011
 -0.15490000000000001          1.6004757241727674E-010
 -0.15379999999999999          3.5149358423858246E-010
 -0.15270000000000000          2.8856228517781801E-010
 -0.15160000000000001         -2.6300647770760577E-010
 -0.15050000000000002         -1.1294446489173993E-009
 -0.14940000000000001         -1.4997053598975185E-009
 -0.14830000000000002         -3.2786218184810423E-010
 -0.14720000000000000          2.5179891505189289E-009
 -0.14610000000000001          5.1505613107849513E-009
 -0.14500000000000002          4.1052317101275548E-009
 -0.14390000000000000         -2.7920752376786595E-009
 -0.14280000000000001         -1.2592690445956123E-008
 -0.14169999999999999         -1.6382928791358609E-008
 -0.14060000000000000         -4.9514086164492710E-009
 -0.13950000000000001          2.0694773894547325E-008
 -0.13840000000000002          4.2786247433923563E-008
 -0.13730000000000001          3.4846056706783202E-008
 -0.13619999999999999         -1.4676690085480004E-008
 -0.13510000000000000         -7.9748232906240446E-008
 -0.13400000000000001         -1.0151522644719080E-007
 -0.13290000000000002         -3.2482947887046976E-008
 -0.13180000000000000          1.0534618866131495E-007
 -0.13070000000000001          2.0501309450082772E-007
 -0.12959999999999999          1.4363442346621014E-007
 -0.12850000000000000         -9.3143626145320013E-008
 -0.12740000000000001         -3.3862551163110766E-007
 -0.12630000000000002         -3.3287329870290705E-007
 -0.12520000000000001          4.0604611228900467E-008
 -0.12410000000000000          5.5206106708283187E-007
 -0.12300000000000001          6.9811159164601122E-007
 -0.12190000000000001          1.1354497075899417E-007
 -0.12080000000000000         -9.5268762834166409E-007
 -0.11970000000000000         -1.5819067584743607E-006
 -0.11860000000000001         -8.2388828559487592E-007
 -0.11750000000000001          1.3051879932390875E-006
 -0.11640000000000000          3.3403291581635131E-006
 -0.11530000000000000          3.1484391911362763E-006
 -0.11420000000000001         -2.4261606768050115E-007
 -0.11310000000000001         -5.1436832109175157E-006
 -0.11200000000000000         -7.6646683737635612E-006
 -0.11090000000000001         -4.4883527152705938E-006
 -0.10980000000000001          3.8176449379534461E-006
 -0.10870000000000000          1.1906193321920000E-005
 -0.10760000000000000          1.2856819921580609E-005
 -0.10650000000000001          3.8393332033592742E-006
 -0.10540000000000001         -1.0242256394121796E-005
 -0.10430000000000000         -1.9055343727814034E-005
 -0.10320000000000000         -1.4594937056244817E-005
 -0.10210000000000001          1.3171385262467084E-006
 -0.10100000000000001          1.6740534192649648E-005
  -9.9900000000000003E-002     1.8499125872040167E-005
  -9.8799999999999999E-002     4.0869495023798663E-006
  -9.7700000000000009E-002    -1.3902991668146569E-005
  -9.6600000000000005E-002    -1.6816809875308536E-005
  -9.5500000000000002E-002     2.8839081096521113E-006
  -9.4400000000000012E-002     3.0739771318621933E-005
  -9.3300000000000008E-002     3.7886224163230509E-005
  -9.2200000000000004E-002     5.0264002311450895E-006
  -9.1100000000000000E-002    -5.5210952268680558E-005
  -9.0000000000000011E-002    -9.8747179436031729E-005
  -8.8900000000000007E-002    -7.9255994933191687E-005
  -8.7800000000000003E-002     1.2193683687655721E-005
  -8.6699999999999999E-002     1.2873458035755903E-004
  -8.5600000000000009E-002     1.9091094145551324E-004
  -8.4500000000000006E-002     1.4101201668381691E-004
  -8.3400000000000002E-002    -9.4526421889895573E-006
  -8.2299999999999998E-002    -1.7757331079337746E-004
  -8.1200000000000008E-002    -2.5977395125664771E-004
  -8.0100000000000005E-002    -2.0232582755852491E-004
  -7.9000000000000001E-002    -3.9919112168718129E-005
  -7.7899999999999997E-002     1.2857325782533735E-004
  -7.6800000000000007E-002     2.1100188314449042E-004
  -7.5700000000000003E-002     1.8598152382764965E-004
  -7.4600000000000000E-002     1.0962416854454204E-004
  -7.3500000000000010E-002     5.8628113038139418E-005
  -7.2399999999999992E-002     5.5850858188932762E-005
  -7.1300000000000002E-002     4.3194922909606248E-005
  -7.0200000000000012E-002    -6.7048342316411436E-005
  -6.9099999999999995E-002    -2.9554119100794196E-004
  -6.8000000000000005E-002    -5.3320999722927809E-004
  -6.6900000000000015E-002    -5.7950086193159223E-004
  -6.5799999999999997E-002    -2.7834580396302044E-004
  -6.4700000000000008E-002     3.3340469235554338E-004
  -6.3599999999999990E-002     9.8145229276269674E-004
  -6.2500000000000000E-002     1.2760633835569024E-003
  -6.1400000000000010E-002     9.4986206386238337E-004
  -6.0299999999999992E-002     6.2958322814665735E-005
  -5.9200000000000003E-002    -9.7766483668237925E-004
  -5.8100000000000013E-002    -1.6286669997498393E-003
  -5.6999999999999995E-002    -1.5351286856457591E-003
  -5.5900000000000005E-002    -7.5619277777150273E-004
  -5.4800000000000015E-002     2.7335344930179417E-004
  -5.3699999999999998E-002     1.0319597786292434E-003
  -5.2600000000000008E-002     1.2497287243604660E-003
  -5.1499999999999990E-002     1.0456837480887771E-003
  -5.0400000000000000E-002     7.5736909639090300E-004
  -4.9300000000000010E-002     6.0005922568961978E-004
  -4.8199999999999993E-002     4.4651402276940644E-004
  -4.7100000000000003E-002    -5.8520512538962066E-005
  -4.6000000000000013E-002    -1.1069133179262280E-003
  -4.4899999999999995E-002    -2.3776120506227016E-003
  -4.3800000000000006E-002    -3.0710911378264427E-003
  -4.2699999999999988E-002    -2.3995200172066689E-003
  -4.1599999999999998E-002    -2.2596394410356879E-004
  -4.0500000000000008E-002     2.6380573399364948E-003
  -3.9399999999999991E-002     4.7766598872840405E-003
  -3.8300000000000001E-002     4.9975966103374958E-003
  -3.7200000000000011E-002     3.0985025223344564E-003
  -3.6099999999999993E-002     2.1650674170814455E-005
  -3.5000000000000003E-002    -2.7383319102227688E-003
  -3.3900000000000013E-002    -4.0699583478271961E-003
  -3.2799999999999996E-002    -3.8630040362477303E-003
  -3.1700000000000006E-002    -2.8815334662795067E-003
  -3.0599999999999988E-002    -2.0225101616233587E-003
  -2.9499999999999998E-002    -1.5550985699519515E-003
  -2.8400000000000009E-002    -9.4910495681688190E-004
  -2.7299999999999991E-002     5.5643502855673432E-004
  -2.6200000000000001E-002     3.0828427989035845E-003
  -2.5100000000000011E-002     5.6521459482610226E-003
  -2.3999999999999994E-002     6.5880334004759789E-003
  -2.2900000000000004E-002     4.5994115062057972E-003
  -2.1800000000000014E-002    -1.7576653044670820E-004
  -2.0699999999999996E-002    -5.9418478049337864E-003
  -1.9600000000000006E-002    -1.0098533704876900E-002
  -1.8499999999999989E-002    -1.0700575076043606E-002
  -1.7399999999999999E-002    -7.5907623395323753E-003
  -1.6300000000000009E-002    -2.4451955687254667E-003
  -1.5199999999999991E-002     2.3099372629076242E-003
  -1.4100000000000001E-002     4.9674781039357185E-003
  -1.3000000000000012E-002     5.3740129806101322E-003
  -1.1899999999999994E-002     4.5738746412098408E-003
  -1.0800000000000004E-002     3.6094253882765770E-003
  -9.6999999999999864E-003     2.4930010549724102E-003
  -8.5999999999999965E-003     2.5508651742711663E-004
  -7.5000000000000067E-003    -3.8970317691564560E-003
  -6.3999999999999890E-003    -9.2571713030338287E-003
  -5.2999999999999992E-003    -1.3368060812354088E-002
  -4.2000000000000093E-003    -1.3338074088096619E-002
  -3.0999999999999917E-003    -7.9589756205677986E-003
  -2.0000000000000018E-003     9.5115345902740955E-004
  -9.0000000000001190E-004     9.1780787333846092E-003
   2.0000000000000573E-004     1.2525737285614014E-002
   1.2999999999999956E-003     9.4399200752377510E-003
   2.4000000000000132E-003     1.9804262556135654E-003
   3.5000000000000031E-003    -5.5987494997680187E-003
   4.5999999999999930E-003    -9.6793659031391144E-003
   5.7000000000000106E-003    -9.5038600265979767E-003
   6.8000000000000005E-003    -7.2462200187146664E-003
   7.8999999999999904E-003    -5.9923510998487473E-003
   9.0000000000000080E-003    -7.2317789308726788E-003
   1.0099999999999998E-002    -9.7563005983829498E-003
   1.1199999999999988E-002    -1.0745359584689140E-002
   1.2300000000000005E-002    -8.1494832411408424E-003
   1.3399999999999995E-002    -2.5354162789881229E-003
   1.4500000000000013E-002     3.0046307947486639E-003
   1.5600000000000003E-002     4.8367832787334919E-003
   1.6699999999999993E-002     1.2477065902203321E-003
   1.7800000000000010E-002    -6.3353483565151691E-003
   1.8900000000000000E-002    -1.4213831163942814E-002
   1.9999999999999990E-002    -1.8754350021481514E-002
   2.1100000000000008E-002    -1.8595792353153229E-002
   2.2199999999999998E-002    -1.5258090570569038E-002
   2.3300000000000015E-002    -1.1796700768172741E-002
   2.4400000000000005E-002    -1.0523761622607708E-002
   2.5499999999999995E-002    -1.1451683938503265E-002
   2.6600000000000013E-002    -1.2600657530128956E-002
   2.7700000000000002E-002    -1.1912393383681774E-002
   2.8799999999999992E-002    -9.2868544161319733E-003
   2.9900000000000010E-002    -7.0163658820092678E-003
   3.1000000000000000E-002    -8.1249391660094261E-003
   3.2099999999999990E-002    -1.3757806271314621E-002
   3.3200000000000007E-002    -2.1700490266084671E-002
   3.4299999999999997E-002    -2.7466587722301483E-002
   3.5400000000000015E-002    -2.7356784790754318E-002
   3.6500000000000005E-002    -2.1337946876883507E-002
   3.7599999999999995E-002    -1.3391754589974880E-002
   3.8700000000000012E-002    -8.8654058054089546E-003
   3.9800000000000002E-002    -1.0661179199814796E-002
   4.0899999999999992E-002    -1.7087107524275780E-002
   4.2000000000000010E-002    -2.3028083145618439E-002
   4.3099999999999999E-002    -2.3597868159413338E-002
   4.4200000000000017E-002    -1.7564564943313599E-002
   4.5300000000000007E-002    -8.0685839056968689E-003
   4.6399999999999997E-002    -3.0215820879675448E-004
   4.7500000000000014E-002     2.0946038421243429E-003
   4.8600000000000004E-002    -7.4028765084221959E-004
   4.9699999999999994E-002    -5.3245192393660545E-003
   5.0800000000000012E-002    -7.2790156118571758E-003
   5.1900000000000002E-002    -3.8830328267067671E-003
   5.2999999999999992E-002     4.7970614396035671E-003
   5.4099999999999981E-002     1.6595801338553429E-002
   5.5200000000000027E-002     2.8863783925771713E-002
   5.6300000000000017E-002     3.9870616048574448E-002
   5.7400000000000007E-002     4.9385003745555878E-002
   5.8499999999999996E-002     5.8401189744472504E-002
   5.9599999999999986E-002     6.8378768861293793E-002
   6.0700000000000032E-002     8.0367371439933777E-002
   6.1800000000000022E-002     9.4619408249855042E-002
   6.2900000000000011E-002    0.11086796224117279
   6.4000000000000001E-002    0.12903714179992676
   6.5099999999999991E-002    0.14994385838508606
   6.6199999999999981E-002    0.17514050006866455
   6.7300000000000026E-002    0.20600524544715881
   6.8400000000000016E-002    0.24232897162437439
   6.9500000000000006E-002    0.28210762143135071
   7.0599999999999996E-002    0.32255125045776367
   7.1699999999999986E-002    0.36193615198135376
   7.2800000000000031E-002    0.40083014965057373
   7.3900000000000021E-002    0.44194620847702026
   7.5000000000000011E-002    0.48863971233367920
   7.6100000000000001E-002    0.54332363605499268
   7.7199999999999991E-002    0.60700756311416626
   7.8299999999999981E-002    0.68002051115036011
   7.9400000000000026E-002    0.76221281290054321
   8.0500000000000016E-002    0.85280656814575195
   8.1600000000000006E-002    0.95009529590606689
   8.2699999999999996E-002     1.0517873764038086
   8.3799999999999986E-002     1.1564525365829468
   8.4900000000000031E-002     1.2653479576110840
   8.6000000000000021E-002     1.3828755617141724
   8.7100000000000011E-002     1.5143992900848389
   8.8200000000000001E-002     1.6631613969802856
   8.9299999999999990E-002     1.8289161920547485
   9.0399999999999980E-002     2.0081665515899658
   9.1500000000000026E-002     2.1975238323211670
   9.2600000000000016E-002     2.3959200382232666
   9.3700000000000006E-002     2.6048207283020020
   9.4799999999999995E-002     2.8269376754760742
   9.5899999999999985E-002     3.0644493103027344
   9.7000000000000031E-002     3.3187909126281738
   9.8100000000000021E-002     3.5922832489013672
   9.9200000000000010E-002     3.8876540660858154
  0.10030000000000000          4.2078294754028320
  0.10139999999999999          4.5530891418457031
  0.10249999999999998          4.9204058647155762
  0.10360000000000003          5.3055615425109863
  0.10470000000000002          5.7062926292419434
  0.10580000000000001          6.1250848770141602
  0.10690000000000000          6.5686779022216797
  0.10799999999999998          7.0449271202087402
  0.10910000000000003          7.5596189498901367
  0.11020000000000002          8.1141128540039062
  0.11130000000000001          8.7055482864379883
  0.11240000000000000          9.3288116455078125
  0.11349999999999999          9.9794492721557617
  0.11460000000000004          10.655196189880371
  0.11570000000000003          11.357202529907227
  0.11680000000000001          12.092813491821289
  0.11790000000000000          12.870447158813477
  0.11899999999999999          13.698979377746582
  0.12009999999999998          14.581307411193848
  0.12120000000000003          15.514238357543945
  0.12230000000000002          16.491031646728516
  0.12340000000000001          17.506786346435547
  0.12450000000000000          18.561765670776367
  0.12559999999999999          19.661560058593750
  0.12670000000000003          20.813199996948242
  0.12780000000000002          22.017787933349609
  0.12890000000000001          23.273731231689453
  0.13000000000000000          24.580919265747070
  0.13109999999999999          25.942544937133789
  0.13219999999999998          27.364837646484375
  0.13330000000000003          28.854839324951172
  0.13440000000000002          30.412391662597656
  0.13550000000000001          32.030750274658203
  0.13660000000000000          33.702480316162109
  0.13769999999999999          35.425945281982422
  0.13880000000000003          37.205451965332031
  0.13990000000000002          39.047786712646484
  0.14100000000000001          40.959480285644531
  0.14210000000000000          42.944183349609375
  0.14319999999999999          45.001773834228516
  0.14429999999999998          47.127677917480469
  0.14540000000000003          49.321475982666016
  0.14650000000000002          51.581764221191406
  0.14760000000000001          53.907508850097656
  0.14870000000000000          56.299808502197266
  0.14979999999999999          58.762195587158203
  0.15090000000000003          61.296730041503906
  0.15200000000000002          63.903560638427734
  0.15310000000000001          66.584014892578125
  0.15420000000000000          69.333663940429688
  0.15529999999999999          72.149650573730469
  0.15639999999999998          75.033454895019531
  0.15750000000000003          77.986778259277344
  0.15860000000000002          81.011604309082031
  0.15970000000000001          84.102172851562500
  0.16080000000000000          87.258399963378906
  0.16189999999999999          90.476409912109375
  0.16300000000000003          93.754974365234375
  0.16410000000000002          97.104347229003906
  0.16520000000000001          100.52408599853516
  0.16630000000000000          104.00844573974609
  0.16739999999999999          107.55018615722656
  0.16850000000000004          111.14233398437500
  0.16960000000000003          114.78575897216797
  0.17070000000000002          118.48509216308594
  0.17180000000000001          122.24254608154297
  0.17290000000000000          126.05406188964844
  0.17399999999999999          129.91372680664062
  0.17510000000000003          133.81686401367188
  0.17620000000000002          137.76235961914062
  0.17730000000000001          141.74914550781250
  0.17840000000000000          145.77610778808594
  0.17949999999999999          149.83558654785156
  0.18060000000000004          153.92315673828125
  0.18170000000000003          158.03622436523438
  0.18280000000000002          162.17398071289062
  0.18390000000000001          166.33917236328125
  0.18500000000000000          170.53224182128906
  0.18609999999999999          174.74438476562500
  0.18720000000000003          178.95863342285156
  0.18830000000000002          183.17324829101562
  0.18940000000000001          187.38780212402344
  0.19050000000000000          191.61000061035156
  0.19159999999999999          195.83377075195312
  0.19270000000000004          200.04806518554688
  0.19380000000000003          204.24816894531250
  0.19490000000000002          208.43119812011719
  0.19600000000000001          212.59533691406250
  0.19710000000000000          216.74717712402344
  0.19819999999999999          220.86895751953125
  0.19930000000000003          224.93962097167969
  0.20040000000000002          228.95368957519531
  0.20150000000000001          232.92227172851562
  0.20260000000000000          236.85379028320312
  0.20369999999999999          240.74649047851562
  0.20480000000000004          244.59260559082031
  0.20590000000000003          248.37466430664062
  0.20700000000000002          252.07539367675781
  0.20810000000000001          255.69467163085938
  0.20920000000000000          259.23901367187500
  0.21029999999999999          262.70977783203125
  0.21140000000000003          266.10247802734375
  0.21250000000000002          269.39761352539062
  0.21360000000000001          272.58178710937500
  0.21470000000000000          275.65411376953125
  0.21579999999999999          278.62988281250000
  0.21690000000000004          281.51126098632812
  0.21800000000000003          284.29809570312500
  0.21910000000000002          286.95568847656250
  0.22020000000000001          289.47467041015625
  0.22130000000000000          291.84713745117188
  0.22239999999999999          294.09054565429688
  0.22350000000000003          296.21817016601562
  0.22460000000000002          298.21334838867188
  0.22570000000000001          300.06262207031250
  0.22680000000000000          301.75250244140625
  0.22789999999999999          303.27624511718750
  0.22900000000000004          304.65423583984375
  0.23010000000000003          305.88983154296875
  0.23120000000000002          306.97488403320312
  0.23230000000000001          307.88558959960938
  0.23340000000000000          308.62145996093750
  0.23450000000000004          309.17712402343750
  0.23560000000000003          309.57458496093750
  0.23670000000000002          309.81201171875000
  0.23780000000000001          309.88388061523438
  0.23890000000000000          309.76611328125000
  0.23999999999999999          309.44946289062500
  0.24110000000000004          308.95318603515625
  0.24220000000000003          308.29507446289062
  0.24330000000000002          307.48184204101562
  0.24440000000000001          306.49368286132812
  0.24550000000000000          305.31707763671875
  0.24660000000000004          303.94958496093750
  0.24770000000000003          302.39123535156250
  0.24880000000000002          300.66793823242188
  0.24990000000000001          298.79855346679688
  0.25100000000000000          296.76879882812500
  0.25209999999999999          294.54858398437500
  0.25320000000000004          292.14056396484375
  0.25430000000000003          289.55642700195312
  0.25540000000000002          286.83547973632812
  0.25650000000000001          283.98123168945312
  0.25760000000000000          280.98950195312500
  0.25870000000000004          277.83062744140625
  0.25980000000000003          274.50164794921875
  0.26090000000000002          271.01293945312500
  0.26200000000000001          267.41317749023438
  0.26310000000000000          263.71984863281250
  0.26419999999999999          259.92718505859375
  0.26530000000000004          255.99841308593750
  0.26640000000000003          251.92047119140625
  0.26750000000000002          247.72663879394531
  0.26860000000000001          243.46163940429688
  0.26970000000000000          239.15080261230469
  0.27080000000000004          234.76829528808594
  0.27190000000000003          230.29528808593750
  0.27300000000000002          225.71450805664062
  0.27410000000000001          221.05000305175781
  0.27520000000000000          216.36836242675781
  0.27629999999999999          211.68913269042969
  0.27740000000000004          207.00436401367188
  0.27850000000000003          202.28067016601562
  0.27960000000000002          197.49229431152344
  0.28070000000000001          192.66612243652344
  0.28179999999999999          187.85786437988281
  0.28290000000000004          183.11581420898438
  0.28400000000000003          178.42373657226562
  0.28510000000000002          173.74584960937500
  0.28620000000000001          169.06311035156250
  0.28730000000000000          164.39770507812500
  0.28840000000000005          159.80155944824219
  0.28950000000000004          155.31301879882812
  0.29060000000000002          150.91989135742188
  0.29170000000000001          146.59324645996094
  0.29280000000000000          142.30712890625000
  0.29389999999999999          138.08865356445312
  0.29500000000000004          133.98939514160156
  0.29610000000000003          130.04502868652344
  0.29720000000000002          126.24597930908203
  0.29830000000000001          122.54938507080078
  0.29940000000000000          118.92591857910156
  0.30050000000000004          115.40269470214844
  0.30160000000000003          112.04528808593750
  0.30270000000000002          108.87979125976562
  0.30380000000000001          105.89398193359375
  0.30490000000000000          103.03844451904297
  0.30599999999999999          100.28887176513672
  0.30709999999999998          97.670982360839844
  0.30819999999999997          95.230018615722656
  0.30930000000000007          93.014732360839844
  0.31040000000000006          91.004241943359375
  0.31150000000000005          89.137222290039062
  0.31260000000000004          87.370513916015625
  0.31370000000000003          85.736167907714844
  0.31480000000000002          84.286422729492188
  0.31590000000000001          83.074996948242188
  0.31700000000000000          82.082054138183594
  0.31809999999999999          81.244071960449219
  0.31919999999999998          80.505538940429688
  0.32029999999999997          79.878372192382812
  0.32140000000000007          79.419532775878906
  0.32250000000000006          79.185386657714844
  0.32360000000000005          79.166969299316406
  0.32470000000000004          79.290618896484375
  0.32580000000000003          79.494926452636719
  0.32690000000000002          79.795005798339844
  0.32800000000000001          80.239471435546875
  0.32910000000000000          80.887023925781250
  0.33019999999999999          81.725502014160156
  0.33129999999999998          82.680618286132812
  0.33239999999999997          83.694793701171875
  0.33350000000000007          84.764839172363281
  0.33460000000000006          85.943542480468750
  0.33570000000000005          87.278427124023438
  0.33680000000000004          88.769981384277344
  0.33790000000000003          90.353126525878906
  0.33900000000000002          91.971023559570312
  0.34010000000000001          93.604385375976562
  0.34120000000000000          95.304550170898438
  0.34229999999999999          97.111648559570312
  0.34339999999999998          99.028518676757812
  0.34449999999999997          101.00653076171875
  0.34560000000000007          102.99142456054688
  0.34670000000000006          104.96464538574219
  0.34780000000000005          106.96267700195312
  0.34890000000000004          109.02344512939453
