 -0.20000000000000001          0.0000000000000000
 -0.19890000000000002          0.0000000000000000
 -0.19780000000000000          0.0000000000000000
 -0.19670000000000001          0.0000000000000000
 -0.19560000000000002          0.0000000000000000
 -0.19450000000000001          0.0000000000000000
 -0.19340000000000002          0.0000000000000000
 -0.19230000000000000          0.0000000000000000
 -0.19120000000000001          0.0000000000000000
 -0.19010000000000002          0.0000000000000000
 -0.18900000000000000          0.0000000000000000
 -0.18790000000000001          0.0000000000000000
 -0.18680000000000002          6.8656758389440845E-040
 -0.18570000000000000          1.8624299156934277E-038
 -0.18460000000000001          2.6132570674741335E-037
 -0.18350000000000000          1.7675633549051633E-036
 -0.18240000000000001          7.4280366205392358E-036
 -0.18130000000000002          2.3419789220066623E-035
 -0.18020000000000000          5.1186815410778861E-035
 -0.17910000000000001          1.1046316067331741E-036
 -0.17800000000000002         -4.7768990969422432E-034
 -0.17690000000000000         -1.4041699708789666E-033
 -0.17580000000000001          2.3725404262941920E-034
 -0.17470000000000002          9.7100748413675324E-033
 -0.17360000000000000          1.2067492027743167E-032
 -0.17250000000000001         -5.4798055417113101E-032
 -0.17140000000000000         -1.8287225565954219E-031
 -0.17030000000000001          6.2732260249499525E-032
 -0.16920000000000002          1.3653707307964868E-030
 -0.16810000000000000          2.2597522844275369E-030
 -0.16700000000000001         -3.7335784498500989E-030
 -0.16589999999999999         -1.9988933489405156E-029
 -0.16480000000000000         -1.8882608611608982E-029
 -0.16370000000000001          6.4700852128242510E-029
 -0.16260000000000002          2.1403430028721377E-028
 -0.16150000000000000          1.0381667587321063E-028
 -0.16040000000000001         -7.5917264698003396E-028
 -0.15930000000000000         -1.8523563390237324E-027
 -0.15820000000000001         -2.3780658322152013E-028
 -0.15710000000000002          7.0984708702499886E-027
 -0.15600000000000000          1.3945117926179591E-026
 -0.15490000000000001         -1.9973332192964093E-027
 -0.15379999999999999         -5.6648120092848324E-026
 -0.15270000000000000         -9.6929773799955426E-026
 -0.15160000000000001          2.7218052405401015E-026
 -0.15050000000000002          3.9653528141705529E-025
 -0.14940000000000001          6.4371044935653906E-025
 -0.14830000000000002         -1.5349278319670139E-025
 -0.14720000000000000         -2.4425939998312849E-024
 -0.14610000000000001         -4.0809876941395355E-024
 -0.14500000000000002          1.6219294523110927E-025
 -0.14390000000000000          1.3098538348824612E-023
 -0.14280000000000001          2.4092269584774729E-023
 -0.14169999999999999          5.8512550687583563E-024
 -0.14060000000000000         -5.9853590560632126E-023
 -0.13950000000000001         -1.2863436026507766E-022
 -0.13840000000000002         -7.0886346745563526E-023
 -0.13730000000000001          2.2378095663657368E-022
 -0.13619999999999999          6.0647712221457876E-022
 -0.13510000000000000          5.2464253468602559E-022
 -0.13400000000000001         -6.1674998446672886E-022
 -0.13290000000000002         -2.4734620844540942E-021
 -0.13180000000000000         -2.9647692000645545E-021
 -0.13070000000000001          7.1926585435753542E-022
 -0.12959999999999999          8.5027494595588268E-021
 -0.12850000000000000          1.3624609807221693E-020
 -0.12740000000000001          4.5146516169121237E-021
 -0.12630000000000002         -2.3407668449537816E-020
 -0.12520000000000001         -5.2000453945378930E-020
 -0.12410000000000000         -3.9898455848081482E-020
 -0.12300000000000001          4.4163751284400081E-020
 -0.12190000000000001          1.6449878470491517E-019
 -0.12080000000000000          1.9395167486351091E-019
 -0.11970000000000000         -8.4678140033755326E-021
 -0.11860000000000001         -4.1846079742201435E-019
 -0.11750000000000001         -7.0776054751874707E-019
 -0.11640000000000000         -3.7417863975657128E-019
 -0.11530000000000000          7.7073468643180990E-019
 -0.11420000000000001          2.0570976809749546E-018
 -0.11310000000000001          2.0078858112020311E-018
 -0.11200000000000000         -5.4113023469755639E-019
 -0.11090000000000001         -4.7224398779239330E-018
 -0.10980000000000001         -6.9411810583009375E-018
 -0.10870000000000000         -2.9118176176617103E-018
 -0.10760000000000000          7.8121153893549576E-018
 -0.10650000000000001          1.8250367096165718E-017
 -0.10540000000000001          1.6314554358916044E-017
 -0.10430000000000000         -5.2203000362848990E-018
 -0.10320000000000000         -3.6964888395092091E-017
 -0.10210000000000001         -5.1497260617566710E-017
 -0.10100000000000001         -2.1066711941116864E-017
  -9.9900000000000003E-002     5.2332716344967719E-017
  -9.8799999999999999E-002     1.1948012496419686E-016
  -9.7700000000000009E-002     1.0617282046380307E-016
  -9.6600000000000005E-002    -2.3963925271473644E-017
  -9.5500000000000002E-002    -2.0848812053691205E-016
  -9.4400000000000012E-002    -2.9251719027121746E-016
  -9.3300000000000008E-002    -1.3454917196809588E-016
  -9.2200000000000004E-002     2.4239724493055565E-016
  -9.1100000000000000E-002     5.8503591578965182E-016
  -9.0000000000000011E-002     5.4161981271003416E-016
  -8.8900000000000007E-002    -4.0330782260521416E-017
  -8.7800000000000003E-002    -8.6591505865405241E-016
  -8.6699999999999999E-002    -1.2652561002358216E-015
  -8.5600000000000009E-002    -6.6626319905778702E-016
  -8.4500000000000006E-002     8.1203677518686406E-016
  -8.3400000000000002E-002     2.1697104697756750E-015
  -8.2299999999999998E-002     2.0985109978118466E-015
  -8.1200000000000008E-002     8.7785779969386441E-017
  -8.0100000000000005E-002    -2.7754044603576751E-015
  -7.9000000000000001E-002    -4.1960462136684563E-015
  -7.7899999999999997E-002    -2.3456222722614481E-015
  -7.6800000000000007E-002     2.2694424583260013E-015
  -7.5700000000000003E-002     6.4283638531910121E-015
  -7.4600000000000000E-002     6.2009947991595402E-015
  -7.3500000000000010E-002     3.1450947430438931E-016
  -7.2399999999999992E-002    -7.7726784088335242E-015
  -7.1300000000000002E-002    -1.1451031637667308E-014
  -7.0200000000000012E-002    -5.9587425292118631E-015
  -6.9099999999999995E-002     6.6749855425971005E-015
  -6.8000000000000005E-002     1.7292929783453703E-014
  -6.6900000000000015E-002     1.5654414003691934E-014
  -6.5799999999999997E-002    -6.3977859637951318E-016
  -6.4700000000000008E-002    -2.1546747879289639E-014
  -6.3599999999999990E-002    -2.9778480029052368E-014
  -6.2500000000000000E-002    -1.4063037301510761E-014
  -6.1400000000000010E-002     1.9020028268839327E-014
  -6.0299999999999992E-002     4.5593198406143967E-014
  -5.9200000000000003E-002     4.0481022532548941E-014
  -5.8100000000000013E-002    -1.1148425305612447E-015
  -5.6999999999999995E-002    -5.3732785229706689E-014
  -5.5900000000000005E-002    -7.5405136236612880E-014
  -5.4800000000000015E-002    -3.9387807929504651E-014
  -5.3699999999999998E-002     3.8919771404169815E-014
  -5.2600000000000008E-002     1.0433764041552912E-013
  -5.1499999999999990E-002     9.8915538574665535E-014
  -5.0400000000000000E-002     1.0448918816232007E-014
  -4.9300000000000010E-002    -1.0620546326070568E-013
  -4.8199999999999993E-002    -1.5978371241138351E-013
  -4.7100000000000003E-002    -9.1470478110269871E-014
  -4.6000000000000013E-002     6.7732190028087919E-014
  -4.4899999999999995E-002     2.0272294314147704E-013
  -4.3800000000000006E-002     1.9298840683076163E-013
  -4.2699999999999988E-002     1.4228212114357139E-014
  -4.1599999999999998E-002    -2.1835936108317161E-013
  -4.0500000000000008E-002    -3.1571888658120384E-013
  -3.9399999999999991E-002    -1.5924326473345379E-013
  -3.8300000000000001E-002     1.8044680333284546E-013
  -3.7200000000000011E-002     4.5717693953478689E-013
  -3.6099999999999993E-002     4.1519695667679990E-013
  -3.5000000000000003E-002     3.4543581187894629E-015
  -3.3900000000000013E-002    -5.3053427536559061E-013
  -3.2799999999999996E-002    -7.7385802843901730E-013
  -3.1700000000000006E-002    -4.5007479188875765E-013
  -3.0599999999999988E-002     3.2150660172342027E-013
  -2.9499999999999998E-002     1.0316000441032425E-012
  -2.8400000000000009E-002     1.1045071107718130E-012
  -2.7299999999999991E-002     3.4394180754328263E-013
  -2.6200000000000001E-002    -8.3334115432917577E-013
  -2.5100000000000011E-002    -1.6050905179629260E-012
  -2.3999999999999994E-002    -1.3104892605114715E-012
  -2.2900000000000004E-002     7.4782853317517141E-015
  -2.1800000000000014E-002     1.5162263805601484E-012
  -2.0699999999999996E-002     2.1077508228356523E-012
  -1.9600000000000006E-002     1.2063513165835871E-012
  -1.8499999999999989E-002    -7.1415724896273236E-013
  -1.7399999999999999E-002    -2.3460118396545493E-012
  -1.6300000000000009E-002    -2.4286412724644491E-012
  -1.5199999999999991E-002    -7.0337588834942788E-013
  -1.4100000000000001E-002     1.7784516264177097E-012
  -1.3000000000000012E-002     3.2967344132384113E-012
  -1.1899999999999994E-002     2.6591398354092188E-012
  -1.0800000000000004E-002     1.0082277216881194E-013
  -9.6999999999999864E-003    -2.8021192137461792E-012
  -8.5999999999999965E-003    -4.1864762524712607E-012
  -7.5000000000000067E-003    -3.1683241100144421E-012
  -6.3999999999999890E-003    -3.8771221476385787E-013
  -5.2999999999999992E-003     2.5491867731292084E-012
  -4.2000000000000093E-003     4.2386628061608089E-012
  -3.0999999999999917E-003     4.2880247963505980E-012
  -2.0000000000000018E-003     3.1414640853932863E-012
  -9.0000000000001190E-004     1.2222616582041601E-012
   2.0000000000000573E-004    -1.6147331952445776E-012
   1.2999999999999956E-003    -5.5595012100895236E-012
   2.4000000000000132E-003    -9.5906216995844673E-012
   3.5000000000000031E-003    -1.0874146201544921E-011
   4.5999999999999930E-003    -6.1069135859348478E-012
   5.7000000000000106E-003     5.4369798593856267E-012
   6.8000000000000005E-003     1.9342966464663824E-011
   7.8999999999999904E-003     2.6777687706092124E-011
   9.0000000000000080E-003     1.9501808154465117E-011
   1.0099999999999998E-002    -3.2617485101749111E-012
   1.1199999999999988E-002    -3.1142054213173509E-011
   1.2300000000000005E-002    -4.6368554829090414E-011
   1.3399999999999995E-002    -3.4590667136180642E-011
   1.4500000000000013E-002     3.3951812715427021E-012
   1.5600000000000003E-002     4.7784526335803434E-011
   1.6699999999999993E-002     6.8971620081903495E-011
   1.7800000000000010E-002     4.6439827677824397E-011
   1.8900000000000000E-002    -1.4234060111140145E-011
   1.9999999999999990E-002    -7.9221344762014922E-011
   2.1100000000000008E-002    -1.0406914219274199E-010
   2.2199999999999998E-002    -6.2622344809692976E-011
   2.3300000000000015E-002     3.1186265375682254E-011
   2.4400000000000005E-002     1.2549865313626896E-010
   2.5499999999999995E-002     1.5935484876106187E-010
   2.6600000000000013E-002     1.0235520764290129E-010
   2.7700000000000002E-002    -2.0898900665589082E-011
   2.8799999999999992E-002    -1.4085836663735307E-010
   2.9900000000000010E-002    -1.8527482326113898E-010
   3.1000000000000000E-002    -1.2823601902578474E-010
   3.2099999999999990E-002    -1.2205475345694605E-011
   3.3200000000000007E-002     7.6304247642600131E-011
   3.4299999999999997E-002     6.6611473281685818E-011
   3.5400000000000015E-002    -3.8400296831220260E-011
   3.6500000000000005E-002    -1.4873813292126670E-010
   3.7599999999999995E-002    -1.3575644774999063E-010
   3.8700000000000012E-002     7.9550525888816281E-011
   3.9800000000000002E-002     4.5130521542091628E-010
   4.0899999999999992E-002     7.9935746910564376E-010
   4.2000000000000010E-002     8.8423718347385716E-010
   4.3099999999999999E-002     5.3482507311741756E-010
   4.4200000000000017E-002    -2.3879034860563308E-010
   4.5300000000000007E-002    -1.2133433147099026E-009
   4.6399999999999997E-002    -2.0270984890657928E-009
   4.7500000000000014E-002    -2.3298294404838771E-009
   4.8600000000000004E-002    -1.9350177016264070E-009
   4.9699999999999994E-002    -8.9888946286365012E-010
   5.0800000000000012E-002     5.1097859277149382E-010
   5.1900000000000002E-002     1.9377475179993553E-009
   5.2999999999999992E-002     3.0836952991109001E-009
   5.4099999999999981E-002     3.8112681899349354E-009
   5.5200000000000027E-002     4.1525249905305373E-009
   5.6300000000000017E-002     4.2334242777997133E-009
   5.7400000000000007E-002     4.1644283577113583E-009
   5.8499999999999996E-002     3.9652023886560528E-009
   5.9599999999999986E-002     3.5705813861142133E-009
   6.0700000000000032E-002     2.9173587989816951E-009
   6.1800000000000022E-002     2.0604704609183955E-009
   6.2900000000000011E-002     1.2403850169206976E-009
   6.4000000000000001E-002     8.3951495755130168E-010
   6.5099999999999991E-002     1.2227874268688765E-009
   6.6199999999999981E-002     2.5306516882039887E-009
   6.7300000000000026E-002     4.5405541548859674E-009
   6.8400000000000016E-002     6.6992056346748541E-009
   6.9500000000000006E-002     8.3462916578014301E-009
   7.0599999999999996E-002     9.0366683025422390E-009
   7.1699999999999986E-002     8.7885529964637499E-009
   7.2800000000000031E-002     8.0993620699132407E-009
   7.3900000000000021E-002     7.6893451605997143E-009
   7.5000000000000011E-002     8.0987181405589581E-009
   7.6100000000000001E-002     9.3755838648235112E-009
   7.7199999999999991E-002     1.1064902771806828E-008
   7.8299999999999981E-002     1.2537223703645850E-008
   7.9400000000000026E-002     1.3471521675967324E-008
   8.0500000000000016E-002     1.4173969553610277E-008
   8.1600000000000006E-002     1.5479761472647624E-008
   8.2699999999999996E-002     1.8235303045344153E-008
   8.3799999999999986E-002     2.2651587272548568E-008
   8.4900000000000031E-002     2.7960744830579642E-008
   8.6000000000000021E-002     3.2675799843673303E-008
   8.7100000000000011E-002     3.5395885333855404E-008
   8.8200000000000001E-002     3.5723378033480913E-008
   8.9299999999999990E-002     3.4715299079834949E-008
   9.0399999999999980E-002     3.4506982160564803E-008
   9.1500000000000026E-002     3.7226957516622861E-008
   9.2600000000000016E-002     4.3784812220337699E-008
   9.3700000000000006E-002     5.3257974030884725E-008
   9.4799999999999995E-002     6.3303609465492627E-008
   9.5899999999999985E-002     7.1428395642669784E-008
   9.7000000000000031E-002     7.6414856664541730E-008
   9.8100000000000021E-002     7.9067042690894596E-008
   9.9200000000000010E-002     8.1808913421355101E-008
  0.10030000000000000          8.7339962817623018E-008
  0.10139999999999999          9.7121521491772000E-008
  0.10249999999999998          1.1057996829322292E-007
  0.10360000000000003          1.2549395478345104E-007
  0.10470000000000002          1.3933110665220738E-007
  0.10580000000000001          1.5074267878389946E-007
  0.10690000000000000          1.6034722705171589E-007
  0.10799999999999998          1.7037103816619492E-007
  0.10910000000000003          1.8339385121635132E-007
  0.11020000000000002          2.0095360753202840E-007
  0.11130000000000001          2.2280434563981544E-007
  0.11240000000000000          2.4719923885641037E-007
  0.11349999999999999          2.7196284690944594E-007
  0.11460000000000004          2.9569181947408651E-007
  0.11570000000000003          3.1841747727412439E-007
  0.11680000000000001          3.4143911875617050E-007
  0.11790000000000000          3.6653426604971173E-007
  0.11899999999999999          3.9507207816313894E-007
  0.12009999999999998          4.2753214302138076E-007
  0.12120000000000003          4.6362023908841365E-007
  0.12230000000000002          5.0279351171411690E-007
  0.12340000000000001          5.4479244226968149E-007
  0.12450000000000000          5.8983260942113702E-007
  0.12559999999999999          6.3837052266535466E-007
  0.12670000000000003          6.9064810759300599E-007
  0.12780000000000002          7.4635920555010671E-007
  0.12890000000000001          8.0471079400012968E-007
  0.13000000000000000          8.6490268813577131E-007
  0.13109999999999999          9.2678448027072591E-007
  0.13219999999999998          9.9130897979193833E-007
  0.13330000000000003          1.0604549061099533E-006
  0.13440000000000002          1.1365511909389170E-006
  0.13550000000000001          1.2212573210490518E-006
  0.13660000000000000          1.3147006256986060E-006
  0.13769999999999999          1.4152736866890336E-006
  0.13880000000000003          1.5203299881250132E-006
  0.13990000000000002          1.6275522511932650E-006
  0.14100000000000001          1.7363422557536978E-006
  0.14210000000000000          1.8484764723325497E-006
  0.14319999999999999          1.9675496787385782E-006
  0.14429999999999998          2.0973716345906723E-006
  0.14540000000000003          2.2401018213713542E-006
  0.14650000000000002          2.3951226921781199E-006
  0.14760000000000001          2.5593494683562312E-006
  0.14870000000000000          2.7289052013657056E-006
  0.14979999999999999          2.9012999220867641E-006
  0.15090000000000003          3.0769431305088801E-006
  0.15200000000000002          3.2591567560302792E-006
  0.15310000000000001          3.4526674426160753E-006
  0.15420000000000000          3.6613787415262777E-006
  0.15529999999999999          3.8866405702719931E-006
  0.15639999999999998          4.1268995119025931E-006
  0.15750000000000003          4.3788036236946937E-006
  0.15860000000000002          4.6390705392695963E-006
  0.15970000000000001          4.9060868150263559E-006
  0.16080000000000000          5.1804736358462833E-006
  0.16189999999999999          5.4645079217152670E-006
  0.16300000000000003          5.7609599934949074E-006
  0.16410000000000002          6.0720399233105127E-006
  0.16520000000000001          6.3988904912548605E-006
  0.16630000000000000          6.7416913225315511E-006
  0.16739999999999999          7.1000308707880322E-006
  0.16850000000000004          7.4732074608618859E-006
  0.16960000000000003          7.8603416113764979E-006
  0.17070000000000002          8.2604265116970055E-006
  0.17180000000000001          8.6726304289186373E-006
  0.17290000000000000          9.0967550931964070E-006
  0.17399999999999999          9.5335562946274877E-006
  0.17510000000000003          9.9847175079048611E-006
  0.17620000000000002          1.0452238711877726E-005
  0.17730000000000001          1.0937513252429198E-005
  0.17840000000000000          1.1440688467700966E-005
  0.17949999999999999          1.1960590200033039E-005
  0.18060000000000004          1.2495340342866257E-005
  0.18170000000000003          1.3043258149991743E-005
  0.18280000000000002          1.3603519619209692E-005
  0.18390000000000001          1.4176365766616073E-005
  0.18500000000000000          1.4762704267923255E-005
  0.18609999999999999          1.5363537386292592E-005
  0.18720000000000003          1.5979559975676239E-005
  0.18830000000000002          1.6611013052170165E-005
  0.18940000000000001          1.7257827494177036E-005
  0.19050000000000000          1.7919714082381688E-005
  0.19159999999999999          1.8596016161609441E-005
  0.19270000000000004          1.9285485905129462E-005
  0.19380000000000003          1.9986355255241506E-005
  0.19490000000000002          2.0696794308605604E-005
  0.19600000000000001          2.1415598894236609E-005
  0.19710000000000000          2.2142670786706731E-005
  0.19819999999999999          2.2878888557897881E-005
  0.19930000000000003          2.3625476387678646E-005
  0.20040000000000002          2.4383169147768058E-005
  0.20150000000000001          2.5151612135232426E-005
  0.20260000000000000          2.5929286493919790E-005
  0.20369999999999999          2.6713918487075716E-005
  0.20480000000000004          2.7503110686666332E-005
  0.20590000000000003          2.8295033189351670E-005
  0.20700000000000002          2.9088851078995503E-005
  0.20810000000000001          2.9884440664318390E-005
  0.20920000000000000          3.0681778298458084E-005
  0.21029999999999999          3.1480565667152405E-005
  0.21140000000000003          3.2280069717671722E-005
  0.21250000000000002          3.3079249988077208E-005
  0.21360000000000001          3.3877098758239299E-005
  0.21470000000000000          3.4672706533456221E-005
  0.21579999999999999          3.5465076507534832E-005
  0.21690000000000004          3.6252720747143030E-005
  0.21800000000000003          3.7033620174042881E-005
  0.21910000000000002          3.7805755709996447E-005
  0.22020000000000001          3.8567468436667696E-005
  0.22130000000000000          3.9317805203609169E-005
  0.22239999999999999          4.0056635043583810E-005
  0.22350000000000003          4.0784103475743905E-005
  0.22460000000000002          4.1500137740513310E-005
  0.22570000000000001          4.2204155761282891E-005
  0.22680000000000000          4.2894884245470166E-005
  0.22789999999999999          4.3570689740590751E-005
  0.22900000000000004          4.4229680497664958E-005
  0.23010000000000003          4.4869662815472111E-005
  0.23120000000000002          4.5488453906727955E-005
  0.23230000000000001          4.6084263885859400E-005
  0.23340000000000000          4.6656427002744749E-005
  0.23450000000000004          4.7205652663251385E-005
  0.23560000000000003          4.7733356041135266E-005
  0.23670000000000002          4.8240646719932556E-005
  0.23780000000000001          4.8727237299317494E-005
  0.23890000000000000          4.9191461584996432E-005
  0.23999999999999999          4.9630740249995142E-005
  0.24110000000000004          5.0042617658618838E-005
  0.24220000000000003          5.0425776862539351E-005
  0.24330000000000002          5.0779894081642851E-005
  0.24440000000000001          5.1104820158798248E-005
  0.24550000000000000          5.1400620577624068E-005
  0.24660000000000004          5.1667859224835411E-005
  0.24770000000000003          5.1907809393014759E-005
  0.24880000000000002          5.2122020861133933E-005
  0.24990000000000001          5.2311006584204733E-005
  0.25100000000000000          5.2474104450084269E-005
  0.25209999999999999          5.2609986596507952E-005
  0.25320000000000004          5.2717081416631117E-005
  0.25430000000000003          5.2794068324146792E-005
  0.25540000000000002          5.2840248827124014E-005
  0.25650000000000001          5.2856041293125600E-005
  0.25760000000000000          5.2843002777080983E-005
  0.25870000000000004          5.2803137805312872E-005
  0.25980000000000003          5.2738705562660471E-005
  0.26090000000000002          5.2651375881396234E-005
  0.26200000000000001          5.2541487093549222E-005
  0.26310000000000000          5.2408471674425527E-005
  0.26419999999999999          5.2251965826144442E-005
  0.26530000000000004          5.2072165999561548E-005
  0.26640000000000003          5.1869767048629001E-005
  0.26750000000000002          5.1645874918904155E-005
  0.26860000000000001          5.1401380915194750E-005
  0.26970000000000000          5.1136881666025147E-005
  0.27080000000000004          5.0852708227466792E-005
  0.27190000000000003          5.0549617299111560E-005
  0.27300000000000002          5.0229773478349671E-005
  0.27410000000000001          4.9895952543010935E-005
  0.27520000000000000          4.9550722906133160E-005
  0.27629999999999999          4.9196019972441718E-005
  0.27740000000000004          4.8832094762474298E-005
  0.27850000000000003          4.8458263336215168E-005
  0.27960000000000002          4.8073699872475117E-005
  0.28070000000000001          4.7678280679974705E-005
  0.28179999999999999          4.7273526433855295E-005
  0.28290000000000004          4.6861041482770815E-005
  0.28400000000000003          4.6442182792816311E-005
  0.28510000000000002          4.6019194996915758E-005
  0.28620000000000001          4.5595119445351884E-005
  0.28730000000000000          4.5173506805440411E-005
  0.28840000000000005          4.4756558054359630E-005
  0.28950000000000004          4.4343585614115000E-005
  0.29060000000000002          4.3932916014455259E-005
  0.29170000000000001          4.3523334170458838E-005
  0.29280000000000000          4.3114552681799978E-005
  0.29389999999999999          4.2708219552878290E-005
  0.29500000000000004          4.2307066905777901E-005
  0.29610000000000003          4.1913346649380401E-005
  0.29720000000000002          4.1528153815306723E-005
  0.29830000000000001          4.1151572077069432E-005
  0.29940000000000000          4.0784329030429944E-005
  0.30050000000000004          4.0429058572044596E-005
  0.30160000000000003          4.0088030800689012E-005
  0.30270000000000002          3.9761082007316872E-005
  0.30380000000000001          3.9446218579541892E-005
  0.30490000000000000          3.9141770685091615E-005
  0.30599999999999999          3.8848153053550050E-005
  0.30709999999999998          3.8567672163480893E-005
  0.30819999999999997          3.8303027395159006E-005
  0.30930000000000007          3.8054757169447839E-005
  0.31040000000000006          3.7821235309820622E-005
  0.31150000000000005          3.7600661016767845E-005
  0.31260000000000004          3.7393492675619200E-005
  0.31370000000000003          3.7202527892077342E-005
  0.31480000000000002          3.7029869417892769E-005
  0.31590000000000001          3.6875106161460280E-005
  0.31700000000000000          3.6736539186676964E-005
  0.31809999999999999          3.6613004340324551E-005
  0.31919999999999998          3.6504945455817506E-005
  0.32029999999999997          3.6413250199984759E-005
  0.32140000000000007          3.6336823541205376E-005
  0.32250000000000006          3.6272751458454877E-005
  0.32360000000000005          3.6219160392647609E-005
  0.32470000000000004          3.6177993024466559E-005
  0.32580000000000003          3.6153724067844450E-005
  0.32690000000000002          3.6149402149021626E-005
  0.32800000000000001          3.6163746699457988E-005
  0.32910000000000000          3.6191537219565362E-005
  0.33019999999999999          3.6226985685061663E-005
  0.33129999999999998          3.6268822441343218E-005
  0.33239999999999997          3.6320954677648842E-005
  0.33350000000000007          3.6387413274496794E-005
  0.33460000000000006          3.6468180041993037E-005
  0.33570000000000005          3.6558820283971727E-005
  0.33680000000000004          3.6654462746810168E-005
  0.33790000000000003          3.6754106986336410E-005
  0.33900000000000002          3.6861471016891301E-005
  0.34010000000000001          3.6980345612391829E-005
  0.34120000000000000          3.7109788536326960E-005
  0.34229999999999999          3.7244757550070062E-005
  0.34339999999999998          3.7379973946372047E-005
  0.34449999999999997          3.7513924326049164E-005
  0.34560000000000007          3.7648893339792266E-005
  0.34670000000000006          3.7788155168527737E-005
  0.34780000000000005          3.7932499253656715E-005
  0.34890000000000004          3.8078833313193172E-005
