 -0.20000000000000001          0.0000000000000000
 -0.19890000000000002          0.0000000000000000
 -0.19780000000000000          0.0000000000000000
 -0.19670000000000001          0.0000000000000000
 -0.19560000000000002          0.0000000000000000
 -0.19450000000000001          0.0000000000000000
 -0.19340000000000002          0.0000000000000000
 -0.19230000000000000          0.0000000000000000
 -0.19120000000000001          2.5612094921230319E-027
 -0.19010000000000002          5.1436091440149811E-026
 -0.18900000000000000          4.1749013876908706E-025
 -0.18790000000000001          1.7776375048410744E-024
 -0.18680000000000002          4.2402038850707449E-024
 -0.18570000000000000          4.7080686104873696E-024
 -0.18460000000000001         -3.1139197577702499E-024
 -0.18350000000000000         -2.2569201635568227E-023
 -0.18240000000000001         -5.2749118714542556E-023
 -0.18130000000000002         -8.3795746226030538E-023
 -0.18020000000000000          1.2892819694999142E-025
 -0.17910000000000001          5.6594668583822256E-022
 -0.17800000000000002          1.7015095102796192E-021
 -0.17690000000000000          1.2135018274933512E-021
 -0.17580000000000001         -6.1821318134421707E-021
 -0.17470000000000002         -2.0351967947126032E-020
 -0.17360000000000000         -1.6647838623829369E-020
 -0.17250000000000001          5.2295288903791532E-020
 -0.17140000000000000          1.7778970306756701E-019
 -0.17030000000000001          1.6350472040377957E-019
 -0.16920000000000002         -3.2416313816915832E-019
 -0.16810000000000000         -1.2220333134012606E-018
 -0.16700000000000001         -1.3117585250230767E-018
 -0.16589999999999999          1.4126263764838648E-018
 -0.16480000000000000          6.8255850492384895E-018
 -0.16370000000000001          8.7608452298389773E-018
 -0.16260000000000002         -3.3844421498949086E-018
 -0.16150000000000000         -3.1204716937905576E-017
 -0.16040000000000001         -4.8843857118398710E-017
 -0.15930000000000000         -6.8246222110054778E-018
 -0.15820000000000001          1.1486730264745814E-016
 -0.15710000000000002          2.2733032874391456E-016
 -0.15600000000000000          1.2802644917397633E-016
 -0.15490000000000001         -3.1984416721553570E-016
 -0.15379999999999999         -8.7856120761699991E-016
 -0.15270000000000000         -8.2948226576851363E-016
 -0.15160000000000001          5.1955148100006664E-016
 -0.15050000000000002          2.7674959254873985E-015
 -0.14940000000000001          3.7474567177696316E-015
 -0.14830000000000002          6.5328114859169398E-016
 -0.14720000000000000         -6.7385396951790116E-015
 -0.14610000000000001         -1.3088175224054525E-014
 -0.14500000000000002         -9.0330244708323494E-015
 -0.14390000000000000          1.0501652546429218E-014
 -0.14280000000000001          3.5812332781345532E-014
 -0.14169999999999999          4.1178374593628039E-014
 -0.14060000000000000          2.3676065888909598E-015
 -0.13950000000000001         -7.2987697428885528E-014
 -0.13840000000000002         -1.2830735822769168E-013
 -0.13730000000000001         -8.4744812892372651E-014
 -0.13619999999999999          8.6378956288060693E-014
 -0.13510000000000000          2.9450549529456971E-013
 -0.13400000000000001          3.4363264729379839E-013
 -0.13290000000000002          7.0071559503132735E-014
 -0.13180000000000000         -4.6312953472238405E-013
 -0.13070000000000001         -8.8537743759761756E-013
 -0.12959999999999999         -7.0510361872139216E-013
 -0.12850000000000000          2.6983729378531052E-013
 -0.12740000000000001          1.5691191835448537E-012
 -0.12630000000000002          2.1464006787208501E-012
 -0.12520000000000001          1.0685873843771510E-012
 -0.12410000000000000         -1.5487426879151611E-012
 -0.12300000000000001         -4.1264530854789871E-012
 -0.12190000000000001         -4.3606524641193189E-012
 -0.12080000000000000         -9.5694556879327708E-013
 -0.11970000000000000          4.7827648959331004E-012
 -0.11860000000000001          9.0039269443065173E-012
 -0.11750000000000001          7.5846152275405032E-012
 -0.11640000000000000         -4.7842410371909394E-013
 -0.11530000000000000         -1.1102110550331723E-011
 -0.11420000000000001         -1.6735302379999872E-011
 -0.11310000000000001         -1.1379140685274791E-011
 -0.11200000000000000          4.1172581836945721E-012
 -0.11090000000000001          2.0782663784357780E-011
 -0.10980000000000001          2.6438799066719199E-011
 -0.10870000000000000          1.4426992586691334E-011
 -0.10760000000000000         -9.9891249785710734E-012
 -0.10650000000000001         -3.1265972449956436E-011
 -0.10540000000000001         -3.3701617885295576E-011
 -0.10430000000000000         -1.3579326899049171E-011
 -0.10320000000000000          1.6183908380096312E-011
 -0.10210000000000001          3.4146803440382456E-011
 -0.10100000000000001          2.6825435969768385E-011
  -9.9900000000000003E-002     1.1017000029270307E-012
  -9.8799999999999999E-002    -1.9071884696519881E-011
  -9.7700000000000009E-002    -1.2193277637573274E-011
  -9.6600000000000005E-002     1.8830804970892956E-011
  -9.5500000000000002E-002     4.1961802088597011E-011
  -9.4400000000000012E-002     1.8318145611484482E-011
  -9.3300000000000008E-002    -6.0161396697733238E-011
  -9.2200000000000004E-002    -1.4699369499382442E-010
  -9.1100000000000000E-002    -1.5838456934869072E-010
  -9.0000000000000011E-002    -3.2211743689058991E-011
  -8.8900000000000007E-002     2.0583369730875489E-010
  -8.7800000000000003E-002     4.2177145109789649E-010
  -8.6699999999999999E-002     4.3272346816891627E-010
  -8.5600000000000009E-002     1.2892316381130087E-010
  -8.4500000000000006E-002    -4.1279601958876810E-010
  -8.3400000000000002E-002    -9.1157298376387530E-010
  -8.2299999999999998E-002    -1.0056364629917880E-009
  -8.1200000000000008E-002    -4.7372356037911345E-010
  -8.0100000000000005E-002     5.6765725453544746E-010
  -7.9000000000000001E-002     1.6307311057062179E-009
  -7.7899999999999997E-002     2.0547021861716530E-009
  -7.6800000000000007E-002     1.3708797430567188E-009
  -7.5700000000000003E-002    -3.5188313374234781E-010
  -7.4600000000000000E-002    -2.3999533471652512E-009
  -7.3500000000000010E-002    -3.6691423233037312E-009
  -7.2399999999999992E-002    -3.2139930716823528E-009
  -7.1300000000000002E-002    -8.3624257518621903E-010
  -7.0200000000000012E-002     2.6217601423184078E-009
  -6.9099999999999995E-002     5.5133413390251462E-009
  -6.8000000000000005E-002     6.1331655309970756E-009
  -6.6900000000000015E-002     3.6560985350320152E-009
  -6.5799999999999997E-002    -1.2236430757539551E-009
  -6.4700000000000008E-002    -6.3780283277026228E-009
  -6.3599999999999990E-002    -9.1540650615229424E-009
  -6.2500000000000000E-002    -7.7506685514094897E-009
  -6.1400000000000010E-002    -2.3618729194652133E-009
  -6.0299999999999992E-002     4.6248160856521281E-009
  -5.9200000000000003E-002     9.6729513288096314E-009
  -5.8100000000000013E-002     9.9950225873612908E-009
  -5.6999999999999995E-002     5.3085673634711839E-009
  -5.5900000000000005E-002    -1.6681008796481933E-009
  -5.4800000000000015E-002    -6.5418843675502103E-009
  -5.3699999999999998E-002    -5.9036344701723920E-009
  -5.2600000000000008E-002     1.4944878667932926E-010
  -5.1499999999999990E-002     7.3423307433984064E-009
  -5.0400000000000000E-002     9.2799075090965744E-009
  -4.9300000000000010E-002     1.4890662036748381E-009
  -4.8199999999999993E-002    -1.4806547099510681E-008
  -4.7100000000000003E-002    -3.1776000497529822E-008
  -4.6000000000000013E-002    -3.8214032826999755E-008
  -4.4899999999999995E-002    -2.5737909581380336E-008
  -4.3800000000000006E-002     5.4191411358317509E-009
  -4.2699999999999988E-002     4.4774584040396803E-008
  -4.1599999999999998E-002     7.5863702875267336E-008
  -4.0500000000000008E-002     8.4633121844035486E-008
  -3.9399999999999991E-002     6.7259641411965276E-008
  -3.8300000000000001E-002     3.2397913685144886E-008
  -3.7200000000000011E-002    -4.1987595622572371E-009
  -3.6099999999999993E-002    -3.0040286702615049E-008
  -3.5000000000000003E-002    -4.5007034543687041E-008
  -3.3900000000000013E-002    -6.3000321404160786E-008
  -3.2799999999999996E-002    -1.0403103800626923E-007
  -3.1700000000000006E-002    -1.8059239437206998E-007
  -3.0599999999999988E-002    -2.8628375048356247E-007
  -2.9499999999999998E-002    -3.9407555618709011E-007
  -2.8400000000000009E-002    -4.6627499727946997E-007
  -2.7299999999999991E-002    -4.7123631929935073E-007
  -2.6200000000000001E-002    -3.9759601122568711E-007
  -2.5100000000000011E-002    -2.5822882321335783E-007
  -2.3999999999999994E-002    -8.2559793668224302E-008
  -2.2900000000000004E-002     9.6780304659205285E-008
  -2.1800000000000014E-002     2.5370897560605954E-007
  -2.0699999999999996E-002     3.6894377331009309E-007
  -1.9600000000000006E-002     4.2273603639841895E-007
  -1.8499999999999989E-002     3.8902314258848492E-007
  -1.7399999999999999E-002     2.4043370672188757E-007
  -1.6300000000000009E-002    -3.3771851093433725E-008
  -1.5199999999999991E-002    -4.0574531112724799E-007
  -1.4100000000000001E-002    -7.9906794780981727E-007
  -1.3000000000000012E-002    -1.1037338936148444E-006
  -1.1899999999999994E-002    -1.2160564892838011E-006
  -1.0800000000000004E-002    -1.0872512348214514E-006
  -9.6999999999999864E-003    -7.5531880838752841E-007
  -8.5999999999999965E-003    -3.3981027058871405E-007
  -7.5000000000000067E-003     2.9618127950215012E-009
  -6.3999999999999890E-003     1.4504173861951131E-007
  -5.2999999999999992E-003     4.0328728800886893E-008
  -4.2000000000000093E-003    -2.6105655592800758E-007
  -3.0999999999999917E-003    -6.4493531226617051E-007
  -2.0000000000000018E-003    -9.9409464837663108E-007
  -9.0000000000001190E-004    -1.2448523420971469E-006
   2.0000000000000573E-004    -1.4086178907746216E-006
   1.2999999999999956E-003    -1.5481233504033298E-006
   2.4000000000000132E-003    -1.7241892464880948E-006
   3.5000000000000031E-003    -1.9460794646875001E-006
   4.5999999999999930E-003    -2.1566420400631614E-006
   5.7000000000000106E-003    -2.2632714262726950E-006
   6.8000000000000005E-003    -2.1985408693581121E-006
   7.8999999999999904E-003    -1.9757417248911224E-006
   9.0000000000000080E-003    -1.7054964018825558E-006
   1.0099999999999998E-002    -1.5597265701217111E-006
   1.1199999999999988E-002    -1.6979918200377142E-006
   1.2300000000000005E-002    -2.1921600819041487E-006
   1.3399999999999995E-002    -2.9873015137127368E-006
   1.4500000000000013E-002    -3.9185870264191180E-006
   1.5600000000000003E-002    -4.7760549932718277E-006
   1.6699999999999993E-002    -5.3865674090047833E-006
   1.7800000000000010E-002    -5.6760486586426850E-006
   1.8900000000000000E-002    -5.6883195611590054E-006
   1.9999999999999990E-002    -5.5588175200682599E-006
   2.1100000000000008E-002    -5.4615870794805232E-006
   2.2199999999999998E-002    -5.5547593547089491E-006
   2.3300000000000015E-002    -5.9430312830954790E-006
   2.4400000000000005E-002    -6.6616898948268499E-006
   2.5499999999999995E-002    -7.6761107266065665E-006
   2.6600000000000013E-002    -8.8890219558379613E-006
   2.7700000000000002E-002    -1.0154505616810638E-005
   2.8799999999999992E-002    -1.1304443432891276E-005
   2.9900000000000010E-002    -1.2193195289000869E-005
   3.1000000000000000E-002    -1.2753592272929382E-005
   3.2099999999999990E-002    -1.3043967555859126E-005
   3.3200000000000007E-002    -1.3256538295536302E-005
   3.4299999999999997E-002    -1.3668286555912346E-005
   3.5400000000000015E-002    -1.4540839401888661E-005
   3.6500000000000005E-002    -1.6007636077119969E-005
   3.7599999999999995E-002    -1.8001328498939984E-005
   3.8700000000000012E-002    -2.0265262719476596E-005
   3.9800000000000002E-002    -2.2452664779848419E-005
   4.0899999999999992E-002    -2.4273896997328848E-005
   4.2000000000000010E-002    -2.5623236069804989E-005
   4.3099999999999999E-002    -2.6623050871421583E-005
   4.4200000000000017E-002    -2.7564279662328772E-005
   4.5300000000000007E-002    -2.8773745725629851E-005
   4.6399999999999997E-002    -3.0475139283225872E-005
   4.7500000000000014E-002    -3.2710860978113487E-005
   4.8600000000000004E-002    -3.5354747524252161E-005
   4.9699999999999994E-002    -3.8198882975848392E-005
   5.0800000000000012E-002    -4.1060709918383509E-005
   5.1900000000000002E-002    -4.3854885007021949E-005
   5.2999999999999992E-002    -4.6600132918683812E-005
   5.4099999999999981E-002    -4.9372785724699497E-005
   5.5200000000000027E-002    -5.2244329708628356E-005
   5.6300000000000017E-002    -5.5243395763682202E-005
   5.7400000000000007E-002    -5.8360132243251428E-005
   5.8499999999999996E-002    -6.1580809415318072E-005
   5.9599999999999986E-002    -6.4922991441562772E-005
   6.0700000000000032E-002    -6.8442313931882381E-005
   6.1800000000000022E-002    -7.2212351369671524E-005
   6.2900000000000011E-002    -7.6285003160592169E-005
   6.4000000000000001E-002    -8.0660087405703962E-005
   6.5099999999999991E-002    -8.5286577814258635E-005
   6.6199999999999981E-002    -9.0084482508245856E-005
   6.7300000000000026E-002    -9.4978757260832936E-005
   6.8400000000000016E-002    -9.9925979156978428E-005
   6.9500000000000006E-002    -1.0491940338397399E-004
   7.0599999999999996E-002    -1.0998194193234667E-004
   7.1699999999999986E-002    -1.1515289224917069E-004
   7.2800000000000031E-002    -1.2047532800352201E-004
   7.3900000000000021E-002    -1.2598965258803219E-004
   7.5000000000000011E-002    -1.3172545004636049E-004
   7.6100000000000001E-002    -1.3769372890237719E-004
   7.7199999999999991E-002    -1.4388452109415084E-004
   7.8299999999999981E-002    -1.5026814071461558E-004
   7.9400000000000026E-002    -1.5681078366469592E-004
   8.0500000000000016E-002    -1.6349506040569395E-004
   8.1600000000000006E-002    -1.7032591858878732E-004
   8.2699999999999996E-002    -1.7732594278641045E-004
   8.3799999999999986E-002    -1.8451882351655513E-004
   8.4900000000000031E-002    -1.9189914746675640E-004
   8.6000000000000021E-002    -1.9942352082580328E-004
   8.7100000000000011E-002    -2.0701227185782045E-004
   8.8200000000000001E-002    -2.1458114497363567E-004
   8.9299999999999990E-002    -2.2207319852896035E-004
   9.0399999999999980E-002    -2.2948322293814272E-004
   9.1500000000000026E-002    -2.3687185603193939E-004
   9.2600000000000016E-002    -2.4433850194327533E-004
   9.3700000000000006E-002    -2.5197796639986336E-004
   9.4799999999999995E-002    -2.5984583771787584E-004
   9.5899999999999985E-002    -2.6792901917360723E-004
   9.7000000000000031E-002    -2.7614313876256347E-004
   9.8100000000000021E-002    -2.8436680440790951E-004
   9.9200000000000010E-002    -2.9246884514577687E-004
  0.10030000000000000         -3.0035048257559538E-004
  0.10139999999999999         -3.0797338695265353E-004
  0.10249999999999998         -3.1538007897324860E-004
  0.10360000000000003         -3.2265996560454369E-004
  0.10470000000000002         -3.2992247724905610E-004
  0.10580000000000001         -3.3725379034876823E-004
  0.10690000000000000         -3.4465882345102727E-004
  0.10799999999999998         -3.5206327447667718E-004
  0.10910000000000003         -3.5931187449023128E-004
  0.11020000000000002         -3.6621993058361113E-004
  0.11130000000000001         -3.7265740684233606E-004
  0.11240000000000000         -3.7856792914681137E-004
  0.11349999999999999         -3.8398202741518617E-004
  0.11460000000000004         -3.8900098297744989E-004
  0.11570000000000003         -3.9375253254547715E-004
  0.11680000000000001         -3.9833024493418634E-004
  0.11790000000000000         -4.0278094820678234E-004
  0.11899999999999999         -4.0708688902668655E-004
  0.12009999999999998         -4.1119835805147886E-004
  0.12120000000000003         -4.1501308442093432E-004
  0.12230000000000002         -4.1844154475256801E-004
  0.12340000000000001         -4.2138446588069201E-004
  0.12450000000000000         -4.2373183532617986E-004
  0.12559999999999999         -4.2542672599665821E-004
  0.12670000000000003         -4.2642536573112011E-004
  0.12780000000000002         -4.2671823757700622E-004
  0.12890000000000001         -4.2636765283532441E-004
  0.13000000000000000         -4.2546950862742960E-004
  0.13109999999999999         -4.2412802577018738E-004
  0.13219999999999998         -4.2245828080922365E-004
  0.13330000000000003         -4.2051527998410165E-004
  0.13440000000000002         -4.1828132816590369E-004
  0.13550000000000001         -4.1565857827663422E-004
  0.13660000000000000         -4.1246772161684930E-004
  0.13769999999999999         -4.0853695827536285E-004
  0.13880000000000003         -4.0375613025389612E-004
  0.13990000000000002         -3.9810888119973242E-004
  0.14100000000000001         -3.9171741809695959E-004
  0.14210000000000000         -3.8475729525089264E-004
  0.14319999999999999         -3.7741858977824450E-004
  0.14429999999999998         -3.6983611062169075E-004
  0.14540000000000003         -3.6204114439897239E-004
  0.14650000000000002         -3.5396465682424605E-004
  0.14760000000000001         -3.4545329981483519E-004
  0.14870000000000000         -3.3639249159023166E-004
  0.14979999999999999         -3.2668167841620743E-004
  0.15090000000000003         -3.1625267001800239E-004
  0.15200000000000002         -3.0514586251229048E-004
  0.15310000000000001         -2.9342211200855672E-004
  0.15420000000000000         -2.8122050571255386E-004
  0.15529999999999999         -2.6870009605772793E-004
  0.15639999999999998         -2.5602316600270569E-004
  0.15750000000000003         -2.4328386643901467E-004
  0.15860000000000002         -2.3044414410833269E-004
  0.15970000000000001         -2.1751568419858813E-004
  0.16080000000000000         -2.0440241496544331E-004
  0.16189999999999999         -1.9102307851426303E-004
  0.16300000000000003         -1.7739183385856450E-004
  0.16410000000000002         -1.6350054647773504E-004
  0.16520000000000001         -1.4939349784981459E-004
  0.16630000000000000         -1.3509437849279493E-004
  0.16739999999999999         -1.2064897600794211E-004
  0.16850000000000004         -1.0615643986966461E-004
  0.16960000000000003         -9.1663852799683809E-005
  0.17070000000000002         -7.7254633652046323E-005
  0.17180000000000001         -6.2959523347672075E-005
  0.17290000000000000         -4.8803496611071751E-005
  0.17399999999999999         -3.4796288673533127E-005
  0.17510000000000003         -2.0965480871382169E-005
  0.17620000000000002         -7.3043092925217934E-006
  0.17730000000000001          6.1455621107597835E-006
  0.17840000000000000          1.9405199054745026E-005
  0.17949999999999999          3.2458108762511984E-005
  0.18060000000000004          4.5321598008740693E-005
  0.18170000000000003          5.7899160310626030E-005
  0.18280000000000002          7.0129615778569132E-005
  0.18390000000000001          8.1872698501683772E-005
  0.18500000000000000          9.3149967142380774E-005
  0.18609999999999999          1.0397926962468773E-004
  0.18720000000000003          1.1443100083852187E-004
  0.18830000000000002          1.2460118159651756E-004
  0.18940000000000001          1.3444958312902600E-004
  0.19050000000000000          1.4398129133041948E-004
  0.19159999999999999          1.5312228060793132E-004
  0.19270000000000004          1.6190689348150045E-004
  0.19380000000000003          1.7028524598572403E-004
  0.19490000000000002          1.7823948292061687E-004
  0.19600000000000001          1.8567332881502807E-004
  0.19710000000000000          1.9248652097303420E-004
  0.19819999999999999          1.9868602976202965E-004
  0.19930000000000003          2.0448977011255920E-004
  0.20040000000000002          2.1000455308239907E-004
  0.20150000000000001          2.1514225227292627E-004
  0.20260000000000000          2.1986755018588156E-004
  0.20369999999999999          2.2399332374334335E-004
  0.20480000000000004          2.2760184947401285E-004
  0.20590000000000003          2.3083732230588794E-004
  0.20700000000000002          2.3389093985315412E-004
  0.20810000000000001          2.3673460236750543E-004
  0.20920000000000000          2.3928262817207724E-004
  0.21029999999999999          2.4145275529008359E-004
  0.21140000000000003          2.4325838603544980E-004
  0.21250000000000002          2.4474749807268381E-004
  0.21360000000000001          2.4607824161648750E-004
  0.21470000000000000          2.4718474014662206E-004
  0.21579999999999999          2.4806705187074840E-004
  0.21690000000000004          2.4862907594069839E-004
  0.21800000000000003          2.4886929895728827E-004
  0.21910000000000002          2.4904974270612001E-004
  0.22020000000000001          2.4924738681875169E-004
  0.22130000000000000          2.4948726058937609E-004
  0.22239999999999999          2.4958990979939699E-004
  0.22350000000000003          2.4937154375948012E-004
  0.22460000000000002          2.4881478748284280E-004
  0.22570000000000001          2.4817881057970226E-004
  0.22680000000000000          2.4770086747594178E-004
  0.22789999999999999          2.4740901426412165E-004
  0.22900000000000004          2.4723782553337514E-004
  0.23010000000000003          2.4708197452127934E-004
  0.23120000000000002          2.4692111765034497E-004
  0.23230000000000001          2.4681680952198803E-004
  0.23340000000000000          2.4693697923794389E-004
  0.23450000000000004          2.4727609707042575E-004
  0.23560000000000003          2.4775110068731010E-004
  0.23670000000000002          2.4822875275276601E-004
  0.23780000000000001          2.4872008361853659E-004
  0.23890000000000000          2.4941703304648399E-004
  0.23999999999999999          2.5035155704244971E-004
  0.24110000000000004          2.5159277720376849E-004
  0.24220000000000003          2.5296807871200144E-004
  0.24330000000000002          2.5427583022974432E-004
  0.24440000000000001          2.5549301062710583E-004
  0.24550000000000000          2.5691161863505840E-004
  0.24660000000000004          2.5870706303976476E-004
  0.24770000000000003          2.6095350040122867E-004
  0.24880000000000002          2.6343195349909365E-004
  0.24990000000000001          2.6600196724757552E-004
  0.25100000000000000          2.6862273807637393E-004
  0.25209999999999999          2.7139365556649864E-004
  0.25320000000000004          2.7450206107459962E-004
  0.25430000000000003          2.7794434572570026E-004
  0.25540000000000002          2.8149475110694766E-004
  0.25650000000000001          2.8507597744464874E-004
  0.25760000000000000          2.8851904789917171E-004
  0.25870000000000004          2.9197803814895451E-004
  0.25980000000000003          2.9569884645752609E-004
  0.26090000000000002          2.9962335247546434E-004
  0.26200000000000001          3.0357562354765832E-004
  0.26310000000000000          3.0759384389966726E-004
  0.26419999999999999          3.1152524752542377E-004
  0.26530000000000004          3.1542102806270123E-004
  0.26640000000000003          3.1940813641995192E-004
  0.26750000000000002          3.2339524477720261E-004
  0.26860000000000001          3.2743759220466018E-004
  0.26970000000000000          3.3139405422843993E-004
  0.27080000000000004          3.3524821628816426E-004
  0.27190000000000003          3.3905520103871822E-004
  0.27300000000000002          3.4279987448826432E-004
  0.27410000000000001          3.4637973294593394E-004
  0.27520000000000000          3.4987909020856023E-004
  0.27629999999999999          3.5320824827067554E-004
  0.27740000000000004          3.5634086816571653E-004
  0.27850000000000003          3.5939074587076902E-004
  0.27960000000000002          3.6232903948985040E-004
  0.28070000000000001          3.6499137058854103E-004
  0.28179999999999999          3.6725262179970741E-004
  0.28290000000000004          3.6911992356181145E-004
  0.28400000000000003          3.7069382960908115E-004
  0.28510000000000002          3.7215297925285995E-004
  0.28620000000000001          3.7335621891543269E-004
  0.28730000000000000          3.7420578883029521E-004
  0.28840000000000005          3.7458405131474137E-004
  0.28950000000000004          3.7451257230713964E-004
  0.29060000000000002          3.7412557867355645E-004
  0.29170000000000001          3.7370412610471249E-004
  0.29280000000000000          3.7329617771320045E-004
  0.29389999999999999          3.7266805884428322E-004
  0.29500000000000004          3.7155303289182484E-004
  0.29610000000000003          3.6979821743443608E-004
  0.29720000000000002          3.6740093491971493E-004
  0.29830000000000001          3.6459497641772032E-004
  0.29940000000000000          3.6162949982099235E-004
  0.30050000000000004          3.5853020381182432E-004
  0.30160000000000003          3.5503305844031274E-004
  0.30270000000000002          3.5101710818707943E-004
  0.30380000000000001          3.4658037475310266E-004
  0.30490000000000000          3.4174256143160164E-004
  0.30599999999999999          3.3657351741567254E-004
  0.30709999999999998          3.3117854036390781E-004
  0.30819999999999997          3.2556644873693585E-004
  0.30930000000000007          3.1978671904653311E-004
  0.31040000000000006          3.1375503749586642E-004
  0.31150000000000005          3.0743755633011460E-004
  0.31260000000000004          3.0070435605011880E-004
  0.31370000000000003          2.9354542493820190E-004
  0.31480000000000002          2.8592927264980972E-004
  0.31590000000000001          2.7798931114375591E-004
  0.31700000000000000          2.6986488956026733E-004
  0.31809999999999999          2.6173444348387420E-004
  0.31919999999999998          2.5350454961881042E-004
  0.32029999999999997          2.4500745348632336E-004
  0.32140000000000007          2.3636846162844449E-004
  0.32250000000000006          2.2754998644813895E-004
  0.32360000000000005          2.1866212773602456E-004
  0.32470000000000004          2.0981878333259374E-004
  0.32580000000000003          2.0092990598641336E-004
  0.32690000000000002          1.9180867820978165E-004
  0.32800000000000001          1.8232400179840624E-004
  0.32910000000000000          1.7254863632842898E-004
  0.33019999999999999          1.6266228340100497E-004
  0.33129999999999998          1.5294292825274169E-004
  0.33239999999999997          1.4324404764920473E-004
  0.33350000000000007          1.3343129830900580E-004
  0.33460000000000006          1.2354826321825385E-004
  0.33570000000000005          1.1375197937013581E-004
  0.33680000000000004          1.0414631105959415E-004
  0.33790000000000003          9.4912938948255032E-005
  0.33900000000000002          8.6055246356409043E-005
  0.34010000000000001          7.7128759585320950E-005
  0.34120000000000000          6.7894441599491984E-005
  0.34229999999999999          5.8462530432734638E-005
  0.34339999999999998          4.8935988161247224E-005
  0.34449999999999997          3.9648850361118093E-005
  0.34560000000000007          3.0590093956561759E-005
  0.34670000000000006          2.1815396394231357E-005
  0.34780000000000005          1.3194803614169359E-005
  0.34890000000000004          4.7076246119104326E-006
