 -0.20000000000000001          0.0000000000000000
 -0.19890000000000002          0.0000000000000000
 -0.19780000000000000          0.0000000000000000
 -0.19670000000000001          0.0000000000000000
 -0.19560000000000002          0.0000000000000000
 -0.19450000000000001          0.0000000000000000
 -0.19340000000000002          0.0000000000000000
 -0.19230000000000000          0.0000000000000000
 -0.19120000000000001          0.0000000000000000
 -0.19010000000000002          3.0990637556162784E-033
 -0.18900000000000000          6.8435758839689264E-032
 -0.18790000000000001          6.3893548751092125E-031
 -0.18680000000000002          3.3603764848199629E-030
 -0.18570000000000000          1.1212463961985061E-029
 -0.18460000000000001          2.4761315669223812E-029
 -0.18350000000000000          3.4542320915297292E-029
 -0.18240000000000001          1.7014605524197499E-029
 -0.18130000000000002         -6.4339535633613312E-029
 -0.18020000000000000         -2.4708660443617711E-028
 -0.17910000000000001         -4.2967776319121168E-028
 -0.17800000000000002          7.2526417067429327E-029
 -0.17690000000000000          2.6335576282629218E-027
 -0.17580000000000001          6.6629248948147263E-027
 -0.17470000000000002          3.2119097683305422E-027
 -0.17360000000000000         -2.4864966606788246E-026
 -0.17250000000000001         -7.3085707219575877E-026
 -0.17140000000000000         -5.8029175181833256E-026
 -0.17030000000000001          1.7215254835260578E-025
 -0.16920000000000002          6.0017459650397555E-025
 -0.16810000000000000          6.3596008817796892E-025
 -0.16700000000000001         -8.0691191627711846E-025
 -0.16589999999999999         -3.8370087933727809E-024
 -0.16480000000000000         -5.1578341057250559E-024
 -0.16370000000000001          1.7802833443171857E-024
 -0.16260000000000002          1.9319003198192653E-023
 -0.16150000000000000          3.2762567218855589E-023
 -0.16040000000000001          8.4485204346306460E-024
 -0.15930000000000000         -7.4966461565111435E-023
 -0.15820000000000001         -1.6663934365034656E-022
 -0.15710000000000002         -1.1932327722857302E-022
 -0.15600000000000000          2.0306197303393797E-022
 -0.15490000000000001          6.8035943646042685E-022
 -0.15379999999999999          7.7064738171868148E-022
 -0.15270000000000000         -2.0212161296959107E-022
 -0.15160000000000001         -2.1785649259368374E-021
 -0.15050000000000002         -3.5263577891220037E-021
 -0.14940000000000001         -1.5254904842484500E-021
 -0.14830000000000002          5.0097971656043211E-021
 -0.14720000000000000          1.2335579685115645E-020
 -0.14610000000000001          1.1507773032548234E-020
 -0.14500000000000002         -5.1567085621409302E-021
 -0.14390000000000000         -3.2751211458839850E-020
 -0.14280000000000001         -4.7638843666486187E-020
 -0.14169999999999999         -1.9193674367068843E-020
 -0.14060000000000000          5.9077413831947697E-020
 -0.13950000000000001          1.4021373127263862E-019
 -0.13840000000000002          1.3303548376629758E-019
 -0.13730000000000001         -2.9394632086547571E-020
 -0.13619999999999999         -2.9436682588468529E-019
 -0.13510000000000000         -4.5482195108983205E-019
 -0.13400000000000001         -2.5892655688318638E-019
 -0.13290000000000002          3.5276544108880519E-019
 -0.13180000000000000          1.0492477945456980E-018
 -0.13070000000000001          1.1853473362466510E-018
 -0.12959999999999999          2.5013998592270670E-019
 -0.12850000000000000         -1.5382497791244103E-018
 -0.12740000000000001         -3.0001466518071134E-018
 -0.12630000000000002         -2.5634143135332035E-018
 -0.12520000000000001          4.7047158789387592E-019
 -0.12410000000000000          4.7973708608926615E-018
 -0.12300000000000001          7.2503108609211922E-018
 -0.12190000000000001          4.7102406182500009E-018
 -0.12080000000000000         -3.1062544856532718E-018
 -0.11970000000000000         -1.2080701531096052E-017
 -0.11860000000000001         -1.5268023645887430E-017
 -0.11750000000000001         -7.5605606660908438E-018
 -0.11640000000000000          9.3243736026693032E-018
 -0.11530000000000000          2.5630497336782207E-017
 -0.11420000000000001          2.8503068956691033E-017
 -0.11310000000000001          1.1125811676590350E-017
 -0.11200000000000000         -2.0020379751435262E-017
 -0.11090000000000001         -4.6184789086395946E-017
 -0.10980000000000001         -4.7202082273493261E-017
 -0.10870000000000000         -1.6228170233185907E-017
 -0.10760000000000000          3.2202647481224250E-017
 -0.10650000000000001          6.8546650799811588E-017
 -0.10540000000000001          6.7058519790604189E-017
 -0.10430000000000000          2.4791008276714390E-017
 -0.10320000000000000         -3.3907688408100204E-017
 -0.10210000000000001         -7.3023577268075188E-017
 -0.10100000000000001         -7.0821179108650700E-017
  -9.9900000000000003E-002    -3.6159508954763510E-017
  -9.8799999999999999E-002    -1.6494313579022100E-019
  -9.7700000000000009E-002     1.2751711271179680E-017
  -9.6600000000000005E-002     1.0913414029163271E-017
  -9.5500000000000002E-002     3.1860049123839487E-017
  -9.4400000000000012E-002     1.0358149521524595E-016
  -9.3300000000000008E-002     1.9746984978457911E-016
  -9.2200000000000004E-002     2.1856437153789000E-016
  -9.1100000000000000E-002     6.1796089377770433E-017
  -9.0000000000000011E-002    -2.8662012042265342E-016
  -8.8900000000000007E-002    -6.7401582692620961E-016
  -8.7800000000000003E-002    -8.1235409490472920E-016
  -8.6699999999999999E-002    -4.4034672712151750E-016
  -8.5600000000000009E-002     4.5526115090787321E-016
  -8.4500000000000006E-002     1.5068702367368610E-015
  -8.3400000000000002E-002     2.0589960637894863E-015
  -8.2299999999999998E-002     1.5081131517078383E-015
  -8.1200000000000008E-002    -2.5959751947397509E-016
  -8.0100000000000005E-002    -2.6005177794963166E-015
  -7.9000000000000001E-002    -4.2545694140601505E-015
  -7.7899999999999997E-002    -3.9354260342595697E-015
  -7.6800000000000007E-002    -1.1300827708647177E-015
  -7.5700000000000003E-002     3.3340267124783857E-015
  -7.4600000000000000E-002     7.3723477680715660E-015
  -7.3500000000000010E-002     8.5067103846605228E-015
  -7.2399999999999992E-002     5.2014010537093733E-015
  -7.1300000000000002E-002    -1.9928355908288738E-015
  -7.0200000000000012E-002    -1.0198908571520428E-014
  -6.9099999999999995E-002    -1.5232633947606655E-014
  -6.8000000000000005E-002    -1.3595213381445686E-014
  -6.6900000000000015E-002    -4.5366809369232469E-015
  -6.5799999999999997E-002     8.9457055383657981E-015
  -6.4700000000000008E-002     2.0947470375041327E-014
  -6.3599999999999990E-002     2.5231834173021148E-014
  -6.2500000000000000E-002     1.8439817476233709E-014
  -6.1400000000000010E-002     2.2695218676648064E-015
  -6.0299999999999992E-002    -1.6758643423182319E-014
  -5.9200000000000003E-002    -3.0190829220302917E-014
  -5.8100000000000013E-002    -3.1918803537756002E-014
  -5.6999999999999995E-002    -2.1552829575850925E-014
  -5.5900000000000005E-002    -4.7634490210786418E-015
  -5.4800000000000015E-002     1.0007618038844306E-014
  -5.3699999999999998E-002     1.6863084279644669E-014
  -5.2600000000000008E-002     1.6575160840213987E-014
  -5.1499999999999990E-002     1.6467984067332006E-014
  -5.0400000000000000E-002     2.5244910667660860E-014
  -4.9300000000000010E-002     4.5250451606235198E-014
  -4.8199999999999993E-002     6.7057816276801935E-014
  -4.7100000000000003E-002     7.0949397344612780E-014
  -4.6000000000000013E-002     3.6392136998136468E-014
  -4.4899999999999995E-002    -4.4404096285338701E-014
  -4.3800000000000006E-002    -1.5634333563017966E-013
  -4.2699999999999988E-002    -2.6172559128637141E-013
  -4.1599999999999998E-002    -3.1293069806433149E-013
  -4.0500000000000008E-002    -2.7234063528641661E-013
  -3.9399999999999991E-002    -1.2934424852787535E-013
  -3.8300000000000001E-002     9.5036439384365429E-014
  -3.7200000000000011E-002     3.5861854393200165E-013
  -3.6099999999999993E-002     6.1711990769278136E-013
  -3.5000000000000003E-002     8.3927228231375772E-013
  -3.3900000000000013E-002     1.0069661033826338E-012
  -3.2799999999999996E-002     1.0984299407545972E-012
  -3.1700000000000006E-002     1.0640166048583866E-012
  -3.0599999999999988E-002     8.1108682053673831E-013
  -2.9499999999999998E-002     2.1175343921896184E-013
  -2.8400000000000009E-002    -8.6441211176804811E-013
  -2.7299999999999991E-002    -2.5047713469311672E-012
  -2.6200000000000001E-002    -4.7153266534427640E-012
  -2.5100000000000011E-002    -7.4069726047065743E-012
  -2.3999999999999994E-002    -1.0411074780058982E-011
  -2.2900000000000004E-002    -1.3515072741498990E-011
  -2.1800000000000014E-002    -1.6501966459969708E-011
  -2.0699999999999996E-002    -1.9181873103790714E-011
  -1.9600000000000006E-002    -2.1415359069409945E-011
  -1.8499999999999989E-002    -2.3137334062561798E-011
  -1.7399999999999999E-002    -2.4388591840507345E-011
  -1.6300000000000009E-002    -2.5348922613743774E-011
  -1.5199999999999991E-002    -2.6350116533180312E-011
  -1.4100000000000001E-002    -2.7842263217170427E-011
  -1.3000000000000012E-002    -3.0301282316624878E-011
  -1.1899999999999994E-002    -3.4095823386870450E-011
  -1.0800000000000004E-002    -3.9361795073356021E-011
  -9.6999999999999864E-003    -4.5943339410658979E-011
  -8.5999999999999965E-003    -5.3438812402939462E-011
  -7.5000000000000067E-003    -6.1345456492389872E-011
  -6.3999999999999890E-003    -6.9248516643138913E-011
  -5.2999999999999992E-003    -7.6976071350376429E-011
  -4.2000000000000093E-003    -8.4654831755681670E-011
  -3.0999999999999917E-003    -9.2649471428174479E-011
  -2.0000000000000018E-003    -1.0142448686467631E-010
  -9.0000000000001190E-004    -1.1140235955942046E-010
   2.0000000000000573E-004    -1.2288650652614308E-010
   1.2999999999999956E-003    -1.3607508175805805E-010
   2.4000000000000132E-003    -1.5113688078827181E-010
   3.5000000000000031E-003    -1.6828496929299774E-010
   4.5999999999999930E-003    -1.8778779919959021E-010
   5.7000000000000106E-003    -2.0990015281441288E-010
   6.8000000000000005E-003    -2.3475105193071499E-010
   7.8999999999999904E-003    -2.6226215643632145E-010
   9.0000000000000080E-003    -2.9216393193642887E-010
   1.0099999999999998E-002    -3.2412938999470953E-010
   1.1199999999999988E-002    -3.5798214392812611E-010
   1.2300000000000005E-002    -3.9388947659091400E-010
   1.3399999999999995E-002    -4.3244932634856070E-010
   1.4500000000000013E-002    -4.7462384022978199E-010
   1.5600000000000003E-002    -5.2153975582669432E-010
   1.6699999999999993E-002    -5.7423465982253674E-010
   1.7800000000000010E-002    -6.3344729461789484E-010
   1.8900000000000000E-002    -6.9952799108818908E-010
   1.9999999999999990E-002    -7.7249162622194945E-010
   2.1100000000000008E-002    -8.5218138101694763E-010
   2.2199999999999998E-002    -9.3847962734372459E-010
   2.3300000000000015E-002    -1.0314992193727335E-009
   2.4400000000000005E-002    -1.1317099479768444E-009
   2.5499999999999995E-002    -1.2399813398289439E-009
   2.6600000000000013E-002    -1.3575407464827549E-009
   2.7700000000000002E-002    -1.4858557717545295E-009
   2.8799999999999992E-002    -1.6264577462621332E-009
   2.9900000000000010E-002    -1.7807381125223287E-009
   3.1000000000000000E-002    -1.9497721215344654E-009
   3.2099999999999990E-002    -2.1342378975219845E-009
   3.3200000000000007E-002    -2.3344870481167845E-009
   3.4299999999999997E-002    -2.5507767009713689E-009
   3.5400000000000015E-002    -2.7836051241791893E-009
   3.6500000000000005E-002    -3.0340279177920593E-009
   3.7599999999999995E-002    -3.3038201063817496E-009
   3.8700000000000012E-002    -3.5953937604915609E-009
   3.9800000000000002E-002    -3.9114884664570582E-009
   4.0899999999999992E-002    -4.2547507739243429E-009
   4.2000000000000010E-002    -4.6273842535526910E-009
   4.3099999999999999E-002    -5.0310218213667213E-009
   4.4200000000000017E-002    -5.4668736204632751E-009
   4.5300000000000007E-002    -5.9360778514871981E-009
   4.6399999999999997E-002    -6.4400982324741562E-009
   4.7500000000000014E-002    -6.9809935610010143E-009
   4.8600000000000004E-002    -7.5614696726233888E-009
   4.9699999999999994E-002    -8.1847248978306197E-009
   5.0800000000000012E-002    -8.8542009279990452E-009
   5.1900000000000002E-002    -9.5733598826086563E-009
   5.2999999999999992E-002    -1.0345583945081671E-008
   5.4099999999999981E-002    -1.1174194014529348E-008
   5.5200000000000027E-002    -1.2062544740842895E-008
   5.6300000000000017E-002    -1.3014110678000179E-008
   5.7400000000000007E-002    -1.4032521811202514E-008
   5.8499999999999996E-002    -1.5121550234198367E-008
   5.9599999999999986E-002    -1.6285088833001282E-008
   6.0700000000000032E-002    -1.7527185036669835E-008
   6.1800000000000022E-002    -1.8852094996191227E-008
   6.2900000000000011E-002    -2.0264382172285877E-008
   6.4000000000000001E-002    -2.1768972402469444E-008
   6.5099999999999991E-002    -2.3371164559193858E-008
   6.6199999999999981E-002    -2.5076554166503229E-008
   6.7300000000000026E-002    -2.6890946358548717E-008
   6.8400000000000016E-002    -2.8820261732676045E-008
   6.9500000000000006E-002    -3.0870488387790829E-008
   7.0599999999999996E-002    -3.3047669489860709E-008
   7.1699999999999986E-002    -3.5357928140911099E-008
   7.2800000000000031E-002    -3.7807520669730366E-008
   7.3900000000000021E-002    -4.0402888146218174E-008
   7.5000000000000011E-002    -4.3150702566663313E-008
   7.6100000000000001E-002    -4.6057902380880478E-008
   7.7199999999999991E-002    -4.9131710255778671E-008
   7.8299999999999981E-002    -5.2379618864506483E-008
   7.9400000000000026E-002    -5.5809348253887947E-008
   8.0500000000000016E-002    -5.9428820975426788E-008
   8.1600000000000006E-002    -6.3246126558169635E-008
   8.2699999999999996E-002    -6.7269532166847057E-008
   8.3799999999999986E-002    -7.1507500365441956E-008
   8.4900000000000031E-002    -7.5968735302467394E-008
   8.6000000000000021E-002    -8.0662161394684517E-008
   8.7100000000000011E-002    -8.5596887799965771E-008
   8.8200000000000001E-002    -9.0782101835884532E-008
   8.9299999999999990E-002    -9.6226962398304750E-008
   9.0399999999999980E-002    -1.0194054311796208E-007
   9.1500000000000026E-002    -1.0793179683332710E-007
   9.2600000000000016E-002    -1.1420966927744303E-007
   9.3700000000000006E-002    -1.2078318434305402E-007
   9.4799999999999995E-002    -1.2766157908572495E-007
   9.5899999999999985E-002    -1.3485437477811502E-007
   9.7000000000000031E-002    -1.4237136269912298E-007
   9.8100000000000021E-002    -1.5022249044704949E-007
   9.9200000000000010E-002    -1.5841771983104991E-007
  0.10030000000000000         -1.6696682791916828E-007
  0.10139999999999999         -1.7587937861662795E-007
  0.10249999999999998         -1.8516456634642964E-007
  0.10360000000000003         -1.9483137236875336E-007
  0.10470000000000002         -2.0488860741352255E-007
  0.10580000000000001         -2.1534503957809648E-007
  0.10690000000000000         -2.2620953643581743E-007
  0.10799999999999998         -2.3749106503601070E-007
  0.10910000000000003         -2.4919856400629214E-007
  0.11020000000000002         -2.6134082986573048E-007
  0.11130000000000001         -2.7392624701860768E-007
  0.11240000000000000         -2.8696260301330767E-007
  0.11349999999999999         -3.0045703169889748E-007
  0.11460000000000004         -3.1441607006854611E-007
  0.11570000000000003         -3.2884580036807165E-007
  0.11680000000000001         -3.4375196378277906E-007
  0.11790000000000000         -3.5914010254600726E-007
  0.11899999999999999         -3.7501558836083859E-007
  0.12009999999999998         -3.9138362240009883E-007
  0.12120000000000003         -4.0824923530635715E-007
  0.12230000000000002         -4.2561705981825071E-007
  0.12340000000000001         -4.4349121708364692E-007
  0.12450000000000000         -4.6187523139451514E-007
  0.12559999999999999         -4.8077197334350785E-007
  0.12670000000000003         -5.0018348929370404E-007
  0.12780000000000002         -5.2011091611348093E-007
  0.12890000000000001         -5.4055470855018939E-007
  0.13000000000000000         -5.6151441185647855E-007
  0.13109999999999999         -5.8298888916397118E-007
  0.13219999999999998         -6.0497654885693919E-007
  0.13330000000000003         -6.2747534457230358E-007
  0.13440000000000002         -6.5048300257330993E-007
  0.13550000000000001         -6.7399679437585291E-007
  0.13660000000000000         -6.9801353674847633E-007
  0.13769999999999999         -7.2252936433869763E-007
  0.13880000000000003         -7.4753950229933253E-007
  0.13990000000000002         -7.7303815260165720E-007
  0.14100000000000001         -7.9901855087882723E-007
  0.14210000000000000         -8.2547296642587753E-007
  0.14319999999999999         -8.5239292957339785E-007
  0.14429999999999998         -8.7976962959146476E-007
  0.14540000000000003         -9.0759380100280396E-007
  0.14650000000000002         -9.3585600779988454E-007
  0.14760000000000001         -9.6454652975808131E-007
  0.14870000000000000         -9.9365502137516160E-007
  0.14979999999999999         -1.0231705118712853E-006
  0.15090000000000003         -1.0530812915021670E-006
  0.15200000000000002         -1.0833747410288197E-006
  0.15310000000000001         -1.1140374454043922E-006
  0.15420000000000000         -1.1450553074610070E-006
  0.15529999999999999         -1.1764135479097604E-006
  0.15639999999999998         -1.2080968190275598E-006
  0.15750000000000003         -1.2400897730913130E-006
  0.15860000000000002         -1.2723770623779274E-006
  0.15970000000000001         -1.3049431117906352E-006
  0.16080000000000000         -1.3377722325458308E-006
  0.16189999999999999         -1.3708487358599086E-006
  0.16300000000000003         -1.4041564782019123E-006
  0.16410000000000002         -1.4376789749803720E-006
  0.16520000000000001         -1.4713995142301428E-006
  0.16630000000000000         -1.5053008155518910E-006
  0.16739999999999999         -1.5393655985462829E-006
  0.16850000000000004         -1.5735763554403093E-006
  0.16960000000000003         -1.6079153510872857E-006
  0.17070000000000002         -1.6423650777142029E-006
  0.17180000000000001         -1.6769082549217273E-006
  0.17290000000000000         -1.7115274886236875E-006
  0.17399999999999999         -1.7462058394812630E-006
  0.17510000000000003         -1.7809264818424708E-006
  0.17620000000000002         -1.8156724763684906E-006
  0.17730000000000001         -1.8504274521546904E-006
  0.17840000000000000         -1.8851751519832760E-006
  0.17949999999999999         -1.9198992049496155E-006
  0.18060000000000004         -1.9545839222701034E-006
  0.18170000000000003         -1.9892136151611339E-006
  0.18280000000000002         -2.0237732769601280E-006
  0.18390000000000001         -2.0582476736308308E-006
  0.18500000000000000         -2.0926231627527159E-006
  0.18609999999999999         -2.1268858745315811E-006
  0.18720000000000003         -2.1610233034152770E-006
  0.18830000000000002         -2.1950224891043035E-006
  0.18940000000000001         -2.2288711534201866E-006
  0.19050000000000000         -2.2625570181844523E-006
  0.19159999999999999         -2.2960687147133285E-006
  0.19270000000000004         -2.3293951016967185E-006
  0.19380000000000003         -2.3625252651982009E-006
  0.19490000000000002         -2.3954489734023809E-006
  0.19600000000000001         -2.4281566766148899E-006
  0.19710000000000000         -2.4606399620097363E-006
  0.19819999999999999         -2.4928904167609289E-006
  0.19930000000000003         -2.5249005375371780E-006
  0.20040000000000002         -2.5566632757545449E-006
  0.20150000000000001         -2.5881722649501171E-006
  0.20260000000000000         -2.6194211386609823E-006
  0.20369999999999999         -2.6504042125452543E-006
  0.20480000000000004         -2.6811162570083980E-006
  0.20590000000000003         -2.7115527245769044E-006
  0.20700000000000002         -2.7417095225246157E-006
  0.20810000000000001         -2.7715830128727248E-006
  0.20920000000000000         -2.8011700123897754E-006
  0.21029999999999999         -2.8304671104706358E-006
  0.21140000000000003         -2.8594722607522272E-006
  0.21250000000000002         -2.8881831894977950E-006
  0.21360000000000001         -2.9165980777179357E-006
  0.21470000000000000         -2.9447155611705966E-006
  0.21579999999999999         -2.9725338208663743E-006
  0.21690000000000004         -3.0000519473105669E-006
  0.21800000000000003         -3.0272690310084727E-006
  0.21910000000000002         -3.0541850719600916E-006
  0.22020000000000001         -3.0807996154180728E-006
  0.22130000000000000         -3.1071126613824163E-006
  0.22239999999999999         -3.1331239824794466E-006
  0.22350000000000003         -3.1588333513354883E-006
  0.22460000000000002         -3.1842414500715677E-006
  0.22570000000000001         -3.2093485060613602E-006
  0.22680000000000000         -3.2341554287995677E-006
  0.22789999999999999         -3.2586624456598656E-006
  0.22900000000000004         -3.2828697840159293E-006
  0.23010000000000003         -3.3067774438677588E-006
  0.23120000000000002         -3.3303858799627051E-006
  0.23230000000000001         -3.3536953196744435E-006
  0.23340000000000000         -3.3767059903766494E-006
  0.23450000000000004         -3.3994183468166739E-006
  0.23560000000000003         -3.4218319342471659E-006
  0.23670000000000002         -3.4439460705470992E-006
  0.23780000000000001         -3.4657600735954475E-006
  0.23890000000000000         -3.4872730338975089E-006
  0.23999999999999999         -3.5084842693322571E-006
  0.24110000000000004         -3.5293921882839641E-006
  0.24220000000000003         -3.5499954265105771E-006
  0.24330000000000002         -3.5702923923963681E-006
  0.24440000000000001         -3.5902814943256089E-006
  0.24550000000000000         -3.6099613680562470E-006
  0.24660000000000004         -3.6293301945988787E-006
  0.24770000000000003         -3.6483861549641006E-006
  0.24880000000000002         -3.6671265206678072E-006
  0.24990000000000001         -3.6855485632258933E-006
  0.25100000000000000         -3.7036490994069027E-006
  0.25209999999999999         -3.7214244912320282E-006
  0.25320000000000004         -3.7388713280961383E-006
  0.25430000000000003         -3.7559857446467504E-006
  0.25540000000000002         -3.7727641029050574E-006
  0.25650000000000001         -3.7892020827712258E-006
  0.25760000000000000         -3.8052953641454224E-006
  0.25870000000000004         -3.8210396269278135E-006
  0.25980000000000003         -3.8364305510185659E-006
  0.26090000000000002         -3.8514635889441706E-006
  0.26200000000000001         -3.8661337384837680E-006
  0.26310000000000000         -3.8804364521638490E-006
  0.26419999999999999         -3.8943662730162032E-006
  0.26530000000000004         -3.9079186535673216E-006
  0.26640000000000003         -3.9210899558383971E-006
  0.26750000000000002         -3.9338747228612192E-006
  0.26860000000000001         -3.9462684071622789E-006
  0.26970000000000000         -3.9582655517733656E-006
  0.27080000000000004         -3.9698616092209704E-006
  0.27190000000000003         -3.9810520320315845E-006
  0.27300000000000002         -3.9918322727316990E-006
  0.27410000000000001         -4.0021977838478051E-006
  0.27520000000000000         -4.0121444726537447E-006
  0.27629999999999999         -4.0216673369286582E-006
  0.27740000000000004         -4.0307631934410892E-006
  0.27850000000000003         -4.0394279494648799E-006
  0.27960000000000002         -4.0476575122738723E-006
  0.28070000000000001         -4.0554486986366101E-006
  0.28179999999999999         -4.0627987800689880E-006
  0.28290000000000004         -4.0697041185921989E-006
  0.28400000000000003         -4.0761619857221376E-006
  0.28510000000000002         -4.0821710172167514E-006
  0.28620000000000001         -4.0877289393392857E-006
  0.28730000000000000         -4.0928352973423898E-006
  0.28840000000000005         -4.0974896364787128E-006
  0.28950000000000004         -4.1016910472535528E-006
  0.29060000000000002         -4.1054395296669099E-006
  0.29170000000000001         -4.1087346289714333E-006
  0.29280000000000000         -4.1115772546618246E-006
  0.29389999999999999         -4.1139678614854347E-006
  0.29500000000000004         -4.1159073589369655E-006
  0.29610000000000003         -4.1173980207531713E-006
  0.29720000000000002         -4.1184412111761048E-006
  0.29830000000000001         -4.1190396586898714E-006
  0.29940000000000000         -4.1191965465259273E-006
  0.30050000000000004         -4.1189150579157285E-006
  0.30160000000000003         -4.1181988308380824E-006
  0.30270000000000002         -4.1170524127664976E-006
  0.30380000000000001         -4.1154798964271322E-006
  0.30490000000000000         -4.1134862840408459E-006
  0.30599999999999999         -4.1110779420705512E-006
  0.30709999999999998         -4.1082603274844587E-006
  0.30819999999999997         -4.1050407162401825E-006
  0.30930000000000007         -4.1014263842953369E-006
  0.31040000000000006         -4.0974246076075360E-006
  0.31150000000000005         -4.0930431168817449E-006
  0.31260000000000004         -4.0882896428229287E-006
  0.31370000000000003         -4.0831728256307542E-006
  0.31480000000000002         -4.0776999412628356E-006
  0.31590000000000001         -4.0718791751714889E-006
  0.31700000000000000         -4.0657196223037317E-006
  0.31809999999999999         -4.0592308323539328E-006
  0.31919999999999998         -4.0524228097638115E-006
  0.32029999999999997         -4.0453055589750875E-006
  0.32140000000000007         -4.0378890844294801E-006
  0.32250000000000006         -4.0301838453160599E-006
  0.32360000000000005         -4.0222007555712480E-006
  0.32470000000000004         -4.0139502743841149E-006
  0.32580000000000003         -4.0054433156910818E-006
  0.32690000000000002         -3.9966898839338683E-006
  0.32800000000000001         -3.9877008930488955E-006
  0.32910000000000000         -3.9784872569725849E-006
  0.33019999999999999         -3.9690598896413576E-006
  0.33129999999999998         -3.9594310692336876E-006
  0.33239999999999997         -3.9496117096859962E-006
  0.33350000000000007         -3.9396131796820555E-006
  0.33460000000000006         -3.9294477574003395E-006
  0.33570000000000005         -3.9191272662719712E-006
  0.33680000000000004         -3.9086626202333719E-006
  0.33790000000000003         -3.8980642784736119E-006
  0.33900000000000002         -3.8873427001817618E-006
  0.34010000000000001         -3.8765083445468917E-006
  0.34120000000000000         -3.8655712160107214E-006
  0.34229999999999999         -3.8545417737623211E-006
  0.34339999999999998         -3.8434313864854630E-006
  0.34449999999999997         -3.8322509681165684E-006
  0.34560000000000007         -3.8210100683500059E-006
  0.34670000000000006         -3.8097193737485213E-006
  0.34780000000000005         -3.7983888887538342E-006
  0.34890000000000004         -3.7870283904339885E-006
