 -0.20000000000000001          0.0000000000000000
 -0.19890000000000002          0.0000000000000000
 -0.19780000000000000          0.0000000000000000
 -0.19670000000000001          0.0000000000000000
 -0.19560000000000002          0.0000000000000000
 -0.19450000000000001          0.0000000000000000
 -0.19340000000000002          0.0000000000000000
 -0.19230000000000000          0.0000000000000000
 -0.19120000000000001          1.4086653162118484E-030
 -0.19010000000000002          3.1107163053380842E-029
 -0.18900000000000000          2.8901657896029063E-028
 -0.18790000000000001          1.4963367295205828E-027
 -0.18680000000000002          4.8061493169406029E-027
 -0.18570000000000000          9.7276995857769112E-027
 -0.18460000000000001          1.0604479963331178E-026
 -0.18350000000000000         -3.5212327989195928E-027
 -0.18240000000000001         -4.4946299173243742E-026
 -0.18130000000000002         -1.2004600526170379E-025
 -0.18020000000000000         -1.6606283798713903E-025
 -0.17910000000000001          1.4527864576157116E-025
 -0.17800000000000002          1.3923797296212521E-024
 -0.17690000000000000          2.9956357842739220E-024
 -0.17580000000000001          2.6288737897493313E-025
 -0.17470000000000002         -1.4330860567359236E-023
 -0.17360000000000000         -3.4680736152442034E-023
 -0.17250000000000001         -1.5074639649568678E-023
 -0.17140000000000000          1.1147194027641278E-022
 -0.17030000000000001          2.9918353837541474E-022
 -0.16920000000000002          2.1082162541624980E-022
 -0.16810000000000000         -6.3958479399136319E-022
 -0.16700000000000001         -2.0331677384414691E-021
 -0.16589999999999999         -1.9776919093862556E-021
 -0.16480000000000000          2.5533146999790467E-021
 -0.16370000000000001          1.1125835309398944E-020
 -0.16260000000000002          1.4082856557466133E-020
 -0.16150000000000000         -4.9411290578589156E-021
 -0.16040000000000001         -4.8967741632295304E-020
 -0.15930000000000000         -7.9585392566245205E-020
 -0.15820000000000001         -2.0162184926507664E-020
 -0.15710000000000002          1.6804605828896933E-019
 -0.15600000000000000          3.6349213832663386E-019
 -0.15490000000000001          2.5799334205586171E-019
 -0.15379999999999999         -4.0112777052324264E-019
 -0.15270000000000000         -1.3405511311823990E-018
 -0.15160000000000001         -1.5110165118173270E-018
 -0.15050000000000002          2.9685209003510086E-019
 -0.14940000000000001          3.8800705749632066E-018
 -0.14830000000000002          6.3004866604867648E-018
 -0.14720000000000000          2.9536256005668248E-018
 -0.14610000000000001         -7.9510403732332386E-018
 -0.14500000000000002         -2.0117720711559277E-017
 -0.14390000000000000         -1.9310061561462501E-017
 -0.14280000000000001          6.1625170702159826E-018
 -0.14169999999999999          4.8507389823714190E-017
 -0.14060000000000000          7.2457911460542025E-017
 -0.13950000000000001          3.3617304999702239E-017
 -0.13840000000000002         -7.7094715397599874E-017
 -0.13730000000000001         -1.9427378271635182E-016
 -0.13619999999999999         -1.9337607337605007E-016
 -0.13510000000000000          1.6109191882598729E-017
 -0.13400000000000001          3.6708517991737816E-016
 -0.13290000000000002          5.9462469932948492E-016
 -0.13180000000000000          3.7844630049000208E-016
 -0.13070000000000001         -3.6323083590023627E-016
 -0.12959999999999999         -1.2379986858722966E-015
 -0.12850000000000000         -1.4774030192930680E-015
 -0.12740000000000001         -4.6598389980584301E-016
 -0.12630000000000002          1.5775537597566931E-015
 -0.12520000000000001          3.3458114818735347E-015
 -0.12410000000000000          3.0817451489187440E-015
 -0.12300000000000001         -3.9604855172389780E-017
 -0.12190000000000001         -4.7075300234832810E-015
 -0.12080000000000000         -7.6322462754093920E-015
 -0.11970000000000000         -5.5280770975098866E-015
 -0.11860000000000001          2.0546088566391826E-015
 -0.11750000000000001          1.1178362414583729E-014
 -0.11640000000000000          1.5086844330791140E-014
 -0.11530000000000000          8.7175894012748480E-015
 -0.11420000000000001         -6.5930389165985096E-015
 -0.11310000000000001         -2.2056114530252802E-014
 -0.11200000000000000         -2.6050272982042037E-014
 -0.11090000000000001         -1.2355319776991263E-014
 -0.10980000000000001          1.3616643315011220E-014
 -0.10870000000000000          3.6093059828856341E-014
 -0.10760000000000000          3.8534008883067683E-014
 -0.10650000000000001          1.5843575095538659E-014
 -0.10540000000000001         -1.9888929912725839E-014
 -0.10430000000000000         -4.5893732472093371E-014
 -0.10320000000000000         -4.4461172753456485E-014
 -0.10210000000000001         -1.6778857017435596E-014
 -0.10100000000000001          1.6756393703674412E-014
  -9.9900000000000003E-002     3.2116470534459055E-014
  -9.8799999999999999E-002     2.2232371922181055E-014
  -9.7700000000000009E-002     5.0356163771409727E-015
  -9.6600000000000005E-002     8.6856088253183146E-015
  -9.5500000000000002E-002     4.2121854100388503E-014
  -9.4400000000000012E-002     7.5277180051468856E-014
  -9.3300000000000008E-002     5.2264941506618978E-014
  -9.2200000000000004E-002    -6.1669893909425955E-014
  -9.1100000000000000E-002    -2.2962933095803384E-013
  -9.0000000000000011E-002    -3.3445997165391927E-013
  -8.8900000000000007E-002    -2.3897000372453958E-013
  -8.7800000000000003E-002     1.0621323563502968E-013
  -8.6699999999999999E-002     5.7618878201645685E-013
  -8.5600000000000009E-002     8.8509863500896291E-013
  -8.4500000000000006E-002     7.2897043219485869E-013
  -8.3400000000000002E-002     5.6494646480270715E-016
  -8.2299999999999998E-002    -1.0539062027595247E-012
  -8.1200000000000008E-002    -1.8675594924688621E-012
  -8.0100000000000005E-002    -1.8158962831679726E-012
  -7.9000000000000001E-002    -6.0677640212683515E-013
  -7.7899999999999997E-002     1.4202212539685122E-012
  -7.6800000000000007E-002     3.3042967233914977E-012
  -7.5700000000000003E-002     3.8647414261905322E-012
  -7.4600000000000000E-002     2.3512199132103007E-012
  -7.3500000000000010E-002    -9.8679441354332376E-013
  -7.2399999999999992E-002    -4.7725213538074573E-012
  -7.1300000000000002E-002    -7.0001409183118035E-012
  -7.0200000000000012E-002    -6.0180901061135383E-012
  -6.9099999999999995E-002    -1.5437750904012670E-012
  -6.8000000000000005E-002     4.8617967290942588E-012
  -6.6900000000000015E-002     1.0245872726633021E-011
  -6.5799999999999997E-002     1.1583705349094142E-011
  -6.4700000000000008E-002     7.4027858495973042E-012
  -6.3599999999999990E-002    -1.1398415848337673E-012
  -6.2500000000000000E-002    -1.0437414821318214E-011
  -6.1400000000000010E-002    -1.5999300842506337E-011
  -6.0299999999999992E-002    -1.4754706137432017E-011
  -5.9200000000000003E-002    -6.8909825762242249E-012
  -5.8100000000000013E-002     3.9263631408659183E-012
  -5.6999999999999995E-002     1.2343343361309600E-011
  -5.5900000000000005E-002     1.4345658341796685E-011
  -5.4800000000000015E-002     9.8302425227680956E-012
  -5.3699999999999998E-002     2.9852470322111468E-012
  -5.2600000000000008E-002    -1.7959035137921769E-013
  -5.1499999999999990E-002     3.9407956065051764E-012
  -5.0400000000000000E-002     1.3082940980568836E-011
  -4.9300000000000010E-002     1.9005868059918107E-011
  -4.8199999999999993E-002     1.1681339055769069E-011
  -4.7100000000000003E-002    -1.3938945483960019E-011
  -4.6000000000000013E-002    -5.2433404840179776E-011
  -4.4899999999999995E-002    -8.7607032739356328E-011
  -4.3800000000000006E-002    -9.8782503010763634E-011
  -4.2699999999999988E-002    -7.1176078919599206E-011
  -4.1599999999999998E-002    -4.8250140861905155E-012
  -4.0500000000000008E-002     8.3448387089291032E-011
  -3.9399999999999991E-002     1.6698957494565292E-010
  -3.8300000000000001E-002     2.2180127179360909E-010
  -3.7200000000000011E-002     2.3731067111398829E-010
  -3.6099999999999993E-002     2.1847895714799392E-010
  -3.5000000000000003E-002     1.7720280798272370E-010
  -3.3900000000000013E-002     1.1779892339358611E-010
  -3.2799999999999996E-002     2.5932053379640330E-011
  -3.1700000000000006E-002    -1.3061050851970180E-010
  -3.0599999999999988E-002    -3.8739236818408074E-010
  -2.9499999999999998E-002    -7.6159045736545750E-010
  -2.8400000000000009E-002    -1.2347839417614637E-009
  -2.7299999999999991E-002    -1.7504157012737664E-009
  -2.6200000000000001E-002    -2.2282733436185254E-009
  -2.5100000000000011E-002    -2.5889763666242516E-009
  -2.3999999999999994E-002    -2.7764093246673838E-009
  -2.2900000000000004E-002    -2.7685875814142946E-009
  -2.1800000000000014E-002    -2.5758186694702090E-009
  -2.0699999999999996E-002    -2.2333603855173578E-009
  -1.9600000000000006E-002    -1.7979373545529143E-009
  -1.8499999999999989E-002    -1.3514700469841046E-009
  -1.7399999999999999E-002    -1.0052679799699149E-009
  -1.6300000000000009E-002    -8.9160284710843030E-010
  -1.5199999999999991E-002    -1.1333369798194326E-009
  -1.4100000000000001E-002    -1.7959852494087158E-009
  -1.3000000000000012E-002    -2.8425284348543300E-009
  -1.1899999999999994E-002    -4.1184153865003736E-009
  -1.0800000000000004E-002    -5.3852349246596987E-009
  -9.6999999999999864E-003    -6.3986456133591219E-009
  -8.5999999999999965E-003    -7.0009624764111322E-009
  -7.5000000000000067E-003    -7.1862253925303321E-009
  -6.3999999999999890E-003    -7.1048216199187664E-009
  -5.2999999999999992E-003    -7.0028689513890185E-009
  -4.2000000000000093E-003    -7.1242722832209893E-009
  -3.0999999999999917E-003    -7.6225701306498195E-009
  -2.0000000000000018E-003    -8.5240383640439177E-009
  -9.0000000000001190E-004    -9.7554613276429336E-009
   2.0000000000000573E-004    -1.1214873474330034E-008
   1.2999999999999956E-003    -1.2841085528236817E-008
   2.4000000000000132E-003    -1.4640860079850881E-008
   3.5000000000000031E-003    -1.6659503998539549E-008
   4.5999999999999930E-003    -1.8915992328061293E-008
   5.7000000000000106E-003    -2.1346933110066857E-008
   6.8000000000000005E-003    -2.3800918569349960E-008
   7.8999999999999904E-003    -2.6096772742789653E-008
   9.0000000000000080E-003    -2.8121467821051738E-008
   1.0099999999999998E-002    -2.9917362809328552E-008
   1.1199999999999988E-002    -3.1709131320667439E-008
   1.2300000000000005E-002    -3.3848724712015610E-008
   1.3399999999999995E-002    -3.6697418437370288E-008
   1.4500000000000013E-002    -4.0495621078662225E-008
   1.5600000000000003E-002    -4.5277634086460239E-008
   1.6699999999999993E-002    -5.0867061673898206E-008
   1.7800000000000010E-002    -5.6951513727199199E-008
   1.8900000000000000E-002    -6.3201945010860072E-008
   1.9999999999999990E-002    -6.9387894541250716E-008
   2.1100000000000008E-002    -7.5449136716088105E-008
   2.2199999999999998E-002    -8.1508154892162565E-008
   2.3300000000000015E-002    -8.7831963924145384E-008
   2.4400000000000005E-002    -9.4764558866700099E-008
   2.5499999999999995E-002    -1.0265032557299492E-007
   2.6600000000000013E-002    -1.1176111769373165E-007
   2.7700000000000002E-002    -1.2223502210417792E-007
   2.8799999999999992E-002    -1.3403740695139277E-007
   2.9900000000000010E-002    -1.4696107086820120E-007
   3.1000000000000000E-002    -1.6068176478256646E-007
   3.2099999999999990E-002    -1.7487042214270332E-007
   3.3200000000000007E-002    -1.8933575063329044E-007
   3.4299999999999997E-002    -2.0414449863892514E-007
   3.5400000000000015E-002    -2.1965962559988839E-007
   3.6500000000000005E-002    -2.3646133229249244E-007
   3.7599999999999995E-002    -2.5516624191368464E-007
   3.8700000000000012E-002    -2.7621280196399312E-007
   3.9800000000000002E-002    -2.9970755122121773E-007
   4.0899999999999992E-002    -3.2540702932237764E-007
   4.2000000000000010E-002    -3.5285040667076828E-007
   4.3099999999999999E-002    -3.8158594861670281E-007
   4.4200000000000017E-002    -4.1138909523397160E-007
   4.5300000000000007E-002    -4.4237501128918666E-007
   4.6399999999999997E-002    -4.7496178012806922E-007
   4.7500000000000014E-002    -5.0971402743016370E-007
   4.8600000000000004E-002    -5.4715019359719008E-007
   4.9699999999999994E-002    -5.8760485899256309E-007
   5.0800000000000012E-002    -6.3119779269982246E-007
   5.1900000000000002E-002    -6.7790136881740182E-007
   5.2999999999999992E-002    -7.2765158165566390E-007
   5.4099999999999981E-002    -7.8043666462690453E-007
   5.5200000000000027E-002    -8.3632608038897160E-007
   5.6300000000000017E-002    -8.9544442971600802E-007
   5.7400000000000007E-002    -9.5792654519755160E-007
   5.8499999999999996E-002    -1.0238940149065456E-006
   5.9599999999999986E-002    -1.0934707006526878E-006
   6.0700000000000032E-002    -1.1668209936033236E-006
   6.1800000000000022E-002    -1.2441806802598876E-006
   6.2900000000000011E-002    -1.3258541002869606E-006
   6.4000000000000001E-002    -1.4121741287453915E-006
   6.5099999999999991E-002    -1.5034454463602742E-006
   6.6199999999999981E-002    -1.5999002016542363E-006
   6.7300000000000026E-002    -1.7016855053952895E-006
   6.8400000000000016E-002    -1.8088835531671066E-006
   6.9500000000000006E-002    -1.9215488009649562E-006
   7.0599999999999996E-002    -2.0397444586706115E-006
   7.1699999999999986E-002    -2.1635680695908377E-006
   7.2800000000000031E-002    -2.2931631065148395E-006
   7.3900000000000021E-002    -2.4287182895932347E-006
   7.5000000000000011E-002    -2.5704607651277911E-006
   7.6100000000000001E-002    -2.7186404167878209E-006
   7.7199999999999991E-002    -2.8735075829899870E-006
   7.8299999999999981E-002    -3.0352907742781099E-006
   7.9400000000000026E-002    -3.2041843951446936E-006
   8.0500000000000016E-002    -3.3803542009991361E-006
   8.1600000000000006E-002    -3.5639573070511688E-006
   8.2699999999999996E-002    -3.7551662899204530E-006
   8.3799999999999986E-002    -3.9541801015730016E-006
   8.4900000000000031E-002    -4.1612083805375732E-006
   8.6000000000000021E-002    -4.3764348447439261E-006
   8.7100000000000011E-002    -4.5999754547665361E-006
   8.8200000000000001E-002    -4.8318552217097022E-006
   8.9299999999999990E-002    -5.0720191211439669E-006
   9.0399999999999980E-002    -5.3203780225885566E-006
   9.1500000000000026E-002    -5.5768746278772596E-006
   9.2600000000000016E-002    -5.8415380408405326E-006
   9.3700000000000006E-002    -6.1145051404309925E-006
   9.4799999999999995E-002    -6.3960001170926262E-006
   9.5899999999999985E-002    -6.6862712628790177E-006
   9.7000000000000031E-002    -6.9855118454142939E-006
   9.8100000000000021E-002    -7.2937991717481054E-006
   9.9200000000000010E-002    -7.6110659392725211E-006
  0.10030000000000000         -7.9371202446054667E-006
  0.10139999999999999         -8.2717015175148845E-006
  0.10249999999999998         -8.6145473687793128E-006
  0.10360000000000003         -8.9654686235007830E-006
  0.10470000000000002         -9.3243861556402408E-006
  0.10580000000000001         -9.6913263405440375E-006
  0.10690000000000000         -1.0066370123240631E-005
  0.10799999999999998         -1.0449559340486303E-005
  0.10910000000000003         -1.0840810318768490E-005
  0.11020000000000002         -1.1239856576139573E-005
  0.11130000000000001         -1.1646250641206279E-005
  0.11240000000000000         -1.2059435903211124E-005
  0.11349999999999999         -1.2478845746954903E-005
  0.11460000000000004         -1.2903989045298658E-005
  0.11570000000000003         -1.3334499271877576E-005
  0.11680000000000001         -1.3770133591606282E-005
  0.11790000000000000         -1.4210732842911966E-005
  0.11899999999999999         -1.4656154235126451E-005
  0.12009999999999998         -1.5106214959814679E-005
  0.12120000000000003         -1.5560644897050224E-005
  0.12230000000000002         -1.6019064787542447E-005
  0.12340000000000001         -1.6480980775668286E-005
  0.12450000000000000         -1.6945799870882183E-005
  0.12559999999999999         -1.7412839952157810E-005
  0.12670000000000003         -1.7881351595860906E-005
  0.12780000000000002         -1.8350572645431384E-005
  0.12890000000000001         -1.8819762772182003E-005
  0.13000000000000000         -1.9288258044980466E-005
  0.13109999999999999         -1.9755518223973922E-005
  0.13219999999999998         -2.0221124941599555E-005
  0.13330000000000003         -2.0684752598754130E-005
  0.13440000000000002         -2.1146093786228448E-005
  0.13550000000000001         -2.1604766516247764E-005
  0.13660000000000000         -2.2060236005927436E-005
  0.13769999999999999         -2.2511785573442467E-005
  0.13880000000000003         -2.2958547560847364E-005
  0.13990000000000002         -2.3399585188599303E-005
  0.14100000000000001         -2.3834012608858757E-005
  0.14210000000000000         -2.4261100406874903E-005
  0.14319999999999999         -2.4680319256731309E-005
  0.14429999999999998         -2.5091312636504881E-005
  0.14540000000000003         -2.5493827706668526E-005
  0.14650000000000002         -2.5887602532748133E-005
  0.14760000000000001         -2.6272256945958361E-005
  0.14870000000000000         -2.6647257982403971E-005
  0.14979999999999999         -2.7011943529942073E-005
  0.15090000000000003         -2.7365569621906616E-005
  0.15200000000000002         -2.7707372282748111E-005
  0.15310000000000001         -2.8036636649630964E-005
  0.15420000000000000         -2.8352738809189759E-005
  0.15529999999999999         -2.8655204005190171E-005
  0.15639999999999998         -2.8943764846189879E-005
  0.15750000000000003         -2.9218310373835266E-005
  0.15860000000000002         -2.9478782380465418E-005
  0.15970000000000001         -2.9725099011557177E-005
  0.16080000000000000         -2.9957123842905276E-005
  0.16189999999999999         -3.0174647690728307E-005
  0.16300000000000003         -3.0377379516721703E-005
  0.16410000000000002         -3.0564999178750440E-005
  0.16520000000000001         -3.0737195629626513E-005
  0.16630000000000000         -3.0893705115886405E-005
  0.16739999999999999         -3.1034338462632149E-005
  0.16850000000000004         -3.1158982892520726E-005
  0.16960000000000003         -3.1267638405552134E-005
  0.17070000000000002         -3.1360414141090587E-005
  0.17180000000000001         -3.1437455618288368E-005
  0.17290000000000000         -3.1498919270234182E-005
  0.17399999999999999         -3.1544957892037928E-005
  0.17510000000000003         -3.1575713364873081E-005
  0.17620000000000002         -3.1591363949701190E-005
  0.17730000000000001         -3.1592091545462608E-005
  0.17840000000000000         -3.1578070775140077E-005
  0.17949999999999999         -3.1549490813631564E-005
  0.18060000000000004         -3.1506580853601918E-005
  0.18170000000000003         -3.1449650123249739E-005
  0.18280000000000002         -3.1379095162265003E-005
  0.18390000000000001         -3.1295436201617122E-005
  0.18500000000000000         -3.1199237128021196E-005
  0.18609999999999999         -3.1091007258510217E-005
  0.18720000000000003         -3.0971132218837738E-005
  0.18830000000000002         -3.0839892133371904E-005
  0.18940000000000001         -3.0697552574565634E-005
  0.19050000000000000         -3.0544444598490372E-005
  0.19159999999999999         -3.0380955649889074E-005
  0.19270000000000004         -3.0207482268451713E-005
  0.19380000000000003         -3.0024490115465596E-005
  0.19490000000000002         -2.9832544896635227E-005
  0.19600000000000001         -2.9632288715220056E-005
  0.19710000000000000         -2.9424350941553712E-005
  0.19819999999999999         -2.9209311833255924E-005
  0.19930000000000003         -2.8987702535232529E-005
  0.20040000000000002         -2.8759935958078131E-005
  0.20150000000000001         -2.8526335881906562E-005
  0.20260000000000000         -2.8287282475503162E-005
  0.20369999999999999         -2.8043277779943310E-005
  0.20480000000000004         -2.7794856578111649E-005
  0.20590000000000003         -2.7542482712306082E-005
  0.20700000000000002         -2.7286561817163602E-005
  0.20810000000000001         -2.7027455871575512E-005
  0.20920000000000000         -2.6765485017676838E-005
  0.21029999999999999         -2.6501042157178745E-005
  0.21140000000000003         -2.6234540200675838E-005
  0.21250000000000002         -2.5966292014345527E-005
  0.21360000000000001         -2.5696492230053991E-005
  0.21470000000000000         -2.5425288185942918E-005
  0.21579999999999999         -2.5152919988613576E-005
  0.21690000000000004         -2.4879720513126813E-005
  0.21800000000000003         -2.4606059014331549E-005
  0.21910000000000002         -2.4332159227924421E-005
  0.22020000000000001         -2.4058075723587535E-005
  0.22130000000000000         -2.3783819415257312E-005
  0.22239999999999999         -2.3509452148573473E-005
  0.22350000000000003         -2.3235215849126689E-005
  0.22460000000000002         -2.2961392460274510E-005
  0.22570000000000001         -2.2688134777126834E-005
  0.22680000000000000         -2.2415373678086326E-005
  0.22789999999999999         -2.2142883608466946E-005
  0.22900000000000004         -2.1870499040232971E-005
  0.23010000000000003         -2.1598238163278438E-005
  0.23120000000000002         -2.1326253772713244E-005
  0.23230000000000001         -2.1054613171145320E-005
  0.23340000000000000         -2.0783201762242243E-005
  0.23450000000000004         -2.0511710317805409E-005
  0.23560000000000003         -2.0239807781763375E-005
  0.23670000000000002         -1.9967308617196977E-005
  0.23780000000000001         -1.9694109141710214E-005
  0.23890000000000000         -1.9420105672907084E-005
  0.23999999999999999         -1.9145081751048565E-005
  0.24110000000000004         -1.8868780898628756E-005
  0.24220000000000003         -1.8591055777505971E-005
  0.24330000000000002         -1.8311893654754385E-005
  0.24440000000000001         -1.8031358195003122E-005
  0.24550000000000000         -1.7749411199474707E-005
  0.24660000000000004         -1.7465819837525487E-005
  0.24770000000000003         -1.7180174836539663E-005
  0.24880000000000002         -1.6892061466933228E-005
  0.24990000000000001         -1.6601152310613543E-005
  0.25100000000000000         -1.6307216355926357E-005
  0.25209999999999999         -1.6010129911592230E-005
  0.25320000000000004         -1.5709740182501264E-005
  0.25430000000000003         -1.5405861631734297E-005
  0.25540000000000002         -1.5098330550245009E-005
  0.25650000000000001         -1.4787012332817540E-005
  0.25760000000000000         -1.4471814210992306E-005
  0.25870000000000004         -1.4152618859952781E-005
  0.25980000000000003         -1.3829243471263908E-005
  0.26090000000000002         -1.3501493413059507E-005
  0.26200000000000001         -1.3169300473236945E-005
  0.26310000000000000         -1.2832765605708119E-005
  0.26419999999999999         -1.2492049791035242E-005
  0.26530000000000004         -1.2147258530603722E-005
  0.26640000000000003         -1.1798272680607624E-005
  0.26750000000000002         -1.1444827578088734E-005
  0.26860000000000001         -1.1086790436820593E-005
  0.26970000000000000         -1.0724253115768079E-005
  0.27080000000000004         -1.0357447536080144E-005
  0.27190000000000003         -9.9865810625487939E-006
  0.27300000000000002         -9.6117237262660637E-006
  0.27410000000000001         -9.2328591563273221E-006
  0.27520000000000000         -8.8499791672802530E-006
  0.27629999999999999         -8.4632329162559472E-006
  0.27740000000000004         -8.0728768807603046E-006
  0.27850000000000003         -7.6791611718363129E-006
  0.27960000000000002         -7.2823122536647134E-006
  0.28070000000000001         -6.8824456320726313E-006
  0.28179999999999999         -6.4796586229931563E-006
  0.28290000000000004         -6.0742663663404528E-006
  0.28400000000000003         -5.6667995522730052E-006
  0.28510000000000002         -5.2577647693397012E-006
  0.28620000000000001         -4.8476154006493744E-006
  0.28730000000000000         -4.4367061491357163E-006
  0.28840000000000005         -4.0252543840324506E-006
  0.28950000000000004         -3.6134792935627047E-006
  0.29060000000000002         -3.2016152999858605E-006
  0.29170000000000001         -2.7899513952434063E-006
  0.29280000000000000         -2.3787665668351110E-006
  0.29389999999999999         -1.9683707250806037E-006
  0.29500000000000004         -1.5592063391522970E-006
  0.29610000000000003         -1.1517041684783180E-006
  0.29720000000000002         -7.4632799851315212E-007
  0.29830000000000001         -3.4350364330748562E-007
  0.29940000000000000          5.6500294220995784E-008
  0.30050000000000004          4.5338410359363479E-007
  0.30160000000000003          8.4673257561007631E-007
  0.30270000000000002          1.2360817436274374E-006
  0.30380000000000001          1.6209279465329018E-006
  0.30490000000000000          2.0007905732200015E-006
  0.30599999999999999          2.3752950255584437E-006
  0.30709999999999998          2.7440046324045397E-006
  0.30819999999999997          3.1063993901625508E-006
  0.30930000000000007          3.4620604765223106E-006
  0.31040000000000006          3.8106795727799181E-006
  0.31150000000000005          4.1521411731082480E-006
  0.31260000000000004          4.4864837036584504E-006
  0.31370000000000003          4.8137198973563500E-006
  0.31480000000000002          5.1336182878003456E-006
  0.31590000000000001          5.4456359066534787E-006
  0.31700000000000000          5.7491893130645622E-006
  0.31809999999999999          6.0439001572376583E-006
  0.31919999999999998          6.3295856307377107E-006
  0.32029999999999997          6.6061402321793139E-006
  0.32140000000000007          6.8733834268641658E-006
  0.32250000000000006          7.1310250859824009E-006
  0.32360000000000005          7.3789419730019290E-006
  0.32470000000000004          7.6171559157955926E-006
  0.32580000000000003          7.8457460404024459E-006
  0.32690000000000002          8.0647241702536121E-006
  0.32800000000000001          8.2738970377249643E-006
  0.32910000000000000          8.4730245362152345E-006
  0.33019999999999999          8.6618747445754707E-006
  0.33129999999999998          8.8402794062858447E-006
  0.33239999999999997          9.0081221060245298E-006
  0.33350000000000007          9.1652709670597687E-006
  0.33460000000000006          9.3117514552432112E-006
  0.33570000000000005          9.4478546088794246E-006
  0.33680000000000004          9.5740360848139971E-006
  0.33790000000000003          9.6907351689878851E-006
  0.33900000000000002          9.7981846920447424E-006
  0.34010000000000001          9.8963191703660414E-006
  0.34120000000000000          9.9848512036260217E-006
  0.34229999999999999          1.0063504305435345E-005
  0.34339999999999998          1.0132318493560888E-005
  0.34449999999999997          1.0191592991759535E-005
  0.34560000000000007          1.0241560630674940E-005
  0.34670000000000006          1.0282352377544157E-005
  0.34780000000000005          1.0314078281226102E-005
  0.34890000000000004          1.0336975719837938E-005
