 -0.20000000000000001          0.0000000000000000
 -0.19890000000000002          0.0000000000000000
 -0.19780000000000000          0.0000000000000000
 -0.19670000000000001          0.0000000000000000
 -0.19560000000000002          0.0000000000000000
 -0.19450000000000001          0.0000000000000000
 -0.19340000000000002          0.0000000000000000
 -0.19230000000000000          0.0000000000000000
 -0.19120000000000001          0.0000000000000000
 -0.19010000000000002         -1.4751229000727937E-026
 -0.18900000000000000         -2.4495694037782020E-025
 -0.18790000000000001         -1.4664355262130906E-024
 -0.18680000000000002         -3.6351290325348268E-024
 -0.18570000000000000          2.6524495388520932E-024
 -0.18460000000000001          4.6964632043942347E-023
 -0.18350000000000000          1.4433334861124577E-022
 -0.18240000000000001          1.4427265049773869E-022
 -0.18130000000000002         -4.2937948982317879E-022
 -0.18020000000000000         -1.9975319252356150E-021
 -0.17910000000000001         -3.3809945289562132E-021
 -0.17800000000000002         -7.2140925885151047E-023
 -0.17690000000000000          1.3495978375208577E-020
 -0.17580000000000001          3.3183500570602532E-020
 -0.17470000000000002          3.1124838665236680E-020
 -0.17360000000000000         -3.8008671265829979E-020
 -0.17250000000000001         -1.8301046642838881E-019
 -0.17140000000000000         -2.9072405171394704E-019
 -0.17030000000000001         -1.1142420119117554E-019
 -0.16920000000000002          5.4708428074673157E-019
 -0.16810000000000000          1.4275287590019616E-018
 -0.16700000000000001          1.5768127324862640E-018
 -0.16589999999999999         -1.9677239952662895E-019
 -0.16480000000000000         -3.9769863642522786E-018
 -0.16370000000000001         -7.3698947077160681E-018
 -0.16260000000000002         -5.9022380730301773E-018
 -0.16150000000000000          3.6222156305641142E-018
 -0.16040000000000001          1.8300545526483091E-017
 -0.15930000000000000          2.7334370284629816E-017
 -0.15820000000000001          1.7524390377193923E-017
 -0.15710000000000002         -1.5116821647357036E-017
 -0.15600000000000000         -5.6258532075749441E-017
 -0.15490000000000001         -7.7114455235727116E-017
 -0.15379999999999999         -5.2858780053489467E-017
 -0.15270000000000000          1.7166336977237369E-017
 -0.15160000000000001          1.0555115122005433E-016
 -0.15050000000000002          1.7371029768139229E-016
 -0.14940000000000001          1.9135139993432729E-016
 -0.14830000000000002          1.3531015166190845E-016
 -0.14720000000000000         -2.6760502154104278E-017
 -0.14610000000000001         -3.2400741356064374E-016
 -0.14500000000000002         -7.0480955090505330E-016
 -0.14390000000000000         -9.3866920665311213E-016
 -0.14280000000000001         -6.3779288645334470E-016
 -0.14169999999999999          4.7929004625358472E-016
 -0.14060000000000000          2.1638809772747433E-015
 -0.13950000000000001          3.4088303096329089E-015
 -0.13840000000000002          2.8292175222875896E-015
 -0.13730000000000001         -3.0896095851438393E-016
 -0.13619999999999999         -5.0279791045727366E-015
 -0.13510000000000000         -8.5461041929712949E-015
 -0.13400000000000001         -7.7234344543777261E-015
 -0.13290000000000002         -1.4232924370382742E-015
 -0.13180000000000000          7.9203518269247037E-015
 -0.13070000000000001          1.5113268370612587E-014
 -0.12959999999999999          1.5337688055919823E-014
 -0.12850000000000000          7.5232204296005870E-015
 -0.12740000000000001         -4.7448528362385732E-015
 -0.12630000000000002         -1.5712754244963904E-014
 -0.12520000000000001         -2.1330529166971036E-014
 -0.12410000000000000         -2.1051796035020228E-014
 -0.12300000000000001         -1.5940790760963195E-014
 -0.12190000000000001         -5.3738667026551438E-015
 -0.12080000000000000          1.3157247372766896E-014
 -0.11970000000000000          3.9093870556150540E-014
 -0.11860000000000001          6.2570723613234765E-014
 -0.11750000000000001          6.4651016202900213E-014
 -0.11640000000000000          2.8536499335414642E-014
 -0.11530000000000000         -4.3472980071490112E-014
 -0.11420000000000001         -1.2097305579149734E-013
 -0.11310000000000001         -1.5632615102575351E-013
 -0.11200000000000000         -1.1363045920863295E-013
 -0.11090000000000001          2.3051385443368300E-015
 -0.10980000000000001          1.3982085346304979E-013
 -0.10870000000000000          2.2630695603078089E-013
 -0.10760000000000000          2.1165602365373418E-013
 -0.10650000000000001          9.9623109241174530E-014
 -0.10540000000000001         -5.5406678187573780E-014
 -0.10430000000000000         -1.8330229369956687E-013
 -0.10320000000000000         -2.3816278810202846E-013
 -0.10210000000000001         -2.1485120811361662E-013
 -0.10100000000000001         -1.3507095019282312E-013
  -9.9900000000000003E-002    -2.2136691080487478E-014
  -9.8799999999999999E-002     1.0909779617246606E-013
  -9.7700000000000009E-002     2.3903207429889807E-013
  -9.6600000000000005E-002     3.2561280061130618E-013
  -9.5500000000000002E-002     3.1012104234450320E-013
  -9.4400000000000012E-002     1.5481913711108178E-013
  -9.3300000000000008E-002    -1.1198252611660515E-013
  -9.2200000000000004E-002    -3.8394347380227667E-013
  -9.1100000000000000E-002    -5.2002938630636061E-013
  -9.0000000000000011E-002    -4.2436621707986042E-013
  -8.8900000000000007E-002    -1.1225857754214836E-013
  -8.7800000000000003E-002     2.8395745498891219E-013
  -8.6699999999999999E-002     5.7773030066539539E-013
  -8.5600000000000009E-002     6.2426935365857972E-013
  -8.4500000000000006E-002     3.9461833865698636E-013
  -8.3400000000000002E-002    -1.1738203759025051E-014
  -8.2299999999999998E-002    -4.1876392761424916E-013
  -8.1200000000000008E-002    -6.5989992333379036E-013
  -8.0100000000000005E-002    -6.5410990426184764E-013
  -7.9000000000000001E-002    -4.3581587991208842E-013
  -7.7899999999999997E-002    -1.2549019440769062E-013
  -7.6800000000000007E-002     1.4365587983493705E-013
  -7.5700000000000003E-002     3.0350667725566083E-013
  -7.4600000000000000E-002     3.8747981602806079E-013
  -7.3500000000000010E-002     4.9951080598185486E-013
  -7.2399999999999992E-002     7.2987617468981487E-013
  -7.1300000000000002E-002     1.0686125378675783E-012
  -7.0200000000000012E-002     1.3717439727513461E-012
  -6.9099999999999995E-002     1.4008852671634736E-012
  -6.8000000000000005E-002     9.0829248419367920E-013
  -6.6900000000000015E-002    -2.8370150196098235E-013
  -6.5799999999999997E-002    -2.2400276078468158E-012
  -6.4700000000000008E-002    -4.8981959981090970E-012
  -6.3599999999999990E-002    -8.0560931189900886E-012
  -6.2500000000000000E-002    -1.1362825610982273E-011
  -6.1400000000000010E-002    -1.4353076019379066E-011
  -6.0299999999999992E-002    -1.6566479091316856E-011
  -5.9200000000000003E-002    -1.7734655757827158E-011
  -5.8100000000000013E-002    -1.7941771332517487E-011
  -5.6999999999999995E-002    -1.7644649630275271E-011
  -5.5900000000000005E-002    -1.7511896446829068E-011
  -5.4800000000000015E-002    -1.8162145398734794E-011
  -5.3699999999999998E-002    -1.9952197879978111E-011
  -5.2600000000000008E-002    -2.2924068893146889E-011
  -5.1499999999999990E-002    -2.6899329985672411E-011
  -5.0400000000000000E-002    -3.1613701240160122E-011
  -4.9300000000000010E-002    -3.6793939423015262E-011
  -4.8199999999999993E-002    -4.2173441822109133E-011
  -4.7100000000000003E-002    -4.7521649809696654E-011
  -4.6000000000000013E-002    -5.2742546441382308E-011
  -4.4899999999999995E-002    -5.7996888541684562E-011
  -4.3800000000000006E-002    -6.3727370602778600E-011
  -4.2699999999999988E-002    -7.0505781768475137E-011
  -4.1599999999999998E-002    -7.8758562171979927E-011
  -4.0500000000000008E-002    -8.8545157317368014E-011
  -3.9399999999999991E-002    -9.9551610011063302E-011
  -3.8300000000000001E-002    -1.1131905119920019E-010
  -3.7200000000000011E-002    -1.2356529688338815E-010
  -3.6099999999999993E-002    -1.3640125140489312E-010
  -3.5000000000000003E-002    -1.5032455835671552E-010
  -3.3900000000000013E-002    -1.6601453545204817E-010
  -3.2799999999999996E-002    -1.8405371671191217E-010
  -3.1700000000000006E-002    -2.0471468964442865E-010
  -3.0599999999999988E-002    -2.2790573594997559E-010
  -2.9499999999999998E-002    -2.5330429420653553E-010
  -2.8400000000000009E-002    -2.8063629198269164E-010
  -2.7299999999999991E-002    -3.0997834854493098E-010
  -2.6200000000000001E-002    -3.4190400510777515E-010
  -2.5100000000000011E-002    -3.7733768887267872E-010
  -2.3999999999999994E-002    -4.1714848242331851E-010
  -2.2900000000000004E-002    -4.6172568546327897E-010
  -2.1800000000000014E-002    -5.1085141672397700E-010
  -2.0699999999999996E-002    -5.6401622261498737E-010
  -1.9600000000000006E-002    -6.2099664299702844E-010
  -1.8499999999999989E-002    -6.8228495075921942E-010
  -1.7399999999999999E-002    -7.4904182856265510E-010
  -1.6300000000000009E-002    -8.2260270817250606E-010
  -1.5199999999999991E-002    -9.0391555351834816E-010
  -1.4100000000000001E-002    -9.9333163916517250E-010
  -1.3000000000000012E-002    -1.0908703940159092E-009
  -1.1899999999999994E-002    -1.1966960755670518E-009
  -1.0800000000000004E-002    -1.3114129782109038E-009
  -9.6999999999999864E-003    -1.4360027611458392E-009
  -8.5999999999999965E-003    -1.5715667656122863E-009
  -7.5000000000000067E-003    -1.7191673640225090E-009
  -6.3999999999999890E-003    -1.8798931300521516E-009
  -5.2999999999999992E-003    -2.0549897339348427E-009
  -4.2000000000000093E-003    -2.2458110926491136E-009
  -3.0999999999999917E-003    -2.4535493636788057E-009
  -2.0000000000000018E-003    -2.6789730434015654E-009
  -9.0000000000001190E-004    -2.9224593856011604E-009
   2.0000000000000573E-004    -3.1843816472584693E-009
   1.2999999999999956E-003    -3.4656142400276868E-009
   2.4000000000000132E-003    -3.7678438147278218E-009
   3.5000000000000031E-003    -4.0935534961757522E-009
   4.5999999999999930E-003    -4.4457877379496038E-009
   5.7000000000000106E-003    -4.8278363529159475E-009
   6.8000000000000005E-003    -5.2428430485913112E-009
   7.8999999999999904E-003    -5.6932920600155960E-009
   9.0000000000000080E-003    -6.1804974471607475E-009
   1.0099999999999998E-002    -6.7045058393938000E-009
   1.1199999999999988E-002    -7.2647963200715984E-009
   1.2300000000000005E-002    -7.8616881893360250E-009
   1.3399999999999995E-002    -8.4977180847537433E-009
   1.4500000000000013E-002    -9.1780485433892612E-009
   1.5600000000000003E-002    -9.9094670247259253E-009
   1.6699999999999993E-002    -1.0698524732787444E-008
   1.7800000000000010E-002    -1.1549927236841388E-008
   1.8900000000000000E-002    -1.2466091270367760E-008
   1.9999999999999990E-002    -1.3447919222640975E-008
   2.1100000000000008E-002    -1.4496074562940552E-008
   2.2199999999999998E-002    -1.5612007686625858E-008
   2.3300000000000015E-002    -1.6798491486723197E-008
   2.4400000000000005E-002    -1.8059898465592751E-008
   2.5499999999999995E-002    -1.9402387252396725E-008
   2.6600000000000013E-002    -2.0833745395519042E-008
   2.7700000000000002E-002    -2.2362412366303700E-008
   2.8799999999999992E-002    -2.3995841758048815E-008
   2.9900000000000010E-002    -2.5739010922618392E-008
   3.1000000000000000E-002    -2.7594195373123696E-008
   3.2099999999999990E-002    -2.9562427172888425E-008
   3.3200000000000007E-002    -3.1645818410194617E-008
   3.4299999999999997E-002    -3.3849367753188349E-008
   3.5400000000000015E-002    -3.6181234008832992E-008
   3.6500000000000005E-002    -3.8651627676241404E-008
   3.7599999999999995E-002    -4.1271256634441496E-008
   3.8700000000000012E-002    -4.4050121772439093E-008
   3.9800000000000002E-002    -4.6996774472059066E-008
   4.0899999999999992E-002    -5.0117730410188330E-008
   4.2000000000000010E-002    -5.3417195999822590E-008
   4.3099999999999999E-002    -5.6897707878528511E-008
   4.4200000000000017E-002    -6.0562150849813265E-008
   4.5300000000000007E-002    -6.4416433076524710E-008
   4.6399999999999997E-002    -6.8471223357840285E-008
   4.7500000000000014E-002    -7.2741116241552488E-008
   4.8600000000000004E-002    -7.7241438134471666E-008
   4.9699999999999994E-002    -8.1984552480200056E-008
   5.0800000000000012E-002    -8.6978218405412147E-008
   5.1900000000000002E-002    -9.2226763115368716E-008
   5.2999999999999992E-002    -9.7734016435415512E-008
   5.4099999999999981E-002    -1.0350567691829334E-007
   5.5200000000000027E-002    -1.0954992291089079E-007
   5.6300000000000017E-002    -1.1587687254176508E-007
   5.7400000000000007E-002    -1.2249800818152609E-007
   5.8499999999999996E-002    -1.2942629723510146E-007
   5.9599999999999986E-002    -1.3667595055720636E-007
   6.0700000000000032E-002    -1.4426105110486360E-007
   6.1800000000000022E-002    -1.5219306703782830E-007
   6.2900000000000011E-002    -1.6047923168115053E-007
   6.4000000000000001E-002    -1.6912342459816752E-007
   6.5099999999999991E-002    -1.7812951114136180E-007
   6.6199999999999981E-002    -1.8750459673809098E-007
   6.7300000000000026E-002    -1.9726002165041781E-007
   6.8400000000000016E-002    -2.0740945672057827E-007
   6.9500000000000006E-002    -2.1796611804345754E-007
   7.0599999999999996E-002    -2.2894141693539189E-007
   7.1699999999999986E-002    -2.4034574153117813E-007
   7.2800000000000031E-002    -2.5218940891133959E-007
   7.3900000000000021E-002    -2.6448216772221075E-007
   7.5000000000000011E-002    -2.7723154971679074E-007
   7.6100000000000001E-002    -2.9044173288636586E-007
   7.7199999999999991E-002    -3.0411518991965651E-007
   7.8299999999999981E-002    -3.1825641144675270E-007
   7.9400000000000026E-002    -3.3287463452321931E-007
   8.0500000000000016E-002    -3.4798307524394153E-007
   8.1600000000000006E-002    -3.6359477917354780E-007
   8.2699999999999996E-002    -3.7971878441563711E-007
   8.3799999999999986E-002    -3.9635943949175219E-007
   8.4900000000000031E-002    -4.1351907498206645E-007
   8.6000000000000021E-002    -4.3120121517854921E-007
   8.7100000000000011E-002    -4.4941100441060736E-007
   8.8200000000000001E-002    -4.6815301857345921E-007
   8.9299999999999990E-002    -4.8742924718676482E-007
   9.0399999999999980E-002    -5.0723980393736208E-007
   9.1500000000000026E-002    -5.2758610991072236E-007
   9.2600000000000016E-002    -5.4847333785796197E-007
   9.3700000000000006E-002    -5.6990916164062724E-007
   9.4799999999999995E-002    -5.9189886769667223E-007
   9.5899999999999985E-002    -6.1444234233925910E-007
   9.7000000000000031E-002    -6.3753446966069049E-007
   9.8100000000000021E-002    -6.6116967900591794E-007
   9.9200000000000010E-002    -6.8534552610793042E-007
  0.10030000000000000         -7.1006257940091677E-007
  0.10139999999999999         -7.3531998623359374E-007
  0.10249999999999998         -7.6111251701142636E-007
  0.10360000000000003         -7.8743153153474778E-007
  0.10470000000000002         -8.1426929909859283E-007
  0.10580000000000001         -8.4162235225441111E-007
  0.10690000000000000         -8.6948983835091959E-007
  0.10799999999999998         -8.9786868784349990E-007
  0.10910000000000003         -9.2674963525487773E-007
  0.11020000000000002         -9.5611892447768855E-007
  0.11130000000000001         -9.8596274256114950E-007
  0.11240000000000000         -1.0162705166293524E-006
  0.11349999999999999         -1.0470346296641696E-006
  0.11460000000000004         -1.0782450772238819E-006
  0.11570000000000003         -1.1098863978985591E-006
  0.11680000000000001         -1.1419404017941657E-006
  0.11790000000000000         -1.1743908316929075E-006
  0.11899999999999999         -1.2072273420925520E-006
  0.12009999999999998         -1.2404420886012962E-006
  0.12120000000000003         -1.2740238162222057E-006
  0.12230000000000002         -1.3079526297586794E-006
  0.12340000000000001         -1.3422034044195806E-006
  0.12450000000000000         -1.3767515838479616E-006
  0.12559999999999999         -1.4115778412814095E-006
  0.12670000000000003         -1.4466669426836697E-006
  0.12780000000000002         -1.4820018350290843E-006
  0.12890000000000001         -1.5175608041316480E-006
  0.13000000000000000         -1.5533189525738999E-006
  0.13109999999999999         -1.5892544524829976E-006
  0.13219999999999998         -1.6253499097727696E-006
  0.13330000000000003         -1.6615895219727726E-006
  0.13440000000000002         -1.6979523707048658E-006
  0.13550000000000001         -1.7344095795122677E-006
  0.13660000000000000         -1.7709281792120396E-006
  0.13769999999999999         -1.8074786112263734E-006
  0.13880000000000003         -1.8440383655614003E-006
  0.13990000000000002         -1.8805892523230851E-006
  0.14100000000000001         -1.9171106941937997E-006
  0.14210000000000000         -1.9535764295140310E-006
  0.14319999999999999         -1.9899566723322956E-006
  0.14429999999999998         -2.0262234556865141E-006
  0.14540000000000003         -2.0623542695828175E-006
  0.14650000000000002         -2.0983284230167405E-006
  0.14760000000000001         -2.1341206775103089E-006
  0.14870000000000000         -2.1696992007489607E-006
  0.14979999999999999         -2.2050298866813794E-006
  0.15090000000000003         -2.2400831767297573E-006
  0.15200000000000002         -2.2748372430212520E-006
  0.15310000000000001         -2.3092734409144774E-006
  0.15420000000000000         -2.3433701699102656E-006
  0.15529999999999999         -2.3770983261781608E-006
  0.15639999999999998         -2.4104272142719773E-006
  0.15750000000000003         -2.4433288672296363E-006
  0.15860000000000002         -2.4757812298046191E-006
  0.15970000000000001         -2.5077642931134875E-006
  0.16080000000000000         -2.5392548650413458E-006
  0.16189999999999999         -2.5702247512524392E-006
  0.16300000000000003         -2.6006439384216090E-006
  0.16410000000000002         -2.6304867333235307E-006
  0.16520000000000001         -2.6597338091957907E-006
  0.16630000000000000         -2.6883674308917052E-006
  0.16739999999999999         -2.7163673621541591E-006
  0.16850000000000004         -2.7437092739998806E-006
  0.16960000000000003         -2.7703681553245707E-006
  0.17070000000000002         -2.7963242246184658E-006
  0.17180000000000001         -2.8215622478453115E-006
  0.17290000000000000         -2.8460672183425279E-006
  0.17399999999999999         -2.8698207188424048E-006
  0.17510000000000003         -2.8928002393510725E-006
  0.17620000000000002         -2.9149839519956893E-006
  0.17730000000000001         -2.9363545763769215E-006
  0.17840000000000000         -2.9569002890636453E-006
  0.17949999999999999         -2.9766094939984134E-006
  0.18060000000000004         -2.9954692308817261E-006
  0.18170000000000003         -3.0134663120404071E-006
  0.18280000000000002         -3.0305886866696580E-006
  0.18390000000000001         -3.0468283966908382E-006
  0.18500000000000000         -3.0621790756410359E-006
  0.18609999999999999         -3.0766316285732324E-006
  0.18720000000000003         -3.0901733225616037E-006
  0.18830000000000002         -3.1027927889223772E-006
  0.18940000000000001         -3.1144825243242638E-006
  0.19050000000000000         -3.1252404824041836E-006
  0.19159999999999999         -3.1350675726568393E-006
  0.19270000000000004         -3.1439626582138531E-006
  0.19380000000000003         -3.1519236927121461E-006
  0.19490000000000002         -3.1589502214043675E-006
  0.19600000000000001         -3.1650463370166756E-006
  0.19710000000000000         -3.1702174965172802E-006
  0.19819999999999999         -3.1744666557639629E-006
  0.19930000000000003         -3.1777935873830478E-006
  0.20040000000000002         -3.1801978366271845E-006
  0.20150000000000001         -3.1816830414751793E-006
  0.20260000000000000         -3.1822592063687525E-006
  0.20369999999999999         -3.1819411105968074E-006
  0.20480000000000004         -3.1807417144588443E-006
  0.20590000000000003         -3.1786705676492323E-006
  0.20700000000000002         -3.1757372198623392E-006
  0.20810000000000001         -3.1719557682660432E-006
  0.20920000000000000         -3.1673444027543795E-006
  0.21029999999999999         -3.1619219953424097E-006
  0.21140000000000003         -3.1557028705716868E-006
  0.21250000000000002         -3.1486974876312817E-006
  0.21360000000000001         -3.1409174425786411E-006
  0.21470000000000000         -3.1323825169235293E-006
  0.21579999999999999         -3.1231195407596483E-006
  0.21690000000000004         -3.1131548894333495E-006
  0.21800000000000003         -3.1025103908174755E-006
  0.21910000000000002         -3.0912035526850357E-006
  0.22020000000000001         -3.0792537017984420E-006
  0.22130000000000000         -3.0666876682513976E-006
  0.22239999999999999         -3.0535361474900869E-006
  0.22350000000000003         -3.0398280159712912E-006
  0.22460000000000002         -3.0255851015678529E-006
  0.22570000000000001         -3.0108246846791059E-006
  0.22680000000000000         -2.9955676836831913E-006
  0.22789999999999999         -2.9798441119052667E-006
  0.22900000000000004         -2.9636880753966496E-006
  0.23010000000000003         -2.9471309517245501E-006
  0.23120000000000002         -2.9301979793669435E-006
  0.23230000000000001         -2.9129112135703471E-006
  0.23340000000000000         -2.8952979391758143E-006
  0.23450000000000004         -2.8773931717293632E-006
  0.23560000000000003         -2.8592332910190648E-006
  0.23670000000000002         -2.8408469461280250E-006
  0.23780000000000001         -2.8222530090713055E-006
  0.23890000000000000         -2.8034667138851611E-006
  0.23999999999999999         -2.7845119348055132E-006
  0.24110000000000004         -2.7654230052573537E-006
  0.24220000000000003         -2.7462378966444823E-006
  0.24330000000000002         -2.7269873044130827E-006
  0.24440000000000001         -2.7076916921939454E-006
  0.24550000000000000         -2.6883692498811058E-006
  0.24660000000000004         -2.6690449885788631E-006
  0.24770000000000003         -2.6497525595911820E-006
  0.24880000000000002         -2.6305247047273267E-006
  0.24990000000000001         -2.6113825697391140E-006
  0.25100000000000000         -2.5923363864419380E-006
  0.25209999999999999         -2.5733957045301675E-006
  0.25320000000000004         -2.5545809876345927E-006
  0.25430000000000003         -2.5359231585750740E-006
  0.25540000000000002         -2.5174549591608747E-006
  0.25650000000000001         -2.4991991267595393E-006
  0.25760000000000000         -2.4811661205601382E-006
  0.25870000000000004         -2.4633645807623384E-006
  0.25980000000000003         -2.4458099687760699E-006
  0.26090000000000002         -2.4285250219688771E-006
  0.26200000000000001         -2.4115311134662512E-006
  0.26310000000000000         -2.3948393845782898E-006
  0.26419999999999999         -2.3784521090417469E-006
  0.26530000000000004         -2.3623736069564558E-006
  0.26640000000000003         -2.3466179754902938E-006
  0.26750000000000002         -2.3312074972634550E-006
  0.26860000000000001         -2.3161589979279214E-006
  0.26970000000000000         -2.3014765702098514E-006
  0.27080000000000004         -2.2871574856251401E-006
  0.27190000000000003         -2.2732035631631902E-006
  0.27300000000000002         -2.2596270810024761E-006
  0.27410000000000001         -2.2464435005529279E-006
  0.27520000000000000         -2.2336598703984843E-006
  0.27629999999999999         -2.2212700514499084E-006
  0.27740000000000004         -2.2092624476497522E-006
  0.27850000000000003         -2.1976350126349375E-006
  0.27960000000000002         -2.1863986603418847E-006
  0.28070000000000001         -2.1755681700594985E-006
  0.28179999999999999         -2.1651474071402606E-006
  0.28290000000000004         -2.1551252302740750E-006
  0.28400000000000003         -2.1454868601720373E-006
  0.28510000000000002         -2.1362282041079897E-006
  0.28620000000000001         -2.1273579022815992E-006
  0.28730000000000000         -2.1188857317609098E-006
  0.28840000000000005         -2.1108091914354916E-006
  0.28950000000000004         -2.1031114556533618E-006
  0.29060000000000002         -2.0957729702784319E-006
  0.29170000000000001         -2.0887869141004395E-006
  0.29280000000000000         -2.0821596535822960E-006
  0.29389999999999999         -2.0758989194289674E-006
  0.29500000000000004         -2.0699997094195932E-006
  0.29610000000000003         -2.0644442884074896E-006
  0.29720000000000002         -2.0592137843775939E-006
  0.29830000000000001         -2.0543036498563977E-006
  0.29940000000000000         -2.0497204786804889E-006
  0.30050000000000004         -2.0454685909497009E-006
  0.30160000000000003         -2.0415388917170159E-006
  0.30270000000000002         -2.0379093257359160E-006
  0.30380000000000001         -2.0345598841229622E-006
  0.30490000000000000         -2.0314832909205398E-006
  0.30599999999999999         -2.0286850030968604E-006
  0.30709999999999998         -2.0261677491360288E-006
  0.30819999999999997         -2.0239222067173515E-006
  0.30930000000000007         -2.0219299585731183E-006
  0.31040000000000006         -2.0201766801617755E-006
  0.31150000000000005         -2.0186607798675959E-006
  0.31260000000000004         -2.0173881694061401E-006
  0.31370000000000003         -2.0163577119090314E-006
  0.31480000000000002         -2.0155553102083927E-006
  0.31590000000000001         -2.0149593638050560E-006
  0.31700000000000000         -2.0145573671468723E-006
  0.31809999999999999         -2.0143504571022190E-006
  0.31919999999999998         -2.0143450001340083E-006
  0.32029999999999997         -2.0145378130107842E-006
  0.32140000000000007         -2.0149127522015901E-006
  0.32250000000000006         -2.0154523099334169E-006
  0.32360000000000005         -2.0161508018643785E-006
  0.32470000000000004         -2.0170182324361944E-006
  0.32580000000000003         -2.0180639239695578E-006
  0.32690000000000002         -2.0192810552542050E-006
  0.32800000000000001         -2.0206468889225925E-006
  0.32910000000000000         -2.0221386876071756E-006
  0.33019999999999999         -2.0237516764607699E-006
  0.33129999999999998         -2.0254985884091998E-006
  0.33239999999999997         -2.0273917016309402E-006
  0.33350000000000007         -2.0294257865314549E-006
  0.33460000000000006         -2.0315796973589286E-006
  0.33570000000000005         -2.0338341073509483E-006
  0.33680000000000004         -2.0361899260022152E-006
  0.33790000000000003         -2.0386644337120639E-006
  0.33900000000000002         -2.0412708181536692E-006
  0.34010000000000001         -2.0440004391273652E-006
  0.34120000000000000         -2.0468278307815014E-006
  0.34229999999999999         -2.0497304831222097E-006
  0.34339999999999998         -2.0527072592811120E-006
  0.34449999999999997         -2.0557745301628408E-006
  0.34560000000000007         -2.0589466203089494E-006
  0.34670000000000006         -2.0622183001249016E-006
  0.34780000000000005         -2.0655704702219607E-006
  0.34890000000000004         -2.0689883513112234E-006
