 -0.20000000000000001          0.0000000000000000
 -0.19890000000000002          0.0000000000000000
 -0.19780000000000000          0.0000000000000000
 -0.19670000000000001          0.0000000000000000
 -0.19560000000000002          0.0000000000000000
 -0.19450000000000001          0.0000000000000000
 -0.19340000000000002          0.0000000000000000
 -0.19230000000000000          0.0000000000000000
 -0.19120000000000001          0.0000000000000000
 -0.19010000000000002          0.0000000000000000
 -0.18900000000000000          1.0267561054278457E-047
 -0.18790000000000001          4.6333986725752913E-035
 -0.18680000000000002          8.9755431353677550E-034
 -0.18570000000000000          3.8428221739315595E-033
 -0.18460000000000001         -8.3458859128346871E-034
 -0.18350000000000000         -4.6819734281754757E-032
 -0.18240000000000001         -1.2253021623573605E-031
 -0.18130000000000002         -1.3224352589065671E-031
 -0.18020000000000000         -6.5333599860509504E-031
 -0.17910000000000001         -3.8471037445918610E-030
 -0.17800000000000002         -7.2858441371340136E-030
 -0.17690000000000000          1.4356808659243364E-029
 -0.17580000000000001          9.9545944277136398E-029
 -0.17470000000000002          1.7084811388280930E-028
 -0.17360000000000000         -1.3689235599679781E-028
 -0.17250000000000001         -1.1178956361979991E-027
 -0.17140000000000000         -1.5861241613074807E-027
 -0.17030000000000001          1.8280443623702292E-027
 -0.16920000000000002          9.7558027555268160E-027
 -0.16810000000000000          9.1549973537986337E-027
 -0.16700000000000001         -2.4653790699500044E-026
 -0.16589999999999999         -8.1418629850714263E-026
 -0.16480000000000000         -4.5518774915898550E-026
 -0.16370000000000001          2.4929476323609638E-025
 -0.16260000000000002          6.6741019753220999E-025
 -0.16150000000000000          3.4823147929787417E-025
 -0.16040000000000001         -1.8241897645799099E-024
 -0.15930000000000000         -4.9622636544079220E-024
 -0.15820000000000001         -3.6537213007813370E-024
 -0.15710000000000002          9.4240226745823865E-024
 -0.15600000000000000          3.1031733817600835E-023
 -0.15490000000000001          3.2677603743929298E-023
 -0.15379999999999999         -2.9600279440749022E-023
 -0.15270000000000000         -1.5601230178442429E-022
 -0.15160000000000001         -2.2355217435232982E-022
 -0.15050000000000002         -2.8166087322731442E-024
 -0.14940000000000001          6.0340023651808560E-022
 -0.14830000000000002          1.1782431529092430E-021
 -0.14720000000000000          7.1055289197054810E-022
 -0.14610000000000001         -1.6121254355355212E-021
 -0.14500000000000002         -4.8154327437714170E-021
 -0.14390000000000000         -5.2141257210870231E-021
 -0.14280000000000001          1.5527073719242197E-021
 -0.14169999999999999          1.4905621770382593E-020
 -0.14060000000000000          2.4104970396813280E-020
 -0.13950000000000001          1.1426361981289304E-020
 -0.13840000000000002         -3.1306579293104775E-020
 -0.13730000000000001         -8.1158024469427966E-020
 -0.13619999999999999         -8.1365601566748741E-020
 -0.13510000000000000          1.9834219122724257E-020
 -0.13400000000000001          1.9861040777220018E-019
 -0.13290000000000002          3.1303587871973575E-019
 -0.13180000000000000          1.6738620080475606E-019
 -0.13070000000000001         -3.0158958604770500E-019
 -0.12959999999999999         -8.3712022158866162E-019
 -0.12850000000000000         -8.9444931811023733E-019
 -0.12740000000000001         -2.8732936064276057E-020
 -0.12630000000000002          1.5338494884583259E-018
 -0.12520000000000001          2.6501717045149673E-018
 -0.12410000000000000          1.8417889781775567E-018
 -0.12300000000000001         -1.3678633942376449E-018
 -0.12190000000000001         -5.3048631238965976E-018
 -0.12080000000000000         -6.5216118905575783E-018
 -0.11970000000000000         -2.2254831159605917E-018
 -0.11860000000000001          6.5616308885916681E-018
 -0.11750000000000001          1.3932342023574133E-017
 -0.11640000000000000          1.2303425701291946E-017
 -0.11530000000000000         -1.1202762427801185E-018
 -0.11420000000000001         -1.9439277099310104E-017
 -0.11310000000000001         -2.8252919613289354E-017
 -0.11200000000000000         -1.5982270943773103E-017
 -0.11090000000000001          1.4212855512899831E-017
 -0.10980000000000001          4.1777924816015736E-017
 -0.10870000000000000          4.1576271417568436E-017
 -0.10760000000000000          5.7143572317842972E-018
 -0.10650000000000001         -4.3333805226111237E-017
 -0.10540000000000001         -6.4119176497290978E-017
 -0.10430000000000000         -2.9762802163887720E-017
 -0.10320000000000000          4.1240105216620100E-017
 -0.10210000000000001          8.8054203386884432E-017
 -0.10100000000000001          5.3357192768510798E-017
  -9.9900000000000003E-002    -5.7761664832549220E-017
  -9.8799999999999999E-002    -1.5893325205119266E-016
  -9.7700000000000009E-002    -1.3662081603374822E-016
  -9.6600000000000005E-002     4.8612405365546348E-017
  -9.5500000000000002E-002     2.9341573340957775E-016
  -9.4400000000000012E-002     3.9165059122565793E-016
  -9.3300000000000008E-002     1.8350588960931577E-016
  -9.2200000000000004E-002    -2.8505639172286886E-016
  -9.1100000000000000E-002    -7.3009486080904885E-016
  -9.0000000000000011E-002    -7.8931125178900684E-016
  -8.8900000000000007E-002    -2.8994496296873768E-016
  -8.7800000000000003E-002     5.6949598464145110E-016
  -8.6699999999999999E-002     1.2874005060923585E-015
  -8.5600000000000009E-002     1.3671664457683374E-015
  -8.4500000000000006E-002     6.6146433389527299E-016
  -8.3400000000000002E-002    -5.0403134924693246E-016
  -8.2299999999999998E-002    -1.5322007570244271E-015
  -8.1200000000000008E-002    -1.9342831678005499E-015
  -8.0100000000000005E-002    -1.5949249231973887E-015
  -7.9000000000000001E-002    -7.2689551148837726E-016
  -7.7899999999999997E-002     4.0328554166800897E-016
  -7.6800000000000007E-002     1.6780534777944402E-015
  -7.5700000000000003E-002     3.0150883146510337E-015
  -7.4600000000000000E-002     4.0175518077266871E-015
  -7.3500000000000010E-002     3.7952598691812674E-015
  -7.2399999999999992E-002     1.3597919651717701E-015
  -7.1300000000000002E-002    -3.4394914200151717E-015
  -7.0200000000000012E-002    -9.0611527409444783E-015
  -6.9099999999999995E-002    -1.2363344567133814E-014
  -6.8000000000000005E-002    -1.0061510510114329E-014
  -6.6900000000000015E-002    -1.0004586719699390E-015
  -6.5799999999999997E-002     1.2166208660086918E-014
  -6.4700000000000008E-002     2.3317060291577538E-014
  -6.3599999999999990E-002     2.5601450552083396E-014
  -6.2500000000000000E-002     1.5365053996384968E-014
  -6.1400000000000010E-002    -5.0228710723803634E-015
  -6.0299999999999992E-002    -2.7413996027118384E-014
  -5.9200000000000003E-002    -4.1463756934215513E-014
  -5.8100000000000013E-002    -3.9721521970065131E-014
  -5.6999999999999995E-002    -2.1337198704406558E-014
  -5.5900000000000005E-002     7.6853654055917061E-015
  -5.4800000000000015E-002     3.7517399939767240E-014
  -5.3699999999999998E-002     5.8571230547931743E-014
  -5.2600000000000008E-002     6.4052733115324632E-014
  -5.1499999999999990E-002     5.0228674301425459E-014
  -5.0400000000000000E-002     1.6056547977608581E-014
  -4.9300000000000010E-002    -3.5379224506612195E-014
  -4.8199999999999993E-002    -9.3224120914147576E-014
  -4.7100000000000003E-002    -1.3626304403400786E-013
  -4.6000000000000013E-002    -1.3667746676192278E-013
  -4.4899999999999995E-002    -7.2945650713400284E-014
  -4.3800000000000006E-002     5.2164625700588142E-014
  -4.2699999999999988E-002     1.9955887528391159E-013
  -4.1599999999999998E-002     2.9998049942517772E-013
  -4.0500000000000008E-002     2.8269107974627354E-013
  -3.9399999999999991E-002     1.1669753162936032E-013
  -3.8300000000000001E-002    -1.5759672755164679E-013
  -3.7200000000000011E-002    -4.2917104874255024E-013
  -3.6099999999999993E-002    -5.5824534448201587E-013
  -3.5000000000000003E-002    -4.4469972409338784E-013
  -3.3900000000000013E-002    -8.9566856264634537E-014
  -3.2799999999999996E-002     3.8599131486553516E-013
  -3.1700000000000006E-002     7.8120371499798606E-013
  -3.0599999999999988E-002     9.0190778023047695E-013
  -2.9499999999999998E-002     6.5253775690177196E-013
  -2.8400000000000009E-002     8.7952181074188303E-014
  -2.7299999999999991E-002    -6.0204315491247897E-013
  -2.6200000000000001E-002    -1.1685622088030478E-012
  -2.5100000000000011E-002    -1.4023667210121452E-012
  -2.3999999999999994E-002    -1.2080325888923790E-012
  -2.2900000000000004E-002    -6.2254628535592259E-013
  -2.1800000000000014E-002     2.1972389727985677E-013
  -2.0699999999999996E-002     1.1441957407583768E-012
  -1.9600000000000006E-002     1.9762106447800094E-012
  -1.8499999999999989E-002     2.5445704571190461E-012
  -1.7399999999999999E-002     2.6636271313605867E-012
  -1.6300000000000009E-002     2.1351995692364331E-012
  -1.5199999999999991E-002     8.0797418451981399E-013
  -1.4100000000000001E-002    -1.3053156645846535E-012
  -1.3000000000000012E-002    -3.9048499676783900E-012
  -1.1899999999999994E-002    -6.3602447961106560E-012
  -1.0800000000000004E-002    -7.8177802773081223E-012
  -9.6999999999999864E-003    -7.4629772847666538E-012
  -8.5999999999999965E-003    -4.8526573384610547E-012
  -7.5000000000000067E-003    -1.6614235486515658E-013
  -6.3999999999999890E-003     5.7680123698165918E-012
  -5.2999999999999992E-003     1.1723901363613672E-011
  -4.2000000000000093E-003     1.6526316773401636E-011
  -3.0999999999999917E-003     1.9499100251118584E-011
  -2.0000000000000018E-003     2.0696744665315375E-011
  -9.0000000000001190E-004     2.0799211311594118E-011
   2.0000000000000573E-004     2.0724968616268975E-011
   1.2999999999999956E-003     2.1176903980400551E-011
   2.4000000000000132E-003     2.2382170769550623E-011
   3.5000000000000031E-003     2.4178083146695124E-011
   4.5999999999999930E-003     2.6381508089198674E-011
   5.7000000000000106E-003     2.9183162830733682E-011
   6.8000000000000005E-003     3.3261577520034618E-011
   7.8999999999999904E-003     3.9466482165680107E-011
   9.0000000000000080E-003     4.8204541053249509E-011
   1.0099999999999998E-002     5.8901571120535331E-011
   1.1199999999999988E-002     6.9945722824811077E-011
   1.2300000000000005E-002     7.9281033127371499E-011
   1.3399999999999995E-002     8.5432688701198352E-011
   1.4500000000000013E-002     8.8433128875292353E-011
   1.5600000000000003E-002     9.0092544535729202E-011
   1.6699999999999993E-002     9.3370200460177773E-011
   1.7800000000000010E-002     1.0109909437393759E-010
   1.8900000000000000E-002     1.1470886046581849E-010
   1.9999999999999990E-002     1.3363378459362275E-010
   2.1100000000000008E-002     1.5573635436803956E-010
   2.2199999999999998E-002     1.7851434219727477E-010
   2.3300000000000015E-002     2.0041911186206657E-010
   2.4400000000000005E-002     2.2156028400830887E-010
   2.5499999999999995E-002     2.4344493088077910E-010
   2.6600000000000013E-002     2.6797480900950894E-010
   2.7700000000000002E-002     2.9635488507648744E-010
   2.8799999999999992E-002     3.2858743503891497E-010
   2.9900000000000010E-002     3.6382977186552543E-010
   3.1000000000000000E-002     4.0133346645984317E-010
   3.2099999999999990E-002     4.4131551191203118E-010
   3.3200000000000007E-002     4.8517112549713590E-010
   3.4299999999999997E-002     5.3488335982616716E-010
   3.5400000000000015E-002     5.9202226454497430E-010
   3.6500000000000005E-002     6.5700145324138152E-010
   3.7599999999999995E-002     7.2908867831949710E-010
   3.8700000000000012E-002     8.0716466843704528E-010
   3.9800000000000002E-002     8.9072088593759642E-010
   4.0899999999999992E-002     9.8042685081615070E-010
   4.2000000000000010E-002     1.0778905545904238E-009
   4.3099999999999999E-002     1.1847890446502635E-009
   4.4200000000000017E-002     1.3019862965534327E-009
   4.5300000000000007E-002     1.4292912409173934E-009
   4.6399999999999997E-002     1.5660894803203179E-009
   4.7500000000000014E-002     1.7124904827524340E-009
   4.8600000000000004E-002     1.8702492887710691E-009
   4.9699999999999994E-002     2.0428050362396044E-009
   5.0800000000000012E-002     2.2342989680621944E-009
   5.1900000000000002E-002     2.4480659721602076E-009
   5.2999999999999992E-002     2.6854487522596263E-009
   5.4099999999999981E-002     2.9456388439539179E-009
   5.5200000000000027E-002     3.2266722627125206E-009
   5.6300000000000017E-002     3.5270542042550789E-009
   5.7400000000000007E-002     3.8471306140760654E-009
   5.8499999999999996E-002     4.1894856472875983E-009
   5.9599999999999986E-002     4.5582195795642233E-009
   6.0700000000000032E-002     4.9575947791420795E-009
   6.1800000000000022E-002     5.3908748576243569E-009
   6.2900000000000011E-002     5.8600151398020235E-009
   6.4000000000000001E-002     6.3663074811865332E-009
   6.5099999999999991E-002     6.9115007050862746E-009
   6.6199999999999981E-002     7.4986497011758081E-009
   6.7300000000000026E-002     8.1321624989521013E-009
   6.8400000000000016E-002     8.8170244438849358E-009
   6.9500000000000006E-002     9.5577190606369546E-009
   7.0599999999999996E-002     1.0357486424083224E-008
   7.1699999999999986E-002     1.1218347140128561E-008
   7.2800000000000031E-002     1.2141801342123842E-008
   7.3900000000000021E-002     1.3129744402816703E-008
   7.5000000000000011E-002     1.4185071783855366E-008
   7.6100000000000001E-002     1.5311755419132734E-008
   7.7199999999999991E-002     1.6514544398658938E-008
   7.8299999999999981E-002     1.7798701179570700E-008
   7.9400000000000026E-002     1.9170038001446545E-008
   8.0500000000000016E-002     2.0635194886152143E-008
   8.1600000000000006E-002     2.2201778193673807E-008
   8.2699999999999996E-002     2.3877962718186459E-008
   8.3799999999999986E-002     2.5671504033650919E-008
   8.4900000000000031E-002     2.7588594520009335E-008
   8.6000000000000021E-002     2.9633319797992328E-008
   8.7100000000000011E-002     3.1808305323008527E-008
   8.8200000000000001E-002     3.4116474978415591E-008
   8.9299999999999990E-002     3.6563172045586430E-008
   9.0399999999999980E-002     3.9157377784701052E-008
   9.1500000000000026E-002     4.1911231818399920E-008
   9.2600000000000016E-002     4.4837793922166303E-008
   9.3700000000000006E-002     4.7948180537101168E-008
   9.4799999999999995E-002     5.1249632093681904E-008
   9.5899999999999985E-002     5.4745697752873640E-008
   9.7000000000000031E-002     5.8438583749870904E-008
   9.8100000000000021E-002     6.2332468075959965E-008
   9.9200000000000010E-002     6.6436008694376066E-008
  0.10030000000000000          7.0762652626393469E-008
  0.10139999999999999          7.5328649984378992E-008
  0.10249999999999998          8.0149945347323093E-008
  0.10360000000000003          8.5239570068999611E-008
  0.10470000000000002          9.0606960156939455E-008
  0.10580000000000001          9.6259249460209642E-008
  0.10690000000000000          1.0220358603873192E-007
  0.10799999999999998          1.0844899378525044E-007
  0.10910000000000003          1.1500682006725529E-007
  0.11020000000000002          1.2188968412373357E-007
  0.11130000000000001          1.2910989255486865E-007
  0.11240000000000000          1.3667825271567144E-007
  0.11349999999999999          1.4460431430051052E-007
  0.11460000000000004          1.5289737120836970E-007
  0.11570000000000003          1.6156783999575516E-007
  0.11680000000000001          1.7062771462404655E-007
  0.11790000000000000          1.8009012592300071E-007
  0.11899999999999999          1.8996809103553680E-007
  0.12009999999999998          2.0027366076645324E-007
  0.12120000000000003          2.1101779168473553E-007
  0.12230000000000002          2.2221118456398417E-007
  0.12340000000000001          2.3386529335309959E-007
  0.12450000000000000          2.4599268044765006E-007
  0.12559999999999999          2.5860614982773401E-007
  0.12670000000000003          2.7171745387020086E-007
  0.12780000000000002          2.8533605700429094E-007
  0.12890000000000001          2.9946897939223356E-007
  0.13000000000000000          3.1412204748446195E-007
  0.13109999999999999          3.2930165616559800E-007
  0.13219999999999998          3.4501607615308586E-007
  0.13330000000000003          3.6127573821428659E-007
  0.13440000000000002          3.7809192576784396E-007
  0.13550000000000001          3.9547504115940959E-007
  0.13660000000000000          4.1343307088933339E-007
  0.13769999999999999          4.3197093191334680E-007
  0.13880000000000003          4.5109138113726453E-007
  0.13990000000000002          4.7079623755049022E-007
  0.14100000000000001          4.9108780331148775E-007
  0.14210000000000000          5.1196957429051694E-007
  0.14319999999999999          5.3344604111766779E-007
  0.14429999999999998          5.5552163757961157E-007
  0.14540000000000003          5.7819977428147980E-007
  0.14650000000000002          6.0148227021267614E-007
  0.14760000000000001          6.2536901168636287E-007
  0.14870000000000000          6.4985852077364951E-007
  0.14979999999999999          6.7494835320752503E-007
  0.15090000000000003          7.0063538259995220E-007
  0.15200000000000002          7.2691574359844838E-007
  0.15310000000000001          7.5378466135582937E-007
  0.15420000000000000          7.8123616731311477E-007
  0.15529999999999999          8.0926338341662234E-007
  0.15639999999999998          8.3785892002190016E-007
  0.15750000000000003          8.6701493273714554E-007
  0.15860000000000002          8.9672312242320481E-007
  0.15970000000000001          9.2697456466331672E-007
  0.16080000000000000          9.5775942554601845E-007
  0.16189999999999999          9.8906673429146977E-007
  0.16300000000000003          1.0208841558777780E-006
  0.16410000000000002          1.0531983889449294E-006
  0.16520000000000001          1.0859948815776962E-006
  0.16630000000000000          1.1192580586793100E-006
  0.16739999999999999          1.1529715493451391E-006
  0.16850000000000004          1.1871184142363630E-006
  0.16960000000000003          1.2216812592668103E-006
  0.17070000000000002          1.2566426903503093E-006
  0.17180000000000001          1.2919844039059872E-006
  0.17290000000000000          1.3276874142319446E-006
  0.17399999999999999          1.3637313713842289E-006
  0.17510000000000003          1.4000958117320502E-006
  0.17620000000000002          1.4367595895235928E-006
  0.17730000000000001          1.4737012179465270E-006
  0.17840000000000000          1.5108988691280100E-006
  0.17949999999999999          1.5483306015083621E-006
  0.18060000000000004          1.5859736777200384E-006
  0.18170000000000003          1.6238050193349817E-006
  0.18280000000000002          1.6618013205514591E-006
  0.18390000000000001          1.6999384797598738E-006
  0.18500000000000000          1.7381929637848170E-006
  0.18609999999999999          1.7765413531377183E-006
  0.18720000000000003          1.8149613651983841E-006
  0.18830000000000002          1.8534313994676473E-006
  0.18940000000000001          1.8919298554463411E-006
  0.19050000000000000          1.9304347915747850E-006
  0.19159999999999999          1.9689232431117593E-006
  0.19270000000000004          2.0073719042555310E-006
  0.19380000000000003          2.0457569007701786E-006
  0.19490000000000002          2.0840559500355086E-006
  0.19600000000000001          2.1222476789260295E-006
  0.19710000000000000          2.1603125333056530E-006
  0.19819999999999999          2.1982318685329929E-006
  0.19930000000000003          2.2359881768350400E-006
  0.20040000000000002          2.2735639504387851E-006
  0.20150000000000001          2.3109423636922455E-006
  0.20260000000000000          2.3481063635697634E-006
  0.20369999999999999          2.3850398065403814E-006
  0.20480000000000004          2.4217272311941698E-006
  0.20590000000000003          2.4581538582422253E-006
  0.20700000000000002          2.4943062726376958E-006
  0.20810000000000001          2.5301735604441605E-006
  0.20920000000000000          2.5657461719672512E-006
  0.21029999999999999          2.6010170586230287E-006
  0.21140000000000003          2.6359796265749048E-006
  0.21250000000000002          2.6706277367336433E-006
  0.21360000000000001          2.7049561595047086E-006
  0.21470000000000000          2.7389594379198901E-006
  0.21579999999999999          2.7726332518793540E-006
  0.21690000000000004          2.8059735086569430E-006
  0.21800000000000003          2.8389781618895779E-006
  0.21910000000000002          2.8716476663246098E-006
  0.22020000000000001          2.9039852051934942E-006
  0.22130000000000000          2.9359966902117930E-006
  0.22239999999999999          2.9676884878424186E-006
  0.22350000000000003          2.9990674192956347E-006
  0.22460000000000002          3.0301391689133266E-006
  0.22570000000000001          3.0609105579057584E-006
  0.22680000000000000          3.0913899990989207E-006
  0.22789999999999999          3.1215884064292356E-006
  0.22900000000000004          3.1515194223172293E-006
  0.23010000000000003          3.1811982807991559E-006
  0.23120000000000002          3.2106402159112712E-006
  0.23230000000000001          3.2398609164371802E-006
  0.23340000000000000          3.2688758437868130E-006
  0.23450000000000004          3.2977013688648017E-006
  0.23560000000000003          3.3263554541915061E-006
  0.23670000000000002          3.3548576539030145E-006
  0.23780000000000001          3.3832297958721693E-006
  0.23890000000000000          3.4114950722138659E-006
  0.23999999999999999          3.4396766750429993E-006
  0.24110000000000004          3.4677984785954911E-006
  0.24220000000000003          3.4958827654915348E-006
  0.24330000000000002          3.5239513636039729E-006
  0.24440000000000001          3.5520267829266744E-006
  0.24550000000000000          3.5801324429482097E-006
  0.24660000000000004          3.6082940368939042E-006
  0.24770000000000003          3.6365397590995126E-006
  0.24880000000000002          3.6648984860218162E-006
  0.24990000000000001          3.6934000036122983E-006
  0.25100000000000000          3.7220725062067136E-006
  0.25209999999999999          3.7509421417777383E-006
  0.25320000000000004          3.7800332393086442E-006
  0.25430000000000003          3.8093692182880029E-006
  0.25540000000000002          3.8389744076990860E-006
  0.25650000000000001          3.8688740460198684E-006
  0.25760000000000000          3.8990947359703768E-006
  0.25870000000000004          3.9296646718863659E-006
  0.25980000000000003          3.9606106838615373E-006
  0.26090000000000002          3.9919596019895949E-006
  0.26200000000000001          4.0237346183854323E-006
  0.26310000000000000          4.0559566514271919E-006
  0.26419999999999999          4.0886461647456620E-006
  0.26530000000000004          4.1218218029822306E-006
  0.26640000000000003          4.1555031202729841E-006
  0.26750000000000002          4.1897110349960640E-006
  0.26860000000000001          4.2244660107822613E-006
  0.26970000000000000          4.2597871470203114E-006
  0.27080000000000004          4.2956912693621979E-006
  0.27190000000000003          4.3321911107337456E-006
  0.27300000000000002          4.3692984945660777E-006
  0.27410000000000001          4.4070234253009136E-006
  0.27520000000000000          4.4453759073799720E-006
  0.27629999999999999          4.4843645810029214E-006
  0.27740000000000004          4.5239985411167786E-006
  0.27850000000000003          4.5642846089318063E-006
  0.27960000000000002          4.6052273319215148E-006
  0.28070000000000001          4.6468280743279552E-006
  0.28179999999999999          4.6890872908984800E-006
  0.28290000000000004          4.7320017984016314E-006
  0.28400000000000003          4.7755661398691995E-006
  0.28510000000000002          4.8197725845962194E-006
  0.28620000000000001          4.8646111281409714E-006
  0.28730000000000000          4.9100699470723325E-006
  0.28840000000000005          4.9561381274538815E-006
  0.28950000000000004          5.0028024816124427E-006
  0.29060000000000002          5.0500498218748395E-006
  0.29170000000000001          5.0978651415784943E-006
  0.29280000000000000          5.1462288865873182E-006
  0.29389999999999999          5.1951192290284677E-006
  0.29500000000000004          5.2445097935555932E-006
  0.29610000000000003          5.2943723858329381E-006
  0.29720000000000002          5.3446765377879945E-006
  0.29830000000000001          5.3953908718535497E-006
  0.29940000000000000          5.4464835557150424E-006
  0.30050000000000004          5.4979223023105597E-006
  0.30160000000000003          5.5496720960940842E-006
  0.30270000000000002          5.6016956477828415E-006
  0.30380000000000001          5.6539520301152526E-006
  0.30490000000000000          5.7063966778509308E-006
  0.30599999999999999          5.7589841162547873E-006
  0.30709999999999998          5.8116697800864353E-006
  0.30819999999999997          5.8644091041054879E-006
  0.30930000000000007          5.9171579778189091E-006
  0.31040000000000006          5.9698686527548559E-006
  0.31150000000000005          6.0224911067047306E-006
  0.31260000000000004          6.0749703152390762E-006
  0.31370000000000003          6.1272503444337334E-006
  0.31480000000000002          6.1792757151118951E-006
  0.31590000000000001          6.2309914028441023E-006
  0.31700000000000000          6.2823437474429512E-006
  0.31809999999999999          6.3332795434683881E-006
  0.31919999999999998          6.3837451307330083E-006
  0.32029999999999997          6.4336850300600047E-006
  0.32140000000000007          6.4830419432831638E-006
  0.32250000000000006          6.5317594817309773E-006
  0.32360000000000005          6.5797798924898811E-006
  0.32470000000000004          6.6270463321410159E-006
  0.32580000000000003          6.6735015025181693E-006
  0.32690000000000002          6.7190885602024796E-006
  0.32800000000000001          6.7637524807644912E-006
  0.32910000000000000          6.8074386945220969E-006
  0.33019999999999999          6.8500944507825948E-006
  0.33129999999999998          6.8916669988532802E-006
  0.33239999999999997          6.9321054070308548E-006
  0.33350000000000007          6.9713596531067219E-006
  0.33460000000000006          7.0093810791143349E-006
  0.33570000000000005          7.0461219365818525E-006
  0.33680000000000004          7.0815358412794834E-006
  0.33790000000000003          7.1155768637247880E-006
  0.33900000000000002          7.1482027124141349E-006
  0.34010000000000001          7.1793733695806441E-006
  0.34120000000000000          7.2090520006888958E-006
  0.34229999999999999          7.2372044996875716E-006
  0.34339999999999998          7.2637990342621113E-006
  0.34449999999999997          7.2888046815926536E-006
  0.34560000000000007          7.3121900641119884E-006
  0.34670000000000006          7.3339274422317097E-006
  0.34780000000000005          7.3539904406054679E-006
  0.34890000000000004          7.3723572313604196E-006
