 -0.20000000000000001          0.0000000000000000
 -0.19890000000000002          0.0000000000000000
 -0.19780000000000000          0.0000000000000000
 -0.19670000000000001          0.0000000000000000
 -0.19560000000000002          0.0000000000000000
 -0.19450000000000001          0.0000000000000000
 -0.19340000000000002          0.0000000000000000
 -0.19230000000000000          0.0000000000000000
 -0.19120000000000001          0.0000000000000000
 -0.19010000000000002          0.0000000000000000
 -0.18900000000000000          0.0000000000000000
 -0.18790000000000001          0.0000000000000000
 -0.18680000000000002          0.0000000000000000
 -0.18570000000000000          1.5105997445421528E-042
 -0.18460000000000001          4.0973967096857651E-041
 -0.18350000000000000          5.7642692589694215E-040
 -0.18240000000000001          3.9296122380598331E-039
 -0.18130000000000002          1.6918106172741666E-038
 -0.18020000000000000          5.5453146923605117E-038
 -0.17910000000000001          1.2952910202257847E-037
 -0.17800000000000002          5.7883340377569645E-038
 -0.17690000000000000         -9.2138867186168591E-037
 -0.17580000000000001         -3.0312906316894786E-036
 -0.17470000000000002         -3.9942988096141796E-037
 -0.17360000000000000          1.8330872998223170E-035
 -0.17250000000000001          2.6149052635174847E-035
 -0.17140000000000000         -1.0222484583834476E-034
 -0.17030000000000001         -3.7616990128889215E-034
 -0.16920000000000002          3.5786114629594678E-035
 -0.16810000000000000          2.6276457052144160E-033
 -0.16700000000000001          5.0072411639122052E-033
 -0.16589999999999999         -5.5862264983059074E-033
 -0.16480000000000000         -3.8968410617294497E-032
 -0.16370000000000001         -4.7127966532941184E-032
 -0.16260000000000002          1.0337345516399580E-031
 -0.16150000000000000          4.2374746979910988E-031
 -0.16040000000000001          3.3177013849274846E-031
 -0.15930000000000000         -1.2464323315893264E-030
 -0.15820000000000001         -3.7434138581032030E-030
 -0.15710000000000002         -1.7696068751629080E-030
 -0.15600000000000000          1.1873221185565325E-029
 -0.15490000000000001          2.8909652912710701E-029
 -0.15379999999999999          7.4790886375587843E-030
 -0.15270000000000000         -9.5716214527117918E-029
 -0.15160000000000001         -2.0576642748070519E-028
 -0.15050000000000002         -3.5836518754535671E-029
 -0.14940000000000001          6.6661115385007094E-028
 -0.14830000000000002          1.3803265096869705E-027
 -0.14720000000000000          3.2892716778946553E-028
 -0.14610000000000001         -3.9933799173899679E-027
 -0.14500000000000002         -8.6492458392821238E-027
 -0.14390000000000000         -3.6365559432455450E-027
 -0.14280000000000001          2.0167538731510224E-026
 -0.14169999999999999          4.9366437818104711E-026
 -0.14060000000000000          3.3040301946142913E-026
 -0.13950000000000001         -8.2311460158038899E-026
 -0.13840000000000002         -2.4995528633280563E-025
 -0.13730000000000001         -2.3826143414093894E-025
 -0.13619999999999999          2.4236282059479614E-025
 -0.13510000000000000          1.0959883186659346E-024
 -0.13400000000000001          1.3965764696370279E-024
 -0.13290000000000002         -2.6086163347413215E-025
 -0.13180000000000000         -4.0450400915495192E-024
 -0.13070000000000001         -6.7833541817057785E-024
 -0.12959999999999999         -2.4626557187271868E-024
 -0.12850000000000000          1.1922694626799286E-023
 -0.12740000000000001          2.7511486204259336E-023
 -0.12630000000000002          2.1854929106657673E-023
 -0.12520000000000001         -2.3985383665282713E-023
 -0.12410000000000000         -9.2546069065780639E-023
 -0.12300000000000001         -1.1176197603226996E-022
 -0.12190000000000001          4.6141870630179222E-024
 -0.12080000000000000          2.5013534797594208E-022
 -0.11970000000000000          4.3130789501583706E-022
 -0.11860000000000001          2.3150616419631994E-022
 -0.11750000000000001         -4.8930585753544866E-022
 -0.11640000000000000         -1.3255671300100095E-021
 -0.11530000000000000         -1.3124990495807355E-021
 -0.11420000000000001          3.7004899608420801E-022
 -0.11310000000000001          3.2131158406477877E-021
 -0.11200000000000000          4.7873978641333622E-021
 -0.11090000000000001          2.0226292635670874E-021
 -0.10980000000000001         -5.6019696268999248E-021
 -0.10870000000000000         -1.3247968786490871E-020
 -0.10760000000000000         -1.2007968502724196E-020
 -0.10650000000000001          3.9386847062598135E-021
 -0.10540000000000001          2.8142839632290614E-020
 -0.10430000000000000          3.9830704586034560E-020
 -0.10320000000000000          1.6658179997073416E-020
 -0.10210000000000001         -4.1492045147559032E-020
 -0.10100000000000001         -9.6635795114162270E-020
  -9.9900000000000003E-002    -8.7838813310191783E-020
  -9.8799999999999999E-002     1.8496178549340511E-020
  -9.7700000000000009E-002     1.7501745894338382E-019
  -9.6600000000000005E-002     2.5207636403790505E-019
  -9.5500000000000002E-002     1.2229681825898104E-019
  -9.4400000000000012E-002    -2.0659748282125089E-019
  -9.3300000000000008E-002    -5.2124098706144854E-019
  -9.2200000000000004E-002    -5.0260564183639452E-019
  -9.1100000000000000E-002     1.2032949518782011E-020
  -9.0000000000000011E-002     7.8447332922570314E-019
  -8.8900000000000007E-002     1.2035964915232193E-018
  -8.7800000000000003E-002     6.9574559402504949E-019
  -8.6699999999999999E-002    -7.0141658920834819E-019
  -8.5600000000000009E-002    -2.0878177213591021E-018
  -8.4500000000000006E-002    -2.1671956273009158E-018
  -8.3400000000000002E-002    -3.0133683067181609E-019
  -8.2299999999999998E-002     2.6061673502881598E-018
  -8.1200000000000008E-002     4.3153876072090383E-018
  -8.0100000000000005E-002     2.7992960321409688E-018
  -7.9000000000000001E-002    -1.7905021258376360E-018
  -7.7899999999999997E-002    -6.4320050691602460E-018
  -7.6800000000000007E-002    -6.9508714791769962E-018
  -7.5700000000000003E-002    -1.4392323306939032E-018
  -7.4600000000000000E-002     7.1915289250513364E-018
  -7.3500000000000010E-002     1.2202956344089552E-017
  -7.2399999999999992E-002     7.8834497910203056E-018
  -7.1300000000000002E-002    -4.8969361096838318E-018
  -7.0200000000000012E-002    -1.7308820492121108E-017
  -6.9099999999999995E-002    -1.8006170144450263E-017
  -6.8000000000000005E-002    -2.6238526785796967E-018
  -6.6900000000000015E-002     2.0038273322446009E-017
  -6.5799999999999997E-002     3.1815854518072004E-017
  -6.4700000000000008E-002     1.8630760990099253E-017
  -6.3599999999999990E-002    -1.5586987798810328E-017
  -6.2500000000000000E-002    -4.6881893893263785E-017
  -6.1400000000000010E-002    -4.6525666908106599E-017
  -6.0299999999999992E-002    -5.0378297834199890E-018
  -5.9200000000000003E-002     5.3779369209539258E-017
  -5.8100000000000013E-002     8.4020427351265458E-017
  -5.6999999999999995E-002     5.1326725753760328E-017
  -5.5900000000000005E-002    -3.4191692599614161E-017
  -5.4800000000000015E-002    -1.1456456777815354E-016
  -5.3699999999999998E-002    -1.2084486709579094E-016
  -5.2600000000000008E-002    -2.8941080943372562E-017
  -5.1499999999999990E-002     1.0869793155868655E-016
  -5.0400000000000000E-002     1.8867309498998798E-016
  -4.9300000000000010E-002     1.3168555209677610E-016
  -4.8199999999999993E-002    -4.4978915263248792E-017
  -4.7100000000000003E-002    -2.1983861349302589E-016
  -4.6000000000000013E-002    -2.4621397539088352E-016
  -4.4899999999999995E-002    -7.0827803170996024E-017
  -4.3800000000000006E-002     1.9977649255351998E-016
  -4.2699999999999988E-002     3.5374671386894827E-016
  -4.1599999999999998E-002     2.3107858188441284E-016
  -4.0500000000000008E-002    -1.2664386641093070E-016
  -3.9399999999999991E-002    -4.6350294030333516E-016
  -3.8300000000000001E-002    -4.7697902273591427E-016
  -3.7200000000000011E-002    -6.6519965654828064E-017
  -3.6099999999999993E-002     5.2881023932782579E-016
  -3.5000000000000003E-002     8.4691330385050067E-016
  -3.3900000000000013E-002     5.3640981893059137E-016
  -3.2799999999999996E-002    -3.2026209856566689E-016
  -3.1700000000000006E-002    -1.1660778594747628E-015
  -3.0599999999999988E-002    -1.3104266732469989E-015
  -2.9499999999999998E-002    -4.5876342038653293E-016
  -2.8400000000000009E-002     9.5909328859367614E-016
  -2.7299999999999991E-002     1.9711521826538741E-015
  -2.6200000000000001E-002     1.7157652904304798E-015
  -2.5100000000000011E-002     1.3780168584132379E-016
  -2.3999999999999994E-002    -1.8154338573888804E-015
  -2.2900000000000004E-002    -2.7452748631491292E-015
  -2.1800000000000014E-002    -1.7989817246961233E-015
  -2.0699999999999996E-002     5.9042315121330758E-016
  -1.9600000000000006E-002     2.8380700753779164E-015
  -1.8499999999999989E-002     3.2443962270987774E-015
  -1.7399999999999999E-002     1.2669245433836757E-015
  -1.6300000000000009E-002    -1.9168296304058509E-015
  -1.5199999999999991E-002    -4.0760860195465133E-015
  -1.4100000000000001E-002    -3.4642565458110766E-015
  -1.3000000000000012E-002    -1.6349253923868154E-016
  -1.1899999999999994E-002     3.7885589915351466E-015
  -1.0800000000000004E-002     5.6866149836980531E-015
  -9.6999999999999864E-003     4.0103693918502620E-015
  -8.5999999999999965E-003    -4.7804707834284274E-016
  -7.5000000000000067E-003    -5.1998780884702101E-015
  -6.3999999999999890E-003    -7.4483596577252197E-015
  -5.2999999999999992E-003    -6.0528449250365005E-015
  -4.2000000000000093E-003    -1.8401492199985768E-015
  -3.0999999999999917E-003     3.2722130008448454E-015
  -2.0000000000000018E-003     7.5935055295008221E-015
  -9.0000000000001190E-004     1.0183434126607039E-014
   2.0000000000000573E-004     1.0282481077261273E-014
   1.2999999999999956E-003     6.6310207209863397E-015
   2.4000000000000132E-003    -1.9484216299978313E-015
   3.5000000000000031E-003    -1.4468345954903733E-014
   4.5999999999999930E-003    -2.5871542253907802E-014
   5.7000000000000106E-003    -2.7903557353711923E-014
   6.8000000000000005E-003    -1.3910188512112828E-014
   7.8999999999999904E-003     1.4650967952397655E-014
   9.0000000000000080E-003     4.5000722576462107E-014
   1.0099999999999998E-002     5.7554940089028783E-014
   1.1199999999999988E-002     3.7824872899626383E-014
   1.2300000000000005E-002    -1.0957576500618318E-014
   1.3399999999999995E-002    -6.4185947681004440E-014
   1.4500000000000013E-002    -8.7057043431787440E-014
   1.5600000000000003E-002    -5.6716553654100055E-014
   1.6699999999999993E-002     1.8068908524894629E-014
   1.7800000000000010E-002     9.5021009832198244E-014
   1.8900000000000000E-002     1.2023653015065527E-013
   1.9999999999999990E-002     6.3706079799462356E-014
   2.1100000000000008E-002    -5.4050429361190630E-014
   2.2199999999999998E-002    -1.6524603137658272E-013
   2.3300000000000015E-002    -1.9181959623124079E-013
   2.4400000000000005E-002    -9.6636261005030727E-014
   2.5499999999999995E-002     8.4277426888341306E-014
   2.6600000000000013E-002     2.5394440781971450E-013
   2.7700000000000002E-002     3.0945889297265272E-013
   2.8799999999999992E-002     2.0796682247397474E-013
   2.9900000000000010E-002    -4.2952302248414683E-016
   3.1000000000000000E-002    -1.9963779164956091E-013
   3.2099999999999990E-002    -2.8254877821112800E-013
   3.3200000000000007E-002    -2.2648986093727619E-013
   3.4299999999999997E-002    -1.1467943836305367E-013
   3.5400000000000015E-002    -7.9944622970173906E-014
   3.6500000000000005E-002    -1.9916009217236380E-013
   3.7599999999999995E-002    -4.0716852090470768E-013
   3.8700000000000012E-002    -4.9782427529246331E-013
   3.9800000000000002E-002    -2.3215736516361829E-013
   4.0899999999999992E-002     4.9504719984785894E-013
   4.2000000000000010E-002     1.5264290482638887E-012
   4.3099999999999999E-002     2.4403688705237903E-012
   4.4200000000000017E-002     2.7030441687031503E-012
   4.5300000000000007E-002     1.9150302003889674E-012
   4.6399999999999997E-002     3.3689034634881709E-014
   4.7500000000000014E-002    -2.5445865033113524E-012
   4.8600000000000004E-002    -5.0919355537581978E-012
   4.9699999999999994E-002    -6.8016252352531836E-012
   5.0800000000000012E-002    -7.0694925607961423E-012
   5.1900000000000002E-002    -5.6774723811159333E-012
   5.2999999999999992E-002    -2.8064479993400449E-012
   5.4099999999999981E-002     1.1066569752596345E-012
   5.5200000000000027E-002     5.5783420417621077E-012
   5.6300000000000017E-002     1.0242211592736972E-011
   5.7400000000000007E-002     1.4891874192124455E-011
   5.8499999999999996E-002     1.9403952403185265E-011
   5.9599999999999986E-002     2.3615318034408972E-011
   6.0700000000000032E-002     2.7259231330512002E-011
   6.1800000000000022E-002     3.0033506931426146E-011
   6.2900000000000011E-002     3.1792263266439136E-011
   6.4000000000000001E-002     3.2762351859227934E-011
   6.5099999999999991E-002     3.3639195595736027E-011
   6.6199999999999981E-002     3.5452484697939823E-011
   6.7300000000000026E-002     3.9206630997323799E-011
   6.8400000000000016E-002     4.5441702484216862E-011
   6.9500000000000006E-002     5.3944883282586176E-011
   7.0599999999999996E-002     6.3803545780061199E-011
   7.1699999999999986E-002     7.3825549840034199E-011
   7.2800000000000031E-002     8.3138357309664457E-011
   7.3900000000000021E-002     9.1644143662694688E-011
   7.5000000000000011E-002     1.0005491574149872E-010
   7.6100000000000001E-002     1.0946132195099878E-010
   7.7199999999999991E-002     1.2068120114339109E-010
   7.8299999999999981E-002     1.3380410668339948E-010
   7.9400000000000026E-002     1.4826308236681740E-010
   8.0500000000000016E-002     1.6344145481461680E-010
   8.1600000000000006E-002     1.7944581931494952E-010
   8.2699999999999996E-002     1.9749693547232994E-010
   8.3799999999999986E-002     2.1956349238738682E-010
   8.4900000000000031E-002     2.4733043391123033E-010
   8.6000000000000021E-002     2.8107713379021959E-010
   8.7100000000000011E-002     3.1921720822225552E-010
   8.8200000000000001E-002     3.5894809347070122E-010
   8.9299999999999990E-002     3.9780861937899203E-010
   9.0399999999999980E-002     4.3532175086902214E-010
   9.1500000000000026E-002     4.7372394895717207E-010
   9.2600000000000016E-002     5.1722098826090246E-010
   9.3700000000000006E-002     5.7005050679848068E-010
   9.4799999999999995E-002     6.3438848618702082E-010
   9.5899999999999985E-002     7.0931838180854356E-010
   9.7000000000000031E-002     7.9153095189354872E-010
   9.8100000000000021E-002     8.7743107224369510E-010
   9.9200000000000010E-002     9.6547836392346653E-010
  0.10030000000000000          1.0574106035221575E-009
  0.10139999999999999          1.1576262171075768E-009
  0.10249999999999998          1.2710779095925773E-009
  0.10360000000000003          1.4009020610217249E-009
  0.10470000000000002          1.5471645076203799E-009
  0.10580000000000001          1.7074304192732370E-009
  0.10690000000000000          1.8787982281054383E-009
  0.10799999999999998          2.0601942374298687E-009
  0.10910000000000003          2.2536144062001995E-009
  0.11020000000000002          2.4636606088535018E-009
  0.11130000000000001          2.6957123200332944E-009
  0.11240000000000000          2.9538302914744463E-009
  0.11349999999999999          3.2395508497984338E-009
  0.11460000000000004          3.5521485752809667E-009
  0.11570000000000003          3.8900727084012487E-009
  0.11680000000000001          4.2526671073517264E-009
  0.11790000000000000          4.6412389487215933E-009
  0.11899999999999999          5.0590425182406307E-009
  0.12009999999999998          5.5103979157422600E-009
  0.12120000000000003          5.9996132506512367E-009
  0.12230000000000002          6.5303620289114406E-009
  0.12340000000000001          7.1057586481515500E-009
  0.12450000000000000          7.7289055155915776E-009
  0.12559999999999999          8.4033908720471118E-009
  0.12670000000000003          9.1333207663524263E-009
  0.12780000000000002          9.9228172345533494E-009
  0.12890000000000001          1.0775311309885183E-008
  0.13000000000000000          1.1693180645977463E-008
  0.13109999999999999          1.2678096794616067E-008
  0.13219999999999998          1.3732106118879983E-008
  0.13330000000000003          1.4858976271625579E-008
  0.13440000000000002          1.6065106578366795E-008
  0.13550000000000001          1.7359390369620087E-008
  0.13660000000000000          1.8751872943312264E-008
  0.13769999999999999          2.0251730958875669E-008
  0.13880000000000003          2.1865474764126702E-008
  0.13990000000000002          2.3596456344421313E-008
  0.14100000000000001          2.5446091456160502E-008
  0.14210000000000000          2.7416410475211705E-008
  0.14319999999999999          2.9512740695736284E-008
  0.14429999999999998          3.1745020834250681E-008
  0.14540000000000003          3.4126955483770871E-008
  0.14650000000000002          3.6673242220786051E-008
  0.14760000000000001          3.9396226725330052E-008
  0.14870000000000000          4.2303813785338207E-008
  0.14979999999999999          4.5399819015301546E-008
  0.15090000000000003          4.8686676024090048E-008
  0.15200000000000002          5.2169099262755481E-008
  0.15310000000000001          5.5856823166777758E-008
  0.15420000000000000          5.9764971638287534E-008
  0.15529999999999999          6.3911862469012704E-008
  0.15639999999999998          6.8315586077005719E-008
  0.15750000000000003          7.2991042543435469E-008
  0.15860000000000002          7.7948953958184575E-008
  0.15970000000000001          8.3197001288226602E-008
  0.16080000000000000          8.8742346804338013E-008
  0.16189999999999999          9.4594049926399748E-008
  0.16300000000000003          1.0076426804062066E-007
  0.16410000000000002          1.0726815702355452E-007
  0.16520000000000001          1.1412275569000485E-007
  0.16630000000000000          1.2134572102695529E-007
  0.16739999999999999          1.2895448264771403E-007
  0.16850000000000004          1.3696579514999030E-007
  0.16960000000000003          1.4539553205850098E-007
  0.17070000000000002          1.5425854371642345E-007
  0.17180000000000001          1.6356847254428430E-007
  0.17290000000000000          1.7333832147414796E-007
  0.17399999999999999          1.8358133502260898E-007
  0.17510000000000003          1.9431215037002403E-007
  0.17620000000000002          2.0554770685521362E-007
  0.17730000000000001          2.1730707544520556E-007
  0.17840000000000000          2.2961023660172941E-007
  0.17949999999999999          2.4247660235232615E-007
  0.18060000000000004          2.5592353836145776E-007
  0.18170000000000003          2.6996633550879778E-007
  0.18280000000000002          2.8461872148000111E-007
  0.18390000000000001          2.9989408290020947E-007
  0.18500000000000000          3.1580671588926634E-007
  0.18609999999999999          3.3237202501368301E-007
  0.18720000000000003          3.4960649486492912E-007
  0.18830000000000002          3.6752706478182517E-007
  0.18940000000000001          3.8615073094661057E-007
  0.19050000000000000          4.0549429058955866E-007
  0.19159999999999999          4.2557408619359194E-007
  0.19270000000000004          4.4640549390351225E-007
  0.19380000000000003          4.6800212771813676E-007
  0.19490000000000002          4.9037549842978478E-007
  0.19600000000000001          5.1353509888940607E-007
  0.19710000000000000          5.3748982509205234E-007
  0.19819999999999999          5.6224899935841677E-007
  0.19930000000000003          5.8782342193808290E-007
  0.20040000000000002          6.1422508679243037E-007
  0.20150000000000001          6.4146644263018970E-007
  0.20260000000000000          6.6955868760487647E-007
  0.20369999999999999          6.9851085982008954E-007
  0.20480000000000004          7.2832926889532246E-007
  0.20590000000000003          7.5901772333963891E-007
  0.20700000000000002          7.9057838320295559E-007
  0.20810000000000001          8.2301318116151378E-007
  0.20920000000000000          8.5632416357839247E-007
  0.21029999999999999          8.9051314944299520E-007
  0.21140000000000003          9.2558144615395577E-007
  0.21250000000000002          9.6152928108494962E-007
  0.21360000000000001          9.9835574474127498E-007
  0.21470000000000000          1.0360589612901094E-006
  0.21579999999999999          1.0746357474999968E-006
  0.21690000000000004          1.1140821243316168E-006
  0.21800000000000003          1.1543918390088947E-006
  0.21910000000000002          1.1955561376453261E-006
  0.22020000000000001          1.2375644473650027E-006
  0.22130000000000000          1.2804044899894507E-006
  0.22239999999999999          1.3240635325928451E-006
  0.22350000000000003          1.3685290696230368E-006
  0.22460000000000002          1.4137885955278762E-006
  0.22570000000000001          1.4598293773815385E-006
  0.22680000000000000          1.5066377727634972E-006
  0.22789999999999999          1.5541982065769844E-006
  0.22900000000000004          1.6024932847358286E-006
  0.23010000000000003          1.6515034531039419E-006
  0.23120000000000002          1.7012064290611306E-006
  0.23230000000000001          1.7515779973109602E-006
  0.23340000000000000          1.8025918961939169E-006
  0.23450000000000004          1.8542222051110002E-006
  0.23560000000000003          1.9064443677052623E-006
  0.23670000000000002          1.9592355329223210E-006
  0.23780000000000001          2.0125737592024961E-006
  0.23890000000000000          2.0664353996835416E-006
  0.23999999999999999          2.1207949885138078E-006
  0.24110000000000004          2.1756231944891624E-006
  0.24220000000000003          2.2308888674160698E-006
  0.24330000000000002          2.2865599476062926E-006
  0.24440000000000001          2.3426048301189439E-006
  0.24550000000000000          2.3989907731447602E-006
  0.24660000000000004          2.4556863991165301E-006
  0.24770000000000003          2.5126601030933671E-006
  0.24880000000000002          2.5698834633658407E-006
  0.24990000000000001          2.6273287403455470E-006
  0.25100000000000000          2.6849679670704063E-006
  0.25209999999999999          2.7427718123362865E-006
  0.25320000000000004          2.8007098080706783E-006
  0.25430000000000003          2.8587492124643177E-006
  0.25540000000000002          2.9168566015869146E-006
  0.25650000000000001          2.9749976420134772E-006
  0.25760000000000000          3.0331398193084169E-006
  0.25870000000000004          3.0912524380255491E-006
  0.25980000000000003          3.1493068490817677E-006
  0.26090000000000002          3.2072775866254233E-006
  0.26200000000000001          3.2651400942995679E-006
  0.26310000000000000          3.3228691336262273E-006
  0.26419999999999999          3.3804387840064010E-006
  0.26530000000000004          3.4378233522147639E-006
  0.26640000000000003          3.4949973723996663E-006
  0.26750000000000002          3.5519367429515114E-006
  0.26860000000000001          3.6086182717554038E-006
  0.26970000000000000          3.6650196761911502E-006
  0.27080000000000004          3.7211193557595834E-006
  0.27190000000000003          3.7768957099615363E-006
  0.27300000000000002          3.8323282751662191E-006
  0.27410000000000001          3.8874009078426752E-006
  0.27520000000000000          3.9420997381967027E-006
  0.27629999999999999          3.9964129427971784E-006
  0.27740000000000004          4.0503314266970847E-006
  0.27850000000000003          4.1038438212126493E-006
  0.27960000000000002          4.1569396671548020E-006
  0.28070000000000001          4.2096062315977179E-006
  0.28179999999999999          4.2618316911102738E-006
  0.28290000000000004          4.3136074054928031E-006
  0.28400000000000003          4.3649256440403406E-006
  0.28510000000000002          4.4157800402899738E-006
  0.28620000000000001          4.4661678657575976E-006
  0.28730000000000000          4.5160891204432119E-006
  0.28840000000000005          4.5655492613150273E-006
  0.28950000000000004          4.6145537453412544E-006
  0.29060000000000002          4.6631053010059986E-006
  0.29170000000000001          4.7112057472986635E-006
  0.29280000000000000          4.7588564484613016E-006
  0.29389999999999999          4.8060578592412639E-006
  0.29500000000000004          4.8528145271120593E-006
  0.29610000000000003          4.8991337280313019E-006
  0.29720000000000002          4.9450241021986585E-006
  0.29830000000000001          4.9904956540558487E-006
  0.29940000000000000          5.0355579332972411E-006
  0.30050000000000004          5.0802213991119061E-006
  0.30160000000000003          5.1245019676571246E-006
  0.30270000000000002          5.1684151003428269E-006
  0.30380000000000001          5.2119762585789431E-006
  0.30490000000000000          5.2551968110492453E-006
  0.30599999999999999          5.2980881264375057E-006
  0.30709999999999998          5.3406629376695491E-006
  0.30819999999999997          5.3829371609026566E-006
  0.30930000000000007          5.4249294407782145E-006
  0.31040000000000006          5.4666575124429073E-006
  0.31150000000000005          5.5081363825593144E-006
  0.31260000000000004          5.5493792388006113E-006
  0.31370000000000003          5.5904019973240793E-006
  0.31480000000000002          5.6312246670131572E-006
  0.31590000000000001          5.6718677114986349E-006
  0.31700000000000000          5.7123497754218988E-006
  0.31809999999999999          5.7526881391822826E-006
  0.31919999999999998          5.7928982641897164E-006
  0.32029999999999997          5.8329987950855866E-006
  0.32140000000000007          5.8730074670165777E-006
  0.32250000000000006          5.9129397413926199E-006
  0.32360000000000005          5.9528074416448362E-006
  0.32470000000000004          5.9926214817096479E-006
  0.32580000000000003          6.0323986872390378E-006
  0.32690000000000002          6.0721595218637958E-006
  0.32800000000000001          6.1119271776988171E-006
  0.32910000000000000          6.1517193898907863E-006
  0.33019999999999999          6.1915484366181772E-006
  0.33129999999999998          6.2314188653544988E-006
  0.33239999999999997          6.2713397710467689E-006
  0.33350000000000007          6.3113252508628648E-006
  0.33460000000000006          6.3513921304547694E-006
  0.33570000000000005          6.3915549617377110E-006
  0.33680000000000004          6.4318214754166547E-006
  0.33790000000000003          6.4721948547230568E-006
  0.33900000000000002          6.5126801018777769E-006
  0.34010000000000001          6.5532894950592890E-006
  0.34120000000000000          6.5940366766881198E-006
  0.34229999999999999          6.6349311964586377E-006
  0.34339999999999998          6.6759753281075973E-006
  0.34449999999999997          6.7171667978982441E-006
  0.34560000000000007          6.7585056058305781E-006
  0.34670000000000006          6.7999944803887047E-006
  0.34780000000000005          6.8416397880355362E-006
  0.34890000000000004          6.8834460762445815E-006
