 -0.20000000000000001          0.0000000000000000
 -0.19890000000000002          0.0000000000000000
 -0.19780000000000000          0.0000000000000000
 -0.19670000000000001          0.0000000000000000
 -0.19560000000000002          0.0000000000000000
 -0.19450000000000001          0.0000000000000000
 -0.19340000000000002          0.0000000000000000
 -0.19230000000000000          0.0000000000000000
 -0.19120000000000001         -1.2191097727732821E-020
 -0.19010000000000002         -1.7806156114576840E-019
 -0.18900000000000000         -8.1923378501065205E-019
 -0.18790000000000001         -7.8282201822897722E-019
 -0.18680000000000002          6.9886546080169676E-018
 -0.18570000000000000          3.1425292920048788E-017
 -0.18460000000000001          4.3848381050289072E-017
 -0.18350000000000000         -8.0520189428199624E-017
 -0.18240000000000001         -4.7404251832646092E-016
 -0.18130000000000002         -8.2190105619273610E-016
 -0.18020000000000000          1.5263642235632467E-016
 -0.17910000000000001          3.8779472254919032E-015
 -0.17800000000000002          8.4787328864122668E-015
 -0.17690000000000000          5.0573580188298252E-015
 -0.17580000000000001         -1.7972053695509028E-014
 -0.17470000000000002         -5.5433759524931077E-014
 -0.17360000000000000         -6.2701071819405237E-014
 -0.17250000000000001          3.0816718805698535E-014
 -0.17140000000000000          2.3720118209023518E-013
 -0.17030000000000001          3.9604018849111773E-013
 -0.16920000000000002          1.8341818135922399E-013
 -0.16810000000000000         -6.0426484779429944E-013
 -0.16700000000000001         -1.5891480839579420E-012
 -0.16589999999999999         -1.6583708148038151E-012
 -0.16480000000000000          3.2008746239503677E-013
 -0.16370000000000001          4.0169959372725108E-012
 -0.16260000000000002          6.6585096811225593E-012
 -0.16150000000000000          4.2594018589959168E-012
 -0.16040000000000001         -4.6648800273998265E-012
 -0.15930000000000000         -1.5573393269406239E-011
 -0.15820000000000001         -1.8868788476119645E-011
 -0.15710000000000002         -7.0252055041331836E-012
 -0.15600000000000000          1.6765113602931991E-011
 -0.15490000000000001          3.7282316123202761E-011
 -0.15379999999999999          3.7825985399467977E-011
 -0.15270000000000000          1.5173301851080824E-011
 -0.15160000000000001         -1.6715422448949953E-011
 -0.15050000000000002         -4.1750450319158475E-011
 -0.14940000000000001         -6.0894504716465988E-011
 -0.14830000000000002         -8.7627606559809524E-011
 -0.14720000000000000         -1.1171592123608910E-010
 -0.14610000000000001         -6.9053915363620999E-011
 -0.14500000000000002          1.2144005245856197E-010
 -0.14390000000000000          4.4193060322338965E-010
 -0.14280000000000001          6.7455091512520718E-010
 -0.14169999999999999          4.6901482697584477E-010
 -0.14060000000000000         -3.6333991371174880E-010
 -0.13950000000000001         -1.5079029136446761E-009
 -0.13840000000000002         -2.1145170059355393E-009
 -0.13730000000000001         -1.3064791470891685E-009
 -0.13619999999999999          9.9247388085704132E-010
 -0.13510000000000000          3.5874336834498781E-009
 -0.13400000000000001          4.5268366832824133E-009
 -0.13290000000000002          2.5152906424341215E-009
 -0.13180000000000000         -1.7774610672215489E-009
 -0.13070000000000001         -5.7590874291689438E-009
 -0.12959999999999999         -6.6437100265643520E-009
 -0.12850000000000000         -3.6806653280742358E-009
 -0.12740000000000001          1.0745223599792308E-009
 -0.12630000000000002          4.4215919814389906E-009
 -0.12520000000000001          4.8731463309050206E-009
 -0.12410000000000000          3.9936138840323754E-009
 -0.12300000000000001          4.5090242650768601E-009
 -0.12190000000000001          6.5819749650628565E-009
 -0.12080000000000000          6.1202563017601032E-009
 -0.11970000000000000         -2.0328734251507579E-009
 -0.11860000000000001         -1.7683108310967485E-008
 -0.11750000000000001         -3.1565953406705538E-008
 -0.11640000000000000         -2.9665258693969750E-008
 -0.11530000000000000         -4.5376804536025160E-009
 -0.11420000000000001          3.4832211781589476E-008
 -0.11310000000000001          6.4503133501157192E-008
 -0.11200000000000000          6.0528847711790267E-008
 -0.11090000000000001          1.7834803855959590E-008
 -0.10980000000000001         -4.2173216030524334E-008
 -0.10870000000000000         -8.3584325238922878E-008
 -0.10760000000000000         -8.0480980102479087E-008
 -0.10650000000000001         -3.5534615250272917E-008
 -0.10540000000000001          2.2424933021644136E-008
 -0.10430000000000000          6.0359589326704324E-008
 -0.10320000000000000          6.4605032434857780E-008
 -0.10210000000000001          4.6668333197857647E-008
 -0.10100000000000001          2.7399996938008447E-008
  -9.9900000000000003E-002     1.5124152596989419E-008
  -9.8799999999999999E-002    -1.0745494493863472E-009
  -9.7700000000000009E-002    -3.5829394562352303E-008
  -9.6600000000000005E-002    -8.4357417051722501E-008
  -9.5500000000000002E-002    -1.1554558199126935E-007
  -9.4400000000000012E-002    -9.2148567887341198E-008
  -9.3300000000000008E-002    -4.2638630404171717E-009
  -9.2200000000000004E-002     1.1229342788969972E-007
  -9.1100000000000000E-002     1.9152818708795453E-007
  -9.0000000000000011E-002     1.7887970216181855E-007
  -8.8900000000000007E-002     6.9511060019035357E-008
  -8.7800000000000003E-002    -8.4663788868582440E-008
  -8.6699999999999999E-002    -2.0432547387378489E-007
  -8.5600000000000009E-002    -2.2825625478617913E-007
  -8.4500000000000006E-002    -1.4603760689618211E-007
  -8.3400000000000002E-002    -5.5305376935947942E-010
  -8.2299999999999998E-002     1.3709899349128952E-007
  -8.1200000000000008E-002     2.0407108536344507E-007
  -8.0100000000000005E-002     1.7562312848431848E-007
  -7.9000000000000001E-002     7.6059230025203075E-008
  -7.7899999999999997E-002    -3.4032730411614044E-008
  -7.6800000000000007E-002    -9.0326672363922491E-008
  -7.5700000000000003E-002    -6.2708835457576892E-008
  -7.4600000000000000E-002     2.3188315267993181E-008
  -7.3500000000000010E-002     9.7796970521791125E-008
  -7.2399999999999992E-002     8.9562895766352353E-008
  -7.1300000000000002E-002    -2.9425677894418284E-008
  -7.0200000000000012E-002    -2.2643810382306031E-007
  -6.9099999999999995E-002    -4.3118518533434920E-007
  -6.8000000000000005E-002    -5.7801753428047218E-007
  -6.6900000000000015E-002    -6.3167942698768916E-007
  -6.5799999999999997E-002    -5.8003519143312640E-007
  -6.4700000000000008E-002    -4.1299875874770071E-007
  -6.3599999999999990E-002    -1.2300426988093563E-007
  -6.2500000000000000E-002     2.6155541377186476E-007
  -6.1400000000000010E-002     6.4202208704965162E-007
  -6.0299999999999992E-002     8.6382431163675319E-007
  -5.9200000000000003E-002     7.9426553156749182E-007
  -5.8100000000000013E-002     4.1672453221503500E-007
  -5.6999999999999995E-002    -1.3584144653599293E-007
  -5.5900000000000005E-002    -6.4710900460363693E-007
  -5.4800000000000015E-002    -9.4198759370562570E-007
  -5.3699999999999998E-002    -9.7670954346522977E-007
  -5.2600000000000008E-002    -8.2924782418527288E-007
  -5.1499999999999990E-002    -6.1083221680721649E-007
  -5.0400000000000000E-002    -3.8501747212646242E-007
  -4.9300000000000010E-002    -1.6468098351670101E-007
  -4.8199999999999993E-002     2.5864107300098119E-008
  -4.7100000000000003E-002     1.0521697646475867E-007
  -4.6000000000000013E-002    -2.7638117572143422E-008
  -4.4899999999999995E-002    -3.9350848624018969E-007
  -4.3800000000000006E-002    -8.6605848537118786E-007
  -4.2699999999999988E-002    -1.2184832485217624E-006
  -4.1599999999999998E-002    -1.2676140386249325E-006
  -4.0500000000000008E-002    -1.0081466825797844E-006
  -3.9399999999999991E-002    -6.2891325569588970E-007
  -3.8300000000000001E-002    -3.9570062426700063E-007
  -3.7200000000000011E-002    -4.8737894076073673E-007
  -3.6099999999999993E-002    -8.9863198127169273E-007
  -3.5000000000000003E-002    -1.4600592521672759E-006
  -3.3900000000000013E-002    -1.9414842427068936E-006
  -3.2799999999999996E-002    -2.1667804048776627E-006
  -3.1700000000000006E-002    -2.0909642444166605E-006
  -3.0599999999999988E-002    -1.8243752037957366E-006
  -2.9499999999999998E-002    -1.5978952205835979E-006
  -2.8400000000000009E-002    -1.6612033277846322E-006
  -2.7299999999999991E-002    -2.1352102521629563E-006
  -2.6200000000000001E-002    -2.8991837552894733E-006
  -2.5100000000000011E-002    -3.6174583328831599E-006
  -2.3999999999999994E-002    -3.9392025428242211E-006
  -2.2900000000000004E-002    -3.7591003092525877E-006
  -2.1800000000000014E-002    -3.3380565582767248E-006
  -2.0699999999999996E-002    -3.1534332265429183E-006
  -1.9600000000000006E-002    -3.5602051866584654E-006
  -1.8499999999999989E-002    -4.5194883568909061E-006
  -1.7399999999999999E-002    -5.6231738199130463E-006
  -1.6300000000000009E-002    -6.4065588958326591E-006
  -1.5199999999999991E-002    -6.6968696046381466E-006
  -1.4100000000000001E-002    -6.7129813032796610E-006
  -1.3000000000000012E-002    -6.8487406679184984E-006
  -1.1899999999999994E-002    -7.3480350692980165E-006
  -1.0800000000000004E-002    -8.1594671428314170E-006
  -9.6999999999999864E-003    -9.0695548351500639E-006
  -8.5999999999999965E-003    -9.9475919341779159E-006
  -7.5000000000000067E-003    -1.0847313205885214E-005
  -6.3999999999999890E-003    -1.1876606549775314E-005
  -5.2999999999999992E-003    -1.2995679753656456E-005
  -4.2000000000000093E-003    -1.3981064512334841E-005
  -3.0999999999999917E-003    -1.4616074622607598E-005
  -2.0000000000000018E-003    -1.4927791198714487E-005
  -9.0000000000001190E-004    -1.5236209947032476E-005
   2.0000000000000573E-004    -1.5959130905683287E-005
   1.2999999999999956E-003    -1.7352856957584368E-005
   2.4000000000000132E-003    -1.9405149942028853E-005
   3.5000000000000031E-003    -2.1921021470914289E-005
   4.5999999999999930E-003    -2.4639712137284613E-005
   5.7000000000000106E-003    -2.7238163966101631E-005
   6.8000000000000005E-003    -2.9291191822265132E-005
   7.8999999999999904E-003    -3.0377235816556350E-005
   9.0000000000000080E-003    -3.0415636501854051E-005
   1.0099999999999998E-002    -2.9985212677271409E-005
   1.1199999999999988E-002    -3.0248722396205384E-005
   1.2300000000000005E-002    -3.2346069929186578E-005
   1.3399999999999995E-002    -3.6611327232091175E-005
   1.4500000000000013E-002    -4.2222050979031519E-005
   1.5600000000000003E-002    -4.7635785449525170E-005
   1.6699999999999993E-002    -5.1524119044183938E-005
   1.7800000000000010E-002    -5.3522060625250168E-005
   1.8900000000000000E-002    -5.4268046369538142E-005
   1.9999999999999990E-002    -5.4816402553109849E-005
   2.1100000000000008E-002    -5.6014469009818832E-005
   2.2199999999999998E-002    -5.8305944548914254E-005
   2.3300000000000015E-002    -6.1918944993515987E-005
   2.4400000000000005E-002    -6.7012013460037272E-005
   2.5499999999999995E-002    -7.3443930887144571E-005
   2.6600000000000013E-002    -8.0421072198070867E-005
   2.7700000000000002E-002    -8.6580730567213267E-005
   2.8799999999999992E-002    -9.0693203674156026E-005
   2.9900000000000010E-002    -9.2575741291503618E-005
   3.1000000000000000E-002    -9.3426730018100179E-005
   3.2099999999999990E-002    -9.5172894361884969E-005
   3.3200000000000007E-002    -9.9305034382258608E-005
   3.4299999999999997E-002    -1.0604647832223088E-004
   3.5400000000000015E-002    -1.1448470468166131E-004
   3.6500000000000005E-002    -1.2333496124482534E-004
   3.7599999999999995E-002    -1.3160239905117798E-004
   3.8700000000000012E-002    -1.3866541848982420E-004
   3.9800000000000002E-002    -1.4405221736522994E-004
   4.0899999999999992E-002    -1.4752884453626871E-004
   4.2000000000000010E-002    -1.4962698332963951E-004
   4.3099999999999999E-002    -1.5200430061666659E-004
   4.4200000000000017E-002    -1.5689345309509269E-004
   4.5300000000000007E-002    -1.6570962907279163E-004
   4.6399999999999997E-002    -1.7777402536010568E-004
   4.7500000000000014E-002    -1.9043384236281871E-004
   4.8600000000000004E-002    -2.0065666467415229E-004
   4.9699999999999994E-002    -2.0706196664830662E-004
   5.0800000000000012E-002    -2.1064755856057559E-004
   5.1900000000000002E-002    -2.1381222177294887E-004
   5.2999999999999992E-002    -2.1851385827174216E-004
   5.4099999999999981E-002    -2.2528061526825370E-004
   5.5200000000000027E-002    -2.3363734362644696E-004
   5.6300000000000017E-002    -2.4313102767334785E-004
   5.7400000000000007E-002    -2.5383749743921154E-004
   5.8499999999999996E-002    -2.6559783145782887E-004
   5.9599999999999986E-002    -2.7722684899342541E-004
   6.0700000000000032E-002    -2.8671079780903858E-004
   6.1800000000000022E-002    -2.9268389334899484E-004
   6.2900000000000011E-002    -2.9589657788162127E-004
   6.4000000000000001E-002    -2.9907698626627141E-004
   6.5099999999999991E-002    -3.0496076215055627E-004
   6.6199999999999981E-002    -3.1432829564434267E-004
   6.7300000000000026E-002    -3.2562657725062867E-004
   6.8400000000000016E-002    -3.3654598519202881E-004
   6.9500000000000006E-002    -3.4599378705021477E-004
   7.0599999999999996E-002    -3.5455904435363102E-004
   7.1699999999999986E-002    -3.6308047128837958E-004
   7.2800000000000031E-002    -3.7117462488819267E-004
   7.3900000000000021E-002    -3.7737400270995019E-004
   7.5000000000000011E-002    -3.8081457023505274E-004
   7.6100000000000001E-002    -3.8287122151810720E-004
   7.7199999999999991E-002    -3.8657581899311373E-004
   7.8299999999999981E-002    -3.9422602276313991E-004
   7.9400000000000026E-002    -4.0511967381458644E-004
   8.0500000000000016E-002    -4.1593058267604425E-004
   8.1600000000000006E-002    -4.2339402716602931E-004
   8.2699999999999996E-002    -4.2697659227993075E-004
   8.3799999999999986E-002    -4.2891703196797217E-004
   8.4900000000000031E-002    -4.3181146611455504E-004
   8.6000000000000021E-002    -4.3607849511313838E-004
   8.7100000000000011E-002    -4.3987759272563802E-004
   8.8200000000000001E-002    -4.4149797759014653E-004
   8.9299999999999990E-002    -4.4156622607256709E-004
   9.0399999999999980E-002    -4.4277971028346054E-004
   9.1500000000000026E-002    -4.4708291534330198E-004
   9.2600000000000016E-002    -4.5334827154870584E-004
   9.3700000000000006E-002    -4.5779164065602647E-004
   9.4799999999999995E-002    -4.5762254740107247E-004
   9.5899999999999985E-002    -4.5342242810870889E-004
   9.7000000000000031E-002    -4.4880906352769053E-004
   9.8100000000000021E-002    -4.4687403715211417E-004
   9.9200000000000010E-002    -4.4723210157822358E-004
  0.10030000000000000         -4.4657927355724837E-004
  0.10139999999999999         -4.4225525925863015E-004
  0.10249999999999998         -4.3511370313349608E-004
  0.10360000000000003         -4.2874613427552904E-004
  0.10470000000000002         -4.2582280002530362E-004
  0.10580000000000001         -4.2516179382797109E-004
  0.10690000000000000         -4.2257481254633311E-004
  0.10799999999999998         -4.1502001113254372E-004
  0.10910000000000003         -4.0356710087504076E-004
  0.11020000000000002         -3.9209972601380162E-004
  0.11130000000000001         -3.8354939897541082E-004
  0.11240000000000000         -3.7712036282751954E-004
  0.11349999999999999         -3.6882501444775889E-004
  0.11460000000000004         -3.5611432394940678E-004
  0.11570000000000003         -3.4097308525812196E-004
  0.11680000000000001         -3.2770086545493916E-004
  0.11790000000000000         -3.1903208582658989E-004
  0.11899999999999999         -3.1266451696862387E-004
  0.12009999999999998         -3.0320000951175602E-004
  0.12120000000000003         -2.8695020591837427E-004
  0.12230000000000002         -2.6603549486023528E-004
  0.12340000000000001         -2.4575102725063778E-004
  0.12450000000000000         -2.2989543504079425E-004
  0.12559999999999999         -2.1722364181184955E-004
  0.12670000000000003         -2.0316295558584781E-004
  0.12780000000000002         -1.8511824600862337E-004
  0.12890000000000001         -1.6469362890346096E-004
  0.13000000000000000         -1.4647892385254027E-004
  0.13109999999999999         -1.3221931294536837E-004
  0.13219999999999998         -1.1915507639058782E-004
  0.13330000000000003         -1.0189343447563283E-004
  0.13440000000000002         -7.7945951488792215E-005
  0.13550000000000001         -5.0757735152721964E-005
  0.13660000000000000         -2.6260486265523428E-005
  0.13769999999999999         -7.6768656072073151E-006
  0.13880000000000003          7.3332598731206245E-006
  0.13990000000000002          2.4244065571108632E-005
  0.14100000000000001          4.6053959522393311E-005
  0.14210000000000000          7.0775451604272355E-005
  0.14319999999999999          9.3721049779553248E-005
  0.14429999999999998          1.1230647942283081E-004
  0.14540000000000003          1.2948132643940486E-004
  0.14650000000000002          1.5031645307315923E-004
  0.14760000000000001          1.7665833001954810E-004
  0.14870000000000000          2.0485204004215261E-004
  0.14979999999999999          2.2919195180291232E-004
  0.15090000000000003          2.4730176664886598E-004
  0.15200000000000002          2.6261209859510215E-004
  0.15310000000000001          2.8079422190782741E-004
  0.15420000000000000          3.0451023485508798E-004
  0.15529999999999999          3.3011604682539505E-004
  0.15639999999999998          3.5298388684165319E-004
  0.15750000000000003          3.7128539406691008E-004
  0.15860000000000002          3.8784535718146723E-004
  0.15970000000000001          4.0692629409018791E-004
  0.16080000000000000          4.3039995944123543E-004
  0.16189999999999999          4.5518475235435809E-004
  0.16300000000000003          4.7626945888619307E-004
  0.16410000000000002          4.9234478501598399E-004
  0.16520000000000001          5.0692266086111598E-004
  0.16630000000000000          5.2378105465317800E-004
  0.16739999999999999          5.4394523613149933E-004
  0.16850000000000004          5.6438252795482568E-004
  0.16960000000000003          5.8081588940689605E-004
  0.17070000000000002          5.9338461142027701E-004
  0.17180000000000001          6.0578150441864249E-004
  0.17290000000000000          6.2117143534117999E-004
  0.17399999999999999          6.3964020228007520E-004
  0.17510000000000003          6.5774732502171427E-004
  0.17620000000000002          6.7186407977708998E-004
  0.17730000000000001          6.8186660064377934E-004
  0.17840000000000000          6.9130852352821195E-004
  0.17949999999999999          7.0196931483217410E-004
  0.18060000000000004          7.1309308987104272E-004
  0.18170000000000003          7.2274479316540910E-004
  0.18280000000000002          7.2936277138062507E-004
  0.18390000000000001          7.3480076389380246E-004
  0.18500000000000000          7.4240082176395055E-004
  0.18609999999999999          7.5264926999800213E-004
  0.18720000000000003          7.6226750388734446E-004
  0.18830000000000002          7.6832401100539107E-004
  0.18940000000000001          7.6994980918236404E-004
  0.19050000000000000          7.6944165630258774E-004
  0.19159999999999999          7.7018671436227914E-004
  0.19270000000000004          7.7190611045800238E-004
  0.19380000000000003          7.7224336564533631E-004
  0.19490000000000002          7.6911563519381282E-004
  0.19600000000000001          7.6451589120544756E-004
  0.19710000000000000          7.6188956154503104E-004
  0.19819999999999999          7.6200393959872568E-004
  0.19930000000000003          7.6264864765100422E-004
  0.20040000000000002          7.5960007961832368E-004
  0.20150000000000001          7.5113697675981118E-004
  0.20260000000000000          7.3916278779499744E-004
  0.20369999999999999          7.2839821223162594E-004
  0.20480000000000004          7.2045210981734609E-004
  0.20590000000000003          7.1244180435307977E-004
  0.20700000000000002          7.0103682810434035E-004
  0.20810000000000001          6.8581034429364863E-004
  0.20920000000000000          6.7029503406950373E-004
  0.21029999999999999          6.5843958873295380E-004
  0.21140000000000003          6.4991659019136144E-004
  0.21250000000000002          6.4009404741221566E-004
  0.21360000000000001          6.2379403971129762E-004
  0.21470000000000000          6.0185301117593318E-004
  0.21579999999999999          5.7984329760069032E-004
  0.21690000000000004          5.6178739760065564E-004
  0.21800000000000003          5.4739048937330309E-004
  0.21910000000000002          5.3139473311597995E-004
  0.22020000000000001          5.0938792992378406E-004
  0.22130000000000000          4.8381296801376151E-004
  0.22239999999999999          4.5996834523971317E-004
  0.22350000000000003          4.4199166586618216E-004
  0.22460000000000002          4.2774787289086297E-004
  0.22570000000000001          4.1027058614414018E-004
  0.22680000000000000          3.8570212200280361E-004
  0.22789999999999999          3.5736532299775913E-004
  0.22900000000000004          3.3131189411502766E-004
  0.23010000000000003          3.1074846629050226E-004
  0.23120000000000002          2.9249151702967355E-004
  0.23230000000000001          2.6979501126331409E-004
  0.23340000000000000          2.4090912484095816E-004
  0.23450000000000004          2.1076273696960554E-004
  0.23560000000000003          1.8714099132919552E-004
  0.23670000000000002          1.7172374646177589E-004
  0.23780000000000001          1.5885142784098473E-004
  0.23890000000000000          1.3925621169617945E-004
  0.23999999999999999          1.1085972073486840E-004
  0.24110000000000004          7.9506644397033720E-005
  0.24220000000000003          5.4131847718956474E-005
  0.24330000000000002          3.7161589716556361E-005
  0.24440000000000001          2.2318066839940936E-005
  0.24550000000000000          1.4040344922240339E-006
  0.24660000000000004         -2.6286481443093646E-005
  0.24770000000000003         -5.3226154705041754E-005
  0.24880000000000002         -7.0989299274511010E-005
  0.24990000000000001         -7.9349876614280530E-005
  0.25100000000000000         -8.7279018771359822E-005
  0.25209999999999999         -1.0398298036306048E-004
  0.25320000000000004         -1.2970867101101948E-004
  0.25430000000000003         -1.5674509631934293E-004
  0.25540000000000002         -1.7536706582176032E-004
  0.25650000000000001         -1.8424008158033931E-004
  0.25760000000000000         -1.9128291751256224E-004
  0.25870000000000004         -2.0405062241477811E-004
  0.25980000000000003         -2.2294817608779207E-004
  0.26090000000000002         -2.4050651700233914E-004
  0.26200000000000001         -2.4971729726528465E-004
  0.26310000000000000         -2.5159455253740245E-004
  0.26419999999999999         -2.5514478329566510E-004
  0.26530000000000004         -2.6698628789742626E-004
  0.26640000000000003         -2.8513316647147037E-004
  0.26750000000000002         -2.9902474489060471E-004
  0.26860000000000001         -3.0260413768698604E-004
  0.26970000000000000         -3.0037114629519125E-004
  0.27080000000000004         -3.0180613975968950E-004
  0.27190000000000003         -3.1181183294390130E-004
  0.27300000000000002         -3.2480599475090286E-004
  0.27410000000000001         -3.3051933860403439E-004
  0.27520000000000000         -3.2533315243196540E-004
  0.27629999999999999         -3.1604498508383219E-004
  0.27740000000000004         -3.1420984305438176E-004
  0.27850000000000003         -3.2321547041643976E-004
  0.27960000000000002         -3.3532618544992771E-004
  0.28070000000000001         -3.3856331720013964E-004
  0.28179999999999999         -3.2947404542934877E-004
  0.28290000000000004         -3.1733664218333205E-004
  0.28400000000000003         -3.1372517696578583E-004
  0.28510000000000002         -3.2079711672846858E-004
  0.28620000000000001         -3.2907529384826193E-004
  0.28730000000000000         -3.2705435296517783E-004
  0.28840000000000005         -3.1306961318475121E-004
  0.28950000000000004         -2.9695182456631935E-004
  0.29060000000000002         -2.9112410265949313E-004
  0.29170000000000001         -2.9653587262143280E-004
  0.29280000000000000         -3.0288443667811452E-004
  0.29389999999999999         -2.9888414428566807E-004
  0.29500000000000004         -2.8396083507684235E-004
  0.29610000000000003         -2.6877436903302614E-004
  0.29720000000000002         -2.6464750408192216E-004
  0.29830000000000001         -2.7017231332135600E-004
  0.29940000000000000         -2.7389501337890949E-004
  0.30050000000000004         -2.6622627046888318E-004
  0.30160000000000003         -2.4811556795609684E-004
  0.30270000000000002         -2.3133587092158772E-004
  0.30380000000000001         -2.2567271662407934E-004
  0.30490000000000000         -2.2983214876146586E-004
  0.30599999999999999         -2.3229254293253456E-004
  0.30709999999999998         -2.2457227169068455E-004
  0.30819999999999997         -2.0934423082506176E-004
  0.30930000000000007         -1.9753506057893682E-004
  0.31040000000000006         -1.9615249766500524E-004
  0.31150000000000005         -2.0101090194655602E-004
  0.31260000000000004         -2.0027576829305120E-004
  0.31370000000000003         -1.8835808441506968E-004
  0.31480000000000002         -1.7077091615645421E-004
  0.31590000000000001         -1.6026293451430409E-004
  0.31700000000000000         -1.6119699284898294E-004
  0.31809999999999999         -1.6633841732981025E-004
  0.31919999999999998         -1.6393679834435265E-004
  0.32029999999999997         -1.5059224097056857E-004
  0.32140000000000007         -1.3586514978668196E-004
  0.32250000000000006         -1.3156827480996448E-004
  0.32360000000000005         -1.3959416537544242E-004
  0.32470000000000004         -1.4732619456479972E-004
  0.32580000000000003         -1.4172994997351280E-004
  0.32690000000000002         -1.2272495951036783E-004
  0.32800000000000001         -1.0410968388895292E-004
  0.32910000000000000         -1.0016817395806987E-004
  0.33019999999999999         -1.1068430467274779E-004
  0.33129999999999998         -1.2094182602594551E-004
  0.33239999999999997         -1.1656808783299331E-004
  0.33350000000000007         -9.8857046395996968E-005
  0.33460000000000006         -8.3122635260214883E-005
  0.33570000000000005         -8.3763734437515786E-005
  0.33680000000000004         -9.8120101029044670E-005
  0.33790000000000003         -1.0892649152082554E-004
  0.33900000000000002         -1.0194135393248136E-004
  0.34010000000000001         -8.0645964771967148E-005
  0.34120000000000000         -6.2282073486122648E-005
  0.34229999999999999         -6.1319071392055313E-005
  0.34339999999999998         -7.4898714956354956E-005
  0.34449999999999997         -8.6562307842535252E-005
  0.34560000000000007         -8.2347716670476900E-005
  0.34670000000000006         -6.6382730437901234E-005
  0.34780000000000005         -5.4370109864969142E-005
  0.34890000000000004         -5.7215704146068100E-005
