 -0.20000000000000001          0.0000000000000000
 -0.19890000000000002          0.0000000000000000
 -0.19780000000000000          0.0000000000000000
 -0.19670000000000001          0.0000000000000000
 -0.19560000000000002          0.0000000000000000
 -0.19450000000000001          0.0000000000000000
 -0.19340000000000002          0.0000000000000000
 -0.19230000000000000          0.0000000000000000
 -0.19120000000000001         -6.7051039130739423E-024
 -0.19010000000000002         -1.1134406907912525E-022
 -0.18900000000000000         -6.5985652501518270E-022
 -0.18790000000000001         -1.5409872970108799E-021
 -0.18680000000000002          1.8722207267311239E-021
 -0.18570000000000000          2.2999891025769511E-020
 -0.18460000000000001          6.4400411546604147E-020
 -0.18350000000000000          4.4230920935069677E-020
 -0.18240000000000001         -2.6077856257591848E-019
 -0.18130000000000002         -9.7354753360727856E-019
 -0.18020000000000000         -1.3416431129884237E-018
 -0.17910000000000001          8.7517787099422536E-019
 -0.17800000000000002          7.6713515829749928E-018
 -0.17690000000000000          1.5116201261897298E-017
 -0.17580000000000001          8.0131186238418687E-018
 -0.17470000000000002         -3.2360079804129555E-017
 -0.17360000000000000         -9.7334236799992563E-017
 -0.17250000000000001         -1.1487062460478415E-016
 -0.17140000000000000          3.2539220655045332E-017
 -0.17030000000000001          3.8082196320925122E-016
 -0.16920000000000002          6.9952406531403806E-016
 -0.16810000000000000          4.6805838937268090E-016
 -0.16700000000000001         -7.3831870369399736E-016
 -0.16589999999999999         -2.5244542208327412E-015
 -0.16480000000000000         -3.2605099701286922E-015
 -0.16370000000000001         -8.7511404821901476E-016
 -0.16260000000000002          4.9964139982760774E-015
 -0.16150000000000000          1.1001265613003649E-014
 -0.16040000000000001          1.0778252849419209E-014
 -0.15930000000000000         -3.5279737522448153E-016
 -0.15820000000000001         -1.9295996685250635E-014
 -0.15710000000000002         -3.3537693564125067E-014
 -0.15600000000000000         -2.8180743803498612E-014
 -0.15490000000000001          1.5453424732000734E-015
 -0.15379999999999999          4.2854906906118940E-014
 -0.15270000000000000          7.2004515793808588E-014
 -0.15160000000000001          7.1156344434282480E-014
 -0.15050000000000002          3.9000110785166578E-014
 -0.14940000000000001         -1.7454614820529546E-014
 -0.14830000000000002         -9.9141777686731410E-014
 -0.14720000000000000         -2.0878071949235868E-013
 -0.14610000000000001         -3.0820411869344137E-013
 -0.14500000000000002         -2.7939174411521744E-013
 -0.14390000000000000          3.0462116932694792E-014
 -0.14280000000000001          6.4452696652020607E-013
 -0.14169999999999999          1.2734881508701092E-012
 -0.14060000000000000          1.3316093019910193E-012
 -0.13950000000000001          3.0242570058450074E-013
 -0.13840000000000002         -1.6899052686720927E-012
 -0.13730000000000001         -3.5714530291498983E-012
 -0.13619999999999999         -3.7441560268854191E-012
 -0.13510000000000000         -1.2252068934048272E-012
 -0.13400000000000001          3.2376417085513331E-012
 -0.13290000000000002          7.1108119392702949E-012
 -0.13180000000000000          7.5166184040895759E-012
 -0.13070000000000001          3.3715168244029278E-012
 -0.12959999999999999         -3.4500217353109110E-012
 -0.12850000000000000         -9.1284280481762063E-012
 -0.12740000000000001         -1.0561806637607315E-011
 -0.12630000000000002         -7.5389434278626174E-012
 -0.12520000000000001         -2.4268375937305271E-012
 -0.12410000000000000          2.4498805761797999E-012
 -0.12300000000000001          7.1263316428443854E-012
 -0.12190000000000001          1.3226380927987686E-011
 -0.12080000000000000          2.0212607629303290E-011
 -0.11970000000000000          2.2460668741569924E-011
 -0.11860000000000001          1.1616879333489728E-011
 -0.11750000000000001         -1.5470104364205812E-011
 -0.11640000000000000         -4.9147273056836474E-011
 -0.11530000000000000         -6.7958888516636003E-011
 -0.11420000000000001         -5.1296897285443892E-011
 -0.11310000000000001          3.3375431325040906E-012
 -0.11200000000000000          7.2105134363304943E-011
 -0.11090000000000001          1.1520513709673663E-010
 -0.10980000000000001          1.0181900461646406E-010
 -0.10870000000000000          3.2652353043589736E-011
 -0.10760000000000000         -5.7583562917984356E-011
 -0.10650000000000001         -1.2139213245721002E-010
 -0.10540000000000001         -1.2860244813503785E-010
 -0.10430000000000000         -8.3070966772037140E-011
 -0.10320000000000000         -1.4340424681053453E-011
 -0.10210000000000001          4.6859925661988375E-011
 -0.10100000000000001          8.7597512576887480E-011
  -9.9900000000000003E-002     1.1098579694166228E-010
  -9.8799999999999999E-002     1.1871308103206789E-010
  -9.7700000000000009E-002     9.8415914306960096E-011
  -9.6600000000000005E-002     3.2313169501286764E-011
  -9.5500000000000002E-002    -7.7633482975512037E-011
  -9.4400000000000012E-002    -1.9186525979101934E-010
  -9.3300000000000008E-002    -2.4489210659345353E-010
  -9.2200000000000004E-002    -1.8547584301756378E-010
  -9.1100000000000000E-002    -1.8373953400401830E-011
  -9.0000000000000011E-002     1.8535038781582602E-010
  -8.8900000000000007E-002     3.2196531551960404E-010
  -8.7800000000000003E-002     3.1363131536289587E-010
  -8.6699999999999999E-002     1.5468722136529643E-010
  -8.5600000000000009E-002    -8.3232726266854853E-011
  -8.4500000000000006E-002    -2.8909435956243590E-010
  -8.3400000000000002E-002    -3.6971922745541813E-010
  -8.2299999999999998E-002    -2.9461896811068869E-010
  -8.1200000000000008E-002    -1.0697542851534296E-010
  -8.0100000000000005E-002     1.0185639137688421E-010
  -7.9000000000000001E-002     2.4028168343899291E-010
  -7.7899999999999997E-002     2.6339624925586484E-010
  -7.6800000000000007E-002     1.9499858672212624E-010
  -7.5700000000000003E-002     1.1082906120616210E-010
  -7.4600000000000000E-002     8.9092774824335316E-011
  -7.3500000000000010E-002     1.5563468569465712E-010
  -7.2399999999999992E-002     2.5868260311592059E-010
  -7.1300000000000002E-002     2.9175808990969215E-010
  -7.0200000000000012E-002     1.5103301942417908E-010
  -6.9099999999999995E-002    -2.1065978128572346E-010
  -6.8000000000000005E-002    -7.6572126417308374E-010
  -6.6900000000000015E-002    -1.4310544971249389E-009
  -6.5799999999999997E-002    -2.0974975090123138E-009
  -6.4700000000000008E-002    -2.6436661748616125E-009
  -6.3599999999999990E-002    -2.9384679134379931E-009
  -6.2500000000000000E-002    -2.8622648695631105E-009
  -6.1400000000000010E-002    -2.3652972913623683E-009
  -6.0299999999999992E-002    -1.5370816841551820E-009
  -5.9200000000000003E-002    -6.2513222376348025E-010
  -5.8100000000000013E-002     4.0912311733243100E-011
  -5.6999999999999995E-002     1.9539800333335669E-010
  -5.5900000000000005E-002    -2.3522472858418357E-010
  -5.4800000000000015E-002    -1.1092278207060558E-009
  -5.3699999999999998E-002    -2.1645112369129708E-009
  -5.2600000000000008E-002    -3.1577878090159438E-009
  -5.1499999999999990E-002    -3.9498320170134674E-009
  -5.0400000000000000E-002    -4.4975494439818883E-009
  -4.9300000000000010E-002    -4.7998836016910550E-009
  -4.8199999999999993E-002    -4.8762331950055405E-009
  -4.7100000000000003E-002    -4.8041388645002172E-009
  -4.6000000000000013E-002    -4.7614707732177487E-009
  -4.4899999999999995E-002    -4.9931014878263074E-009
  -4.3800000000000006E-002    -5.6858633357128768E-009
  -4.2699999999999988E-002    -6.8323613433552472E-009
  -4.1599999999999998E-002    -8.1997155731973490E-009
  -4.0500000000000008E-002    -9.4513845638736708E-009
  -3.9399999999999991E-002    -1.0351767443239077E-008
  -3.8300000000000001E-002    -1.0915305104219291E-008
  -3.7200000000000011E-002    -1.1400999255783051E-008
  -3.6099999999999993E-002    -1.2163305029842871E-008
  -3.5000000000000003E-002    -1.3460584646905542E-008
  -3.3900000000000013E-002    -1.5331433900199249E-008
  -3.2799999999999996E-002    -1.7590979339841747E-008
  -3.1700000000000006E-002    -1.9932739903082140E-008
  -3.0599999999999988E-002    -2.2086178219636395E-008
  -2.9499999999999998E-002    -2.3968427242946463E-008
  -2.8400000000000009E-002    -2.5760931166016240E-008
  -2.7299999999999991E-002    -2.7848958694673002E-008
  -2.6200000000000001E-002    -3.0617876234370096E-008
  -2.5100000000000011E-002    -3.4202027876514441E-008
  -2.3999999999999994E-002    -3.8358191289941399E-008
  -2.2900000000000004E-002    -4.2592258608916777E-008
  -2.1800000000000014E-002    -4.6495696182087848E-008
  -2.0699999999999996E-002    -5.0066017109879644E-008
  -1.9600000000000006E-002    -5.3758519413799173E-008
  -1.8499999999999989E-002    -5.8202353159225449E-008
  -1.7399999999999999E-002    -6.3780817072250526E-008
  -1.6300000000000009E-002    -7.0397170759400374E-008
  -1.5199999999999991E-002    -7.7604056514240111E-008
  -1.4100000000000001E-002    -8.4979468795146964E-008
  -1.3000000000000012E-002    -9.2438412480069511E-008
  -1.1899999999999994E-002    -1.0024663765760970E-007
  -1.0800000000000004E-002    -1.0877576528399767E-007
  -9.6999999999999864E-003    -1.1825172663292305E-007
  -8.5999999999999965E-003    -1.2871116439326870E-007
  -7.5000000000000067E-003    -1.4014835869601144E-007
  -6.3999999999999890E-003    -1.5264650699008134E-007
  -5.2999999999999992E-003    -1.6632625943201059E-007
  -4.2000000000000093E-003    -1.8116345756878359E-007
  -3.0999999999999917E-003    -1.9689187524816597E-007
  -2.0000000000000018E-003    -2.1314099285516818E-007
  -9.0000000000001190E-004    -2.2973118518618985E-007
   2.0000000000000573E-004    -2.4688861799402320E-007
   1.2999999999999956E-003    -2.6521021823098014E-007
   2.4000000000000132E-003    -2.8542712016130325E-007
   3.5000000000000031E-003    -3.0815652962698351E-007
   4.5999999999999930E-003    -3.3376494457112613E-007
   5.7000000000000106E-003    -3.6229778288540096E-007
   6.8000000000000005E-003    -3.9338894453063468E-007
   7.8999999999999904E-003    -4.2620658291521798E-007
   9.0000000000000080E-003    -4.5964264927529686E-007
   1.0099999999999998E-002    -4.9286308012592668E-007
   1.1199999999999988E-002    -5.2599176569851494E-007
   1.2300000000000005E-002    -5.6041892548814064E-007
   1.3399999999999995E-002    -5.9834547982967551E-007
   1.4500000000000013E-002    -6.4170382074729262E-007
   1.5600000000000003E-002    -6.9112564915479179E-007
   1.6699999999999993E-002    -7.4566361263343860E-007
   1.7800000000000010E-002    -8.0343903618988324E-007
   1.8900000000000000E-002    -8.6272359567366304E-007
   1.9999999999999990E-002    -9.2272000529183664E-007
   2.1100000000000008E-002    -9.8367695500192017E-007
   2.2199999999999998E-002    -1.0465531659064198E-006
   2.3300000000000015E-002    -1.1126768413304370E-006
   2.4400000000000005E-002    -1.1835888926724503E-006
   2.5499999999999995E-002    -1.2608396673384696E-006
   2.6600000000000013E-002    -1.3454654208543276E-006
   2.7700000000000002E-002    -1.4373164276547448E-006
   2.8799999999999992E-002    -1.5348171018557375E-006
   2.9900000000000010E-002    -1.6356150354111698E-006
   3.1000000000000000E-002    -1.7379164773954696E-006
   3.2099999999999990E-002    -1.8416462808089032E-006
   3.3200000000000007E-002    -1.9486089968266257E-006
   3.4299999999999997E-002    -2.0615523226295309E-006
   3.5400000000000015E-002    -2.1828445824210358E-006
   3.6500000000000005E-002    -2.3136453819459011E-006
   3.7599999999999995E-002    -2.4538608158761681E-006
   3.8700000000000012E-002    -2.6025079478128965E-006
   3.9800000000000002E-002    -2.7580026653592723E-006
   4.0899999999999992E-002    -2.9183722745071503E-006
   4.2000000000000010E-002    -3.0818080176683793E-006
   4.3099999999999999E-002    -3.2477053082399560E-006
   4.4200000000000017E-002    -3.4175991459047979E-006
   4.5300000000000007E-002    -3.5950308756579330E-006
   4.6399999999999997E-002    -3.7839467950103540E-006
   4.7500000000000014E-002    -3.9864612517700080E-006
   4.8600000000000004E-002    -4.2015612962127949E-006
   4.9699999999999994E-002    -4.4258067646292587E-006
   5.0800000000000012E-002    -4.6555469452864836E-006
   5.1900000000000002E-002    -4.8889996833163439E-006
   5.2999999999999992E-002    -5.1267788876425380E-006
   5.4099999999999981E-002    -5.3708658924728774E-006
   5.5200000000000027E-002    -5.6232711358456303E-006
   5.6300000000000017E-002    -5.8854939197766702E-006
   5.7400000000000007E-002    -6.1588266362372174E-006
   5.8499999999999996E-002    -6.4445162024634007E-006
   5.9599999999999986E-002    -6.7430701164988112E-006
   6.0700000000000032E-002    -7.0532360041391068E-006
   6.1800000000000022E-002    -7.3719029387568730E-006
   6.2900000000000011E-002    -7.6956221164429862E-006
   6.4000000000000001E-002    -8.0228574006461535E-006
   6.5099999999999991E-002    -8.3550776253097365E-006
   6.6199999999999981E-002    -8.6956861196077713E-006
   6.7300000000000026E-002    -9.0476614786885624E-006
   6.8400000000000016E-002    -9.4118568085823746E-006
   6.9500000000000006E-002    -9.7872534752232205E-006
   7.0599999999999996E-002    -1.0172557267650479E-005
   7.1699999999999986E-002    -1.0567258868831155E-005
   7.2800000000000031E-002    -1.0971099072775248E-005
   7.3900000000000021E-002    -1.1382800948921462E-005
   7.5000000000000011E-002    -1.1799805179179014E-005
   7.6100000000000001E-002    -1.2219832569825256E-005
   7.7199999999999991E-002    -1.2643028640012475E-005
   7.8299999999999981E-002    -1.3072470210316767E-005
   7.9400000000000026E-002    -1.3512110854206742E-005
   8.0500000000000016E-002    -1.3963688616057485E-005
   8.1600000000000006E-002    -1.4425317203857521E-005
   8.2699999999999996E-002    -1.4893021216265398E-005
   8.3799999999999986E-002    -1.5363762940977195E-005
   8.4900000000000031E-002    -1.5837164028196978E-005
   8.6000000000000021E-002    -1.6314503227475437E-005
   8.7100000000000011E-002    -1.6796278941909145E-005
   8.8200000000000001E-002    -1.7281035979975261E-005
   8.9299999999999990E-002    -1.7766720702637189E-005
   9.0399999999999980E-002    -1.8253109374198286E-005
   9.1500000000000026E-002    -1.8742533939073901E-005
   9.2600000000000016E-002    -1.9237771994083249E-005
   9.3700000000000006E-002    -1.9738898117791877E-005
   9.4799999999999995E-002    -2.0242374375809884E-005
   9.5899999999999985E-002    -2.0743447748825807E-005
   9.7000000000000031E-002    -2.1239673515081279E-005
   9.8100000000000021E-002    -2.1732297682317732E-005
   9.9200000000000010E-002    -2.2224056010598099E-005
  0.10030000000000000         -2.2715652448821548E-005
  0.10139999999999999         -2.3204511307992660E-005
  0.10249999999999998         -2.3687063730901682E-005
  0.10360000000000003         -2.4162185582097216E-005
  0.10470000000000002         -2.4632197892058193E-005
  0.10580000000000001         -2.5100238417505726E-005
  0.10690000000000000         -2.5566492695358977E-005
  0.10799999999999998         -2.6027169951700957E-005
  0.10910000000000003         -2.6477393475940761E-005
  0.11020000000000002         -2.6915011403613990E-005
  0.11130000000000001         -2.7341618988427559E-005
  0.11240000000000000         -2.7759986551243069E-005
  0.11349999999999999         -2.8170255973233993E-005
  0.11460000000000004         -2.8568972993522993E-005
  0.11570000000000003         -2.8952372304044737E-005
  0.11680000000000001         -2.9320144676600619E-005
  0.11790000000000000         -2.9675848054463977E-005
  0.11899999999999999         -3.0023280487509413E-005
  0.12009999999999998         -3.0362005418280077E-005
  0.12120000000000003         -3.0686587706438173E-005
  0.12230000000000002         -3.0990730010668627E-005
  0.12340000000000001         -3.1272211344909707E-005
  0.12450000000000000         -3.1533814762948838E-005
  0.12559999999999999         -3.1779727578392983E-005
  0.12670000000000003         -3.2010939321477676E-005
  0.12780000000000002         -3.2224495953411553E-005
  0.12890000000000001         -3.2416894100603385E-005
  0.13000000000000000         -3.2588039175604188E-005
  0.13109999999999999         -3.2741321774662176E-005
  0.13219999999999998         -3.2879575883268069E-005
  0.13330000000000003         -3.3001153497022260E-005
  0.13440000000000002         -3.3100066502808263E-005
  0.13550000000000001         -3.3170854294436647E-005
  0.13660000000000000         -3.3213214919666416E-005
  0.13769999999999999         -3.3231881388925604E-005
  0.13880000000000003         -3.3232070563823573E-005
  0.13990000000000002         -3.3214702852998517E-005
  0.14100000000000001         -3.3176038414236746E-005
  0.14210000000000000         -3.3111780794567092E-005
  0.14319999999999999         -3.3021307899613535E-005
  0.14429999999999998         -3.2907992135730249E-005
  0.14540000000000003         -3.2775009458415832E-005
  0.14650000000000002         -3.2621122954875873E-005
  0.14760000000000001         -3.2441286748504922E-005
  0.14870000000000000         -3.2231455406869506E-005
  0.14979999999999999         -3.1992731237548162E-005
  0.15090000000000003         -3.1730658520242916E-005
  0.15200000000000002         -3.1450206734004243E-005
  0.15310000000000001         -3.1151335861065264E-005
  0.15420000000000000         -3.0829418392383360E-005
  0.15529999999999999         -3.0480372515736980E-005
  0.15639999999999998         -3.0104667530392231E-005
  0.15750000000000003         -2.9706319764952144E-005
  0.15860000000000002         -2.9288798032209286E-005
  0.15970000000000001         -2.8851673050664415E-005
  0.16080000000000000         -2.8391143132464123E-005
  0.16189999999999999         -2.7904072339876693E-005
  0.16300000000000003         -2.7391772164262082E-005
  0.16410000000000002         -2.6859033823709236E-005
  0.16520000000000001         -2.6309437089364328E-005
  0.16630000000000000         -2.5742550860738719E-005
  0.16739999999999999         -2.5155302864729819E-005
  0.16850000000000004         -2.4545723135813585E-005
  0.16960000000000003         -2.3915863494037223E-005
  0.17070000000000002         -2.3270053134181170E-005
  0.17180000000000001         -2.2610511223317753E-005
  0.17290000000000000         -2.1935686163485744E-005
  0.17399999999999999         -2.1242240109129635E-005
  0.17510000000000003         -2.0528677850959713E-005
  0.17620000000000002         -1.9797391360041641E-005
  0.17730000000000001         -1.9052838979403515E-005
  0.17840000000000000         -1.8297592760061943E-005
  0.17949999999999999         -1.7531290723125619E-005
  0.18060000000000004         -1.6753007002988142E-005
  0.18170000000000003         -1.5963296391417587E-005
  0.18280000000000002         -1.5164637261476291E-005
  0.18390000000000001         -1.4359347005664370E-005
  0.18500000000000000         -1.3546886293623674E-005
  0.18609999999999999         -1.2724608495772040E-005
  0.18720000000000003         -1.1891404028573307E-005
  0.18830000000000002         -1.1049578461096467E-005
  0.18940000000000001         -1.0203527381235191E-005
  0.19050000000000000         -9.3568614829555167E-006
  0.19159999999999999         -8.5100655269334919E-006
  0.19270000000000004         -7.6619144238058254E-006
  0.19380000000000003         -6.8126319092691526E-006
  0.19490000000000002         -5.9648841670417199E-006
  0.19600000000000001         -5.1213864935556729E-006
  0.19710000000000000         -4.2818633119163728E-006
  0.19819999999999999         -3.4437218801027429E-006
  0.19930000000000003         -2.6051629902209988E-006
  0.20040000000000002         -1.7679262782619556E-006
  0.20150000000000001         -9.3702089998246546E-007
  0.20260000000000000         -1.1735601646017779E-007
  0.20369999999999999          6.8980250489401323E-007
  0.20480000000000004          1.4866701576464900E-006
  0.20590000000000003          2.2747617549610472E-006
  0.20700000000000002          3.0521750886689282E-006
  0.20810000000000001          3.8149410102047575E-006
  0.20920000000000000          4.5607989704872785E-006
  0.21029999999999999          5.2916029744660548E-006
  0.21140000000000003          6.0111988204875332E-006
  0.21250000000000002          6.7207047322875453E-006
  0.21360000000000001          7.4158433562836514E-006
  0.21470000000000000          8.0899490058065592E-006
  0.21579999999999999          8.7398811956510452E-006
  0.21690000000000004          9.3677772383662784E-006
  0.21800000000000003          9.9778244475592178E-006
  0.21910000000000002          1.0571156053628274E-005
  0.22020000000000001          1.1143586561955890E-005
  0.22130000000000000          1.1689847269734694E-005
  0.22239999999999999          1.2208926818856314E-005
  0.22350000000000003          1.2705004337475396E-005
  0.22460000000000002          1.3183361261325136E-005
  0.22570000000000001          1.3644272257805471E-005
  0.22680000000000000          1.4082057532503830E-005
  0.22789999999999999          1.4490744433713666E-005
  0.22900000000000004          1.4869517144687492E-005
  0.23010000000000003          1.5222650290523638E-005
  0.23120000000000002          1.5554431229246265E-005
  0.23230000000000001          1.5863688531679487E-005
  0.23340000000000000          1.6144576875375007E-005
  0.23450000000000004          1.6392996258217241E-005
  0.23560000000000003          1.6611842511336627E-005
  0.23670000000000002          1.6809217413536560E-005
  0.23780000000000001          1.6991032680378566E-005
  0.23890000000000000          1.7154990928245962E-005
  0.23999999999999999          1.7292553820878507E-005
  0.24110000000000004          1.7397254850946596E-005
  0.24220000000000003          1.7470756574765067E-005
  0.24330000000000002          1.7520967958260540E-005
  0.24440000000000001          1.7553680663693905E-005
  0.24550000000000000          1.7566728274685537E-005
  0.24660000000000004          1.7553044017402661E-005
  0.24770000000000003          1.7509311874162615E-005
  0.24880000000000002          1.7440992451154840E-005
  0.24990000000000001          1.7358304830848459E-005
  0.25100000000000000          1.7266658687729615E-005
  0.25209999999999999          1.7161464711533168E-005
  0.25320000000000004          1.7032934920278628E-005
  0.25430000000000003          1.6875386791069324E-005
  0.25540000000000002          1.6692725694154666E-005
  0.25650000000000001          1.6494941519338932E-005
  0.25760000000000000          1.6288404367513338E-005
  0.25870000000000004          1.6070971469160504E-005
  0.25980000000000003          1.5836121747268719E-005
  0.26090000000000002          1.5581221305181651E-005
  0.26200000000000001          1.5311597962862280E-005
  0.26310000000000000          1.5035876458567526E-005
  0.26419999999999999          1.4757169992661555E-005
  0.26530000000000004          1.4469997950071484E-005
  0.26640000000000003          1.4166332221064760E-005
  0.26750000000000002          1.3845045032211186E-005
  0.26860000000000001          1.3514149031833381E-005
  0.26970000000000000          1.3182512702768334E-005
  0.27080000000000004          1.2851314750149544E-005
  0.27190000000000003          1.2513824913183889E-005
  0.27300000000000002          1.2163685823905975E-005
  0.27410000000000001          1.1803257621066905E-005
  0.27520000000000000          1.1442539289417969E-005
  0.27629999999999999          1.1089781764893652E-005
  0.27740000000000004          1.0743141501733462E-005
  0.27850000000000003          1.0392556760051682E-005
  0.27960000000000002          1.0030358680522963E-005
  0.28070000000000001          9.6597195806670896E-006
  0.28179999999999999          9.2922991825607889E-006
  0.28290000000000004          8.9365539679411490E-006
  0.28400000000000003          8.5894707808611945E-006
  0.28510000000000002          8.2404840213704309E-006
  0.28620000000000001          7.8830544225631058E-006
  0.28730000000000000          7.5221832958042720E-006
  0.28840000000000005          7.1701151682638975E-006
  0.28950000000000004          6.8346034822745982E-006
  0.29060000000000002          6.5111617004725283E-006
  0.29170000000000001          6.1879486565879543E-006
  0.29280000000000000          5.8582677411317196E-006
  0.29389999999999999          5.5272953431989657E-006
  0.29500000000000004          5.2067307478859502E-006
  0.29610000000000003          4.9027262321028162E-006
  0.29720000000000002          4.6093441596890408E-006
  0.29830000000000001          4.3151935642522665E-006
  0.29940000000000000          4.0159566196958245E-006
  0.30050000000000004          3.7188897294978106E-006
  0.30160000000000003          3.4360016343267612E-006
  0.30270000000000002          3.1723034226157705E-006
  0.30380000000000001          2.9209486456235675E-006
  0.30490000000000000          2.6704208266889502E-006
  0.30599999999999999          2.4162523004631341E-006
  0.30709999999999998          2.1649766495099807E-006
  0.30819999999999997          1.9263225112806806E-006
  0.30930000000000007          1.7025389524858815E-006
  0.31040000000000006          1.4860107739876384E-006
  0.31150000000000005          1.2675708376262675E-006
  0.31260000000000004          1.0468631899128617E-006
  0.31370000000000003          8.3311454091007002E-007
  0.31480000000000002          6.3559355112366184E-007
  0.31590000000000001          4.5352490474208588E-007
  0.31700000000000000          2.7672194846668104E-007
  0.31809999999999999          9.6577480235251860E-008
  0.31919999999999998         -8.5073885713897041E-008
  0.32029999999999997         -2.5806485837165393E-007
  0.32140000000000007         -4.1561639818608797E-007
  0.32250000000000006         -5.6270476989081234E-007
  0.32360000000000005         -7.1184410899145368E-007
  0.32470000000000004         -8.6965030732238472E-007
  0.32580000000000003         -1.0286311180606571E-006
  0.32690000000000002         -1.1740812624338169E-006
  0.32800000000000001         -1.2988402886548043E-006
  0.32910000000000000         -1.4111931250225820E-006
  0.33019999999999999         -1.5271619986377713E-006
  0.33129999999999998         -1.6545563994439843E-006
  0.33239999999999997         -1.7851868960859442E-006
  0.33350000000000007         -1.9036707499252141E-006
  0.33460000000000006         -2.0037593913000995E-006
  0.33570000000000005         -2.0955467334713905E-006
  0.33680000000000004         -2.1955827378404110E-006
  0.33790000000000003         -2.3094582957126360E-006
  0.33900000000000002         -2.4254356958406587E-006
  0.34010000000000001         -2.5258589175789612E-006
  0.34120000000000000         -2.6044695005109677E-006
  0.34229999999999999         -2.6724501367423272E-006
  0.34339999999999998         -2.7473697628008641E-006
  0.34449999999999997         -2.8361732802293165E-006
  0.34560000000000007         -2.9290738439155809E-006
  0.34670000000000006         -3.0108756163824340E-006
  0.34780000000000005         -3.0772896479899909E-006
  0.34890000000000004         -3.1386618957182700E-006
