 -0.20000000000000001          0.0000000000000000
 -0.19890000000000002          0.0000000000000000
 -0.19780000000000000          0.0000000000000000
 -0.19670000000000001          0.0000000000000000
 -0.19560000000000002          0.0000000000000000
 -0.19450000000000001          0.0000000000000000
 -0.19340000000000002          4.5942904428747378E-013
 -0.19230000000000000          1.6464194374163355E-012
 -0.19120000000000001         -1.9973157242697548E-012
 -0.19010000000000002         -2.1751428783134408E-011
 -0.18900000000000000         -3.5322994529352059E-011
 -0.18790000000000001          7.0579264654924145E-011
 -0.18680000000000002          3.8808814495361332E-010
 -0.18570000000000000          5.3569193525504488E-010
 -0.18460000000000001         -6.4164396018639991E-010
 -0.18350000000000000         -3.8453338291333239E-009
 -0.18240000000000001         -6.1172720222657517E-009
 -0.18130000000000002          6.5832711504398844E-010
 -0.18020000000000000          2.2337015792572856E-008
 -0.17910000000000001          4.5237825929689279E-008
 -0.17800000000000002          2.7097240007378787E-008
 -0.17690000000000000         -7.2477980950225174E-008
 -0.17580000000000001         -2.1724677878864895E-007
 -0.17470000000000002         -2.4212440052906459E-007
 -0.17360000000000000          5.9915933547927125E-008
 -0.17250000000000001          6.7645220269696438E-007
 -0.17140000000000000          1.1329875633236952E-006
 -0.17030000000000001          6.4197439542112988E-007
 -0.16920000000000002         -1.1673109838739038E-006
 -0.16810000000000000         -3.3699841424095212E-006
 -0.16700000000000001         -3.7296033497113967E-006
 -0.16589999999999999         -2.8230147108843084E-007
 -0.16480000000000000          6.1718628785456531E-006
 -0.16370000000000001          1.0970235962304287E-005
 -0.16260000000000002          8.0936943049891852E-006
 -0.16150000000000000         -4.2754372771014459E-006
 -0.16040000000000001         -1.9476905436022207E-005
 -0.15930000000000000         -2.4686185497557744E-005
 -0.15820000000000001         -1.0687187568692025E-005
 -0.15710000000000002          1.7604384993319400E-005
 -0.15600000000000000          4.0365492168348283E-005
 -0.15490000000000001          3.6500692658592016E-005
 -0.15379999999999999          3.1866925382928457E-006
 -0.15270000000000000         -3.6395507777342573E-005
 -0.15160000000000001         -4.8775687901070341E-005
 -0.15050000000000002         -2.0554372895276174E-005
 -0.14940000000000001          2.3442611563950777E-005
 -0.14830000000000002          3.6775982152903453E-005
 -0.14720000000000000         -4.0858990359993186E-006
 -0.14610000000000001         -6.5774307586252689E-005
 -0.14500000000000002         -7.4237985245417804E-005
 -0.14390000000000000          1.8927219571196474E-005
 -0.14280000000000001          1.7216549895238131E-004
 -0.14169999999999999          2.5837097200565040E-004
 -0.14060000000000000          1.5647032705601305E-004
 -0.13950000000000001         -1.3138276699464768E-004
 -0.13840000000000002         -4.3994848965667188E-004
 -0.13730000000000001         -5.3497753106057644E-004
 -0.13619999999999999         -2.8861808823421597E-004
 -0.13510000000000000          1.9889882241841406E-004
 -0.13400000000000001          6.4157473389059305E-004
 -0.13290000000000002          7.5866177212446928E-004
 -0.13180000000000000          4.7271582297980785E-004
 -0.13070000000000001         -4.1674695239635184E-005
 -0.12959999999999999         -4.9585086526349187E-004
 -0.12850000000000000         -6.9391081342473626E-004
 -0.12740000000000001         -6.3594692619517446E-004
 -0.12630000000000002         -4.4340893509797752E-004
 -0.12520000000000001         -1.9734849047381431E-004
 -0.12410000000000000          1.3940846838522702E-004
 -0.12300000000000001          6.2831951072439551E-004
 -0.12190000000000001          1.1765679810196161E-003
 -0.12080000000000000          1.4655295526608825E-003
 -0.11970000000000000          1.1063542915508151E-003
 -0.11860000000000001         -5.3108338761376217E-005
 -0.11750000000000001         -1.6983489040285349E-003
 -0.11640000000000000         -3.0965653713792562E-003
 -0.11530000000000000         -3.4336138051003218E-003
 -0.11420000000000001         -2.2460238542407751E-003
 -0.11310000000000001          3.0655032605864108E-004
 -0.11200000000000000          3.4692259505391121E-003
 -0.11090000000000001          6.1746421270072460E-003
 -0.10980000000000001          7.4133509770035744E-003
 -0.10870000000000000          6.5280604176223278E-003
 -0.10760000000000000          3.3548467326909304E-003
 -0.10650000000000001         -1.7768563702702522E-003
 -0.10540000000000001         -8.1319427117705345E-003
 -0.10430000000000000         -1.4694768935441971E-002
 -0.10320000000000000         -2.0308587700128555E-002
 -0.10210000000000001         -2.3840587586164474E-002
 -0.10100000000000001         -2.4405919015407562E-002
  -9.9900000000000003E-002    -2.1660359576344490E-002
  -9.8799999999999999E-002    -1.6084728762507439E-002
  -9.7700000000000009E-002    -9.0826954692602158E-003
  -9.6600000000000005E-002    -2.7072504162788391E-003
  -9.5500000000000002E-002     1.0019094916060567E-003
  -9.4400000000000012E-002     8.1169075565412641E-004
  -9.3300000000000008E-002    -3.2159914262592793E-003
  -9.2200000000000004E-002    -9.8609700798988342E-003
  -9.1100000000000000E-002    -1.7438370734453201E-002
  -9.0000000000000011E-002    -2.4592809379100800E-002
  -8.8900000000000007E-002    -3.0675124377012253E-002
  -8.7800000000000003E-002    -3.5532150417566299E-002
  -8.6699999999999999E-002    -3.9029035717248917E-002
  -8.5600000000000009E-002    -4.0833882987499237E-002
  -8.4500000000000006E-002    -4.0729328989982605E-002
  -8.3400000000000002E-002    -3.9192635565996170E-002
  -8.2299999999999998E-002    -3.7671666592359543E-002
  -8.1200000000000008E-002    -3.8173500448465347E-002
  -8.0100000000000005E-002    -4.2333990335464478E-002
  -7.9000000000000001E-002    -5.0581008195877075E-002
  -7.7899999999999997E-002    -6.1963330954313278E-002
  -7.6800000000000007E-002    -7.4730701744556427E-002
  -7.5700000000000003E-002    -8.7230041623115540E-002
  -7.4600000000000000E-002    -9.8539188504219055E-002
  -7.3500000000000010E-002   -0.10855564475059509
  -7.2399999999999992E-002   -0.11769386380910873
  -7.1300000000000002E-002   -0.12655401229858398
  -7.0200000000000012E-002   -0.13579808175563812
  -6.9099999999999995E-002   -0.14619225263595581
  -6.8000000000000005E-002   -0.15861323475837708
  -6.6900000000000015E-002   -0.17388229072093964
  -6.5799999999999997E-002   -0.19247424602508545
  -6.4700000000000008E-002   -0.21427930891513824
  -6.3599999999999990E-002   -0.23859387636184692
  -6.2500000000000000E-002   -0.26441234350204468
  -6.1400000000000010E-002   -0.29093953967094421
  -6.0299999999999992E-002   -0.31809881329536438
  -5.9200000000000003E-002   -0.34673637151718140
  -5.8100000000000013E-002   -0.37831091880798340
  -5.6999999999999995E-002   -0.41414847970008850
  -5.5900000000000005E-002   -0.45468929409980774
  -5.4800000000000015E-002   -0.49927294254302979
  -5.3699999999999998E-002   -0.54669630527496338
  -5.2600000000000008E-002   -0.59620952606201172
  -5.1499999999999990E-002   -0.64822167158126831
  -5.0400000000000000E-002   -0.70416301488876343
  -4.9300000000000010E-002   -0.76562172174453735
  -4.8199999999999993E-002   -0.83346354961395264
  -4.7100000000000003E-002   -0.90763616561889648
  -4.6000000000000013E-002   -0.98773276805877686
  -4.4899999999999995E-002    -1.0737048387527466
  -4.3800000000000006E-002    -1.1660499572753906
  -4.2699999999999988E-002    -1.2653828859329224
  -4.1599999999999998E-002    -1.3719637393951416
  -4.0500000000000008E-002    -1.4858027696609497
  -3.9399999999999991E-002    -1.6073260307312012
  -3.8300000000000001E-002    -1.7379109859466553
  -3.7200000000000011E-002    -1.8796141147613525
  -3.6099999999999993E-002    -2.0341470241546631
  -3.5000000000000003E-002    -2.2019488811492920
  -3.3900000000000013E-002    -2.3821713924407959
  -3.2799999999999996E-002    -2.5736229419708252
  -3.1700000000000006E-002    -2.7758314609527588
  -3.0599999999999988E-002    -2.9893982410430908
  -2.9499999999999998E-002    -3.2155554294586182
  -2.8400000000000009E-002    -3.4556088447570801
  -2.7299999999999991E-002    -3.7109816074371338
  -2.6200000000000001E-002    -3.9836652278900146
  -2.5100000000000011E-002    -4.2763180732727051
  -2.3999999999999994E-002    -4.5914697647094727
  -2.2900000000000004E-002    -4.9302802085876465
  -2.1800000000000014E-002    -5.2919836044311523
  -2.0699999999999996E-002    -5.6747317314147949
  -1.9600000000000006E-002    -6.0772686004638672
  -1.8499999999999989E-002    -6.5001163482666016
  -1.7399999999999999E-002    -6.9453577995300293
  -1.6300000000000009E-002    -7.4154291152954102
  -1.5199999999999991E-002    -7.9122610092163086
  -1.4100000000000001E-002    -8.4375467300415039
  -1.3000000000000012E-002    -8.9935913085937500
  -1.1899999999999994E-002    -9.5834064483642578
  -1.0800000000000004E-002    -10.209573745727539
  -9.6999999999999864E-003    -10.872722625732422
  -8.5999999999999965E-003    -11.571382522583008
  -7.5000000000000067E-003    -12.303588867187500
  -6.3999999999999890E-003    -13.069153785705566
  -5.2999999999999992E-003    -13.870507240295410
  -4.2000000000000093E-003    -14.711346626281738
  -3.0999999999999917E-003    -15.594448089599609
  -2.0000000000000018E-003    -16.520671844482422
  -9.0000000000001190E-004    -17.490131378173828
   2.0000000000000573E-004    -18.504119873046875
   1.2999999999999956E-003    -19.565441131591797
   2.4000000000000132E-003    -20.676786422729492
   3.5000000000000031E-003    -21.838573455810547
   4.5999999999999930E-003    -23.048912048339844
   5.7000000000000106E-003    -24.306026458740234
   6.8000000000000005E-003    -25.611288070678711
   7.8999999999999904E-003    -26.969358444213867
   9.0000000000000080E-003    -28.385446548461914
   1.0099999999999998E-002    -29.861780166625977
   1.1199999999999988E-002    -31.396696090698242
   1.2300000000000005E-002    -32.987403869628906
   1.3399999999999995E-002    -34.633563995361328
   1.4500000000000013E-002    -36.338085174560547
   1.5600000000000003E-002    -38.104248046875000
   1.6699999999999993E-002    -39.932327270507812
   1.7800000000000010E-002    -41.818912506103516
   1.8900000000000000E-002    -43.760589599609375
   1.9999999999999990E-002    -45.757953643798828
   2.1100000000000008E-002    -47.816242218017578
   2.2199999999999998E-002    -49.941009521484375
   2.3300000000000015E-002    -52.133079528808594
   2.4400000000000005E-002    -54.387454986572266
   2.5499999999999995E-002    -56.697692871093750
   2.6600000000000013E-002    -59.061653137207031
   2.7700000000000002E-002    -61.483070373535156
   2.8799999999999992E-002    -63.967330932617188
   2.9900000000000010E-002    -66.515533447265625
   3.1000000000000000E-002    -69.122406005859375
   3.2099999999999990E-002    -71.780616760253906
   3.3200000000000007E-002    -74.487167358398438
   3.4299999999999997E-002    -77.245239257812500
   3.5400000000000015E-002    -80.060005187988281
   3.6500000000000005E-002    -82.931678771972656
   3.7599999999999995E-002    -85.853157043457031
   3.8700000000000012E-002    -88.814636230468750
   3.9800000000000002E-002    -91.810974121093750
   4.0899999999999992E-002    -94.844390869140625
   4.2000000000000010E-002    -97.920440673828125
   4.3099999999999999E-002    -101.04000854492188
   4.4200000000000017E-002    -104.19633483886719
   4.5300000000000007E-002    -107.37902069091797
   4.6399999999999997E-002    -110.58125305175781
   4.7500000000000014E-002    -113.80400848388672
   4.8600000000000004E-002    -117.05168914794922
   4.9699999999999994E-002    -120.32461547851562
   5.0800000000000012E-002    -123.61459350585938
   5.1900000000000002E-002    -126.90969848632812
   5.2999999999999992E-002    -130.20143127441406
   5.4099999999999981E-002    -133.48959350585938
   5.5200000000000027E-002    -136.77870178222656
   5.6300000000000017E-002    -140.06983947753906
   5.7400000000000007E-002    -143.35597229003906
   5.8499999999999996E-002    -146.62582397460938
   5.9599999999999986E-002    -149.87078857421875
   6.0700000000000032E-002    -153.08937072753906
   6.1800000000000022E-002    -156.28414916992188
   6.2900000000000011E-002    -159.45387268066406
   6.4000000000000001E-002    -162.58982849121094
   6.5099999999999991E-002    -165.68002319335938
   6.6199999999999981E-002    -168.71589660644531
   6.7300000000000026E-002    -171.69841003417969
   6.8400000000000016E-002    -174.63189697265625
   6.9500000000000006E-002    -177.51696777343750
   7.0599999999999996E-002    -180.34628295898438
   7.1699999999999986E-002    -183.10757446289062
   7.2800000000000031E-002    -185.79307556152344
   7.3900000000000021E-002    -188.40222167968750
   7.5000000000000011E-002    -190.93870544433594
   7.6100000000000001E-002    -193.40193176269531
   7.7199999999999991E-002    -195.78314208984375
   7.8299999999999981E-002    -198.07115173339844
   7.9400000000000026E-002    -200.25953674316406
   8.0500000000000016E-002    -202.35069274902344
   8.1600000000000006E-002    -204.35183715820312
   8.2699999999999996E-002    -206.26429748535156
   8.3799999999999986E-002    -208.08085632324219
   8.4900000000000031E-002    -209.78843688964844
   8.6000000000000021E-002    -211.38055419921875
   8.7100000000000011E-002    -212.86077880859375
   8.8200000000000001E-002    -214.23811340332031
   8.9299999999999990E-002    -215.51591491699219
   9.0399999999999980E-002    -216.68859863281250
   9.1500000000000026E-002    -217.74342346191406
   9.2600000000000016E-002    -218.67364501953125
   9.3700000000000006E-002    -219.48350524902344
   9.4799999999999995E-002    -220.18299865722656
   9.5899999999999985E-002    -220.77929687500000
   9.7000000000000031E-002    -221.26954650878906
   9.8100000000000021E-002    -221.64471435546875
   9.9200000000000010E-002    -221.89826965332031
  0.10030000000000000         -222.03520202636719
  0.10139999999999999         -222.06593322753906
  0.10249999999999998         -221.99914550781250
  0.10360000000000003         -221.83393859863281
  0.10470000000000002         -221.56188964843750
  0.10580000000000001         -221.17628479003906
  0.10690000000000000         -220.67893981933594
  0.10799999999999998         -220.08256530761719
  0.10910000000000003         -219.39826965332031
  0.11020000000000002         -218.62944030761719
  0.11130000000000001         -217.77212524414062
  0.11240000000000000         -216.82186889648438
  0.11349999999999999         -215.77934265136719
  0.11460000000000004         -214.65318298339844
  0.11570000000000003         -213.45480346679688
  0.11680000000000001         -212.18856811523438
  0.11790000000000000         -210.85386657714844
  0.11899999999999999         -209.44854736328125
  0.12009999999999998         -207.97415161132812
  0.12120000000000003         -206.43711853027344
  0.12230000000000002         -204.84555053710938
  0.12340000000000001         -203.20542907714844
  0.12450000000000000         -201.51889038085938
  0.12559999999999999         -199.78706359863281
  0.12670000000000003         -198.01104736328125
  0.12780000000000002         -196.19483947753906
  0.12890000000000001         -194.34408569335938
  0.13000000000000000         -192.46403503417969
  0.13109999999999999         -190.55876159667969
  0.13219999999999998         -188.63055419921875
  0.13330000000000003         -186.68272399902344
  0.13440000000000002         -184.71572875976562
  0.13550000000000001         -182.73168945312500
  0.13660000000000000         -180.73468017578125
  0.13769999999999999         -178.72760009765625
  0.13880000000000003         -176.71685791015625
  0.13990000000000002         -174.70799255371094
  0.14100000000000001         -172.70370483398438
  0.14210000000000000         -170.70254516601562
  0.14319999999999999         -168.70262145996094
  0.14429999999999998         -166.70507812500000
  0.14540000000000003         -164.71571350097656
  0.14650000000000002         -162.73886108398438
  0.14760000000000001         -160.77865600585938
  0.14870000000000000         -158.83345031738281
  0.14979999999999999         -156.90040588378906
  0.15090000000000003         -154.98028564453125
  0.15200000000000002         -153.07685852050781
  0.15310000000000001         -151.19436645507812
  0.15420000000000000         -149.33772277832031
  0.15529999999999999         -147.50582885742188
  0.15639999999999998         -145.69491577148438
  0.15750000000000003         -143.90162658691406
  0.15860000000000002         -142.12571716308594
  0.15970000000000001         -140.37153625488281
  0.16080000000000000         -138.63827514648438
  0.16189999999999999         -136.92817687988281
  0.16300000000000003         -135.24011230468750
  0.16410000000000002         -133.57334899902344
  0.16520000000000001         -131.92518615722656
  0.16630000000000000         -130.29777526855469
  0.16739999999999999         -128.69129943847656
  0.16850000000000004         -127.10765838623047
  0.16960000000000003         -125.54839324951172
  0.17070000000000002         -124.00962829589844
  0.17180000000000001         -122.49063873291016
  0.17290000000000000         -120.98564147949219
  0.17399999999999999         -119.49009704589844
  0.17510000000000003         -118.00450134277344
  0.17620000000000002         -116.53068542480469
  0.17730000000000001         -115.07271575927734
  0.17840000000000000         -113.63334655761719
  0.17949999999999999         -112.20852661132812
  0.18060000000000004         -110.79481506347656
  0.18170000000000003         -109.38761138916016
  0.18280000000000002         -107.99084472656250
  0.18390000000000001         -106.60617828369141
  0.18500000000000000         -105.23654937744141
  0.18609999999999999         -103.87520599365234
  0.18720000000000003         -102.51447296142578
  0.18830000000000002         -101.14920043945312
  0.18940000000000001         -99.781600952148438
  0.19050000000000000         -98.420867919921875
  0.19159999999999999         -97.074081420898438
  0.19270000000000004         -95.740173339843750
  0.19380000000000003         -94.412910461425781
  0.19490000000000002         -93.081581115722656
  0.19600000000000001         -91.746582031250000
  0.19710000000000000         -90.412673950195312
  0.19819999999999999         -89.085655212402344
  0.19930000000000003         -87.765991210937500
  0.20040000000000002         -86.448303222656250
  0.20150000000000001         -85.126556396484375
  0.20260000000000000         -83.799774169921875
  0.20369999999999999         -82.474960327148438
  0.20480000000000004         -81.158126831054688
  0.20590000000000003         -79.851478576660156
  0.20700000000000002         -78.551589965820312
  0.20810000000000001         -77.254280090332031
  0.20920000000000000         -75.957214355468750
  0.21029999999999999         -74.663703918457031
  0.21140000000000003         -73.375602722167969
  0.21250000000000002         -72.098548889160156
  0.21360000000000001         -70.831321716308594
  0.21470000000000000         -69.570838928222656
  0.21579999999999999         -68.317855834960938
  0.21690000000000004         -67.071495056152344
  0.21800000000000003         -65.834472656250000
  0.21910000000000002         -64.608001708984375
  0.22020000000000001         -63.392955780029297
  0.22130000000000000         -62.190185546875000
  0.22239999999999999         -61.003376007080078
  0.22350000000000003         -59.833267211914062
  0.22460000000000002         -58.680839538574219
  0.22570000000000001         -57.544616699218750
  0.22680000000000000         -56.425090789794922
  0.22789999999999999         -55.323493957519531
  0.22900000000000004         -54.243625640869141
  0.23010000000000003         -53.186721801757812
  0.23120000000000002         -52.153144836425781
  0.23230000000000001         -51.138599395751953
  0.23340000000000000         -50.142715454101562
  0.23450000000000004         -49.169673919677734
  0.23560000000000003         -48.225971221923828
  0.23670000000000002         -47.317016601562500
  0.23780000000000001         -46.440849304199219
  0.23890000000000000         -45.594142913818359
  0.23999999999999999         -44.774208068847656
  0.24110000000000004         -43.983249664306641
  0.24220000000000003         -43.222984313964844
  0.24330000000000002         -42.497097015380859
  0.24440000000000001         -41.804485321044922
  0.24550000000000000         -41.142692565917969
  0.24660000000000004         -40.512084960937500
  0.24770000000000003         -39.916595458984375
  0.24880000000000002         -39.359653472900391
  0.24990000000000001         -38.845443725585938
  0.25100000000000000         -38.373348236083984
  0.25209999999999999         -37.943859100341797
  0.25320000000000004         -37.553535461425781
  0.25430000000000003         -37.202873229980469
  0.25540000000000002         -36.892356872558594
  0.25650000000000001         -36.621990203857422
  0.25760000000000000         -36.393737792968750
  0.25870000000000004         -36.204288482666016
  0.25980000000000003         -36.059894561767578
  0.26090000000000002         -35.961177825927734
  0.26200000000000001         -35.911209106445312
  0.26310000000000000         -35.910102844238281
  0.26419999999999999         -35.953197479248047
  0.26530000000000004         -36.040248870849609
  0.26640000000000003         -36.172977447509766
  0.26750000000000002         -36.353713989257812
  0.26860000000000001         -36.585525512695312
  0.26970000000000000         -36.864730834960938
  0.27080000000000004         -37.188995361328125
  0.27190000000000003         -37.559059143066406
  0.27300000000000002         -37.981185913085938
  0.27410000000000001         -38.457824707031250
  0.27520000000000000         -38.991188049316406
  0.27629999999999999         -39.577838897705078
  0.27740000000000004         -40.212619781494141
  0.27850000000000003         -40.893814086914062
  0.27960000000000002         -41.625839233398438
  0.28070000000000001         -42.412254333496094
  0.28179999999999999         -43.253803253173828
  0.28290000000000004         -44.147899627685547
  0.28400000000000003         -45.091476440429688
  0.28510000000000002         -46.083553314208984
  0.28620000000000001         -47.127197265625000
  0.28730000000000000         -48.227443695068359
  0.28840000000000005         -49.381961822509766
  0.28950000000000004         -50.586452484130859
  0.29060000000000002         -51.839069366455078
  0.29170000000000001         -53.138591766357422
  0.29280000000000000         -54.492382049560547
  0.29389999999999999         -55.902530670166016
  0.29500000000000004         -57.365600585937500
  0.29610000000000003         -58.875816345214844
  0.29720000000000002         -60.428329467773438
  0.29830000000000001         -62.024982452392578
  0.29940000000000000         -63.673019409179688
  0.30050000000000004         -65.372932434082031
  0.30160000000000003         -67.119689941406250
  0.30270000000000002         -68.903091430664062
  0.30380000000000001         -70.719100952148438
  0.30490000000000000         -72.572608947753906
  0.30599999999999999         -74.471061706542969
  0.30709999999999998         -76.417396545410156
  0.30819999999999997         -78.404067993164062
  0.30930000000000007         -80.421928405761719
  0.31040000000000006         -82.460838317871094
  0.31150000000000005         -84.524681091308594
  0.31260000000000004         -86.620437622070312
  0.31370000000000003         -88.751197814941406
  0.31480000000000002         -90.910186767578125
  0.31590000000000001         -93.084716796875000
  0.31700000000000000         -95.266487121582031
  0.31809999999999999         -97.458572387695312
  0.31919999999999998         -99.668090820312500
  0.32029999999999997         -101.89743804931641
  0.32140000000000007         -104.14078521728516
  0.32250000000000006         -106.38571929931641
  0.32360000000000005         -108.62200927734375
  0.32470000000000004         -110.84761047363281
  0.32580000000000003         -113.06812286376953
  0.32690000000000002         -115.28641510009766
  0.32800000000000001         -117.49882507324219
  0.32910000000000000         -119.69643402099609
  0.33019999999999999         -121.87194061279297
  0.33129999999999998         -124.02368927001953
  0.33239999999999997         -126.15199279785156
  0.33350000000000007         -128.25769042968750
  0.33460000000000006         -130.33399963378906
  0.33570000000000005         -132.37223815917969
  0.33680000000000004         -134.36505126953125
  0.33790000000000003         -136.31051635742188
  0.33900000000000002         -138.21160888671875
  0.34010000000000001         -140.06912231445312
  0.34120000000000000         -141.87731933593750
  0.34229999999999999         -143.63182067871094
  0.34339999999999998         -145.32859802246094
  0.34449999999999997         -146.96760559082031
  0.34560000000000007         -148.54792785644531
  0.34670000000000006         -150.06643676757812
  0.34780000000000005         -151.51586914062500
  0.34890000000000004         -152.89103698730469
