 -0.20000000000000001          0.0000000000000000
 -0.19890000000000002          0.0000000000000000
 -0.19780000000000000          0.0000000000000000
 -0.19670000000000001          0.0000000000000000
 -0.19560000000000002          0.0000000000000000
 -0.19450000000000001          0.0000000000000000
 -0.19340000000000002          0.0000000000000000
 -0.19230000000000000          0.0000000000000000
 -0.19120000000000001          0.0000000000000000
 -0.19010000000000002          0.0000000000000000
 -0.18900000000000000          0.0000000000000000
 -0.18790000000000001          3.0123432827897728E-040
 -0.18680000000000002         -1.0563151495741104E-037
 -0.18570000000000000          3.3949127854699854E-037
 -0.18460000000000001         -4.5158013825760143E-036
 -0.18350000000000000         -5.0666992064213572E-035
 -0.18240000000000001         -4.9614775387546368E-035
 -0.18130000000000002          5.3226935218210126E-034
 -0.18020000000000000          4.8239817782900029E-034
 -0.17910000000000001         -8.5406842449618896E-033
 -0.17800000000000002         -2.2563314312974349E-032
 -0.17690000000000000          5.1741969939014794E-032
 -0.17580000000000001          3.3049623175487533E-031
 -0.17470000000000002          2.3462507541141507E-031
 -0.17360000000000000         -2.1506752483887468E-030
 -0.17250000000000001         -6.2647984592610542E-030
 -0.17140000000000000          1.3346012727880068E-030
 -0.17030000000000001          4.2374256469628277E-029
 -0.16920000000000002          8.1515376100709711E-029
 -0.16810000000000000         -6.4140930126629454E-029
 -0.16700000000000001         -5.6237111042683538E-028
 -0.16589999999999999         -8.5258655670338276E-028
 -0.16480000000000000          8.9639404810790649E-028
 -0.16370000000000001          5.6997781148343582E-027
 -0.16260000000000002          7.7983176045573557E-027
 -0.16150000000000000         -7.7594361604680884E-027
 -0.16040000000000001         -4.6768022440944028E-026
 -0.15930000000000000         -6.4195041439532947E-026
 -0.15820000000000001          4.5025240730548241E-026
 -0.15710000000000002          3.1908819644559368E-025
 -0.15600000000000000          4.7295785793976440E-025
 -0.15490000000000001         -1.4542125702209315E-025
 -0.15379999999999999         -1.8252671513612823E-024
 -0.15270000000000000         -3.0704491831575934E-024
 -0.15160000000000001         -2.7585021254046097E-025
 -0.15050000000000002          8.6957857299285513E-024
 -0.14940000000000001          1.7334352222957802E-023
 -0.14830000000000002          7.9003173257654083E-024
 -0.14720000000000000         -3.3550519356313786E-023
 -0.14610000000000001         -8.4254667635364672E-023
 -0.14500000000000002         -6.7013083877139051E-023
 -0.14390000000000000          9.6326359943359387E-023
 -0.14280000000000001          3.4869739652268299E-022
 -0.14169999999999999          3.9618364232981805E-022
 -0.14060000000000000         -1.3705454797143639E-022
 -0.13950000000000001         -1.2049335611287517E-021
 -0.13840000000000002         -1.8464624113131670E-021
 -0.13730000000000001         -5.0555513000555315E-022
 -0.13619999999999999          3.3226290203638750E-021
 -0.13510000000000000          7.0390606357883469E-021
 -0.13400000000000001          5.0951349013972308E-021
 -0.13290000000000002         -6.3516460817755047E-021
 -0.13180000000000000         -2.2038035069734730E-020
 -0.13070000000000001         -2.5038301546408390E-020
 -0.12959999999999999          2.2888616654128626E-021
 -0.12850000000000000          5.5159472860590281E-020
 -0.12740000000000001          9.0289297100788914E-020
 -0.12630000000000002          4.5118485732348200E-020
 -0.12520000000000001         -9.9806333165638276E-020
 -0.12410000000000000         -2.5654649976692990E-019
 -0.12300000000000001         -2.4369058793360145E-019
 -0.12190000000000001          7.1572978648584193E-020
 -0.12080000000000000          5.7138493428835450E-019
 -0.11970000000000000          8.2245570519533650E-019
 -0.11860000000000001          3.3529424917834299E-019
 -0.11750000000000001         -9.1019004817910225E-019
 -0.11640000000000000         -2.0881066141880363E-018
 -0.11530000000000000         -1.8426990836461103E-018
 -0.11420000000000001          5.7261298730526604E-019
 -0.11310000000000001          4.0500441967239718E-018
 -0.11200000000000000          5.5916917236120202E-018
 -0.11090000000000001          2.3097852280879598E-018
 -0.10980000000000001         -5.4261526171151518E-018
 -0.10870000000000000         -1.2377898426199617E-017
 -0.10760000000000000         -1.0996037791828743E-017
 -0.10650000000000001          2.1303720279718926E-018
 -0.10540000000000001          2.0467745496483541E-017
 -0.10430000000000000          2.8726642641374315E-017
 -0.10320000000000000          1.3546780732353400E-017
 -0.10210000000000001         -2.2256543423464165E-017
 -0.10100000000000001         -5.4423008370334120E-017
  -9.9900000000000003E-002    -5.0578928010232789E-017
  -9.8799999999999999E-002     2.2210564589115405E-018
  -9.7700000000000009E-002     7.6249647831481000E-017
  -9.6600000000000005E-002     1.1167004443914878E-016
  -9.5500000000000002E-002     5.9541982503894030E-017
  -9.4400000000000012E-002    -6.7561988233518264E-017
  -9.3300000000000008E-002    -1.8257726356639479E-016
  -9.2200000000000004E-002    -1.7594319564438071E-016
  -9.1100000000000000E-002    -8.6680984308370817E-018
  -9.0000000000000011E-002     2.2549523186368812E-016
  -8.8900000000000007E-002     3.3833505527277468E-016
  -8.7800000000000003E-002     1.8643592215761176E-016
  -8.6699999999999999E-002    -1.8224895888999495E-016
  -8.5600000000000009E-002    -5.0741434589885977E-016
  -8.4500000000000006E-002    -4.8264022037844759E-016
  -8.3400000000000002E-002    -1.8250519297398427E-017
  -8.2299999999999998E-002     6.0805800659822769E-016
  -8.1200000000000008E-002     8.8567199626964055E-016
  -8.0100000000000005E-002     4.5786281260536479E-016
  -7.9000000000000001E-002    -5.1090221581741617E-016
  -7.7899999999999997E-002    -1.3236551044216245E-015
  -7.6800000000000007E-002    -1.2119291293381774E-015
  -7.5700000000000003E-002     3.7883180470575997E-018
  -7.4600000000000000E-002     1.5834960135190372E-015
  -7.3500000000000010E-002     2.2533054218896228E-015
  -7.2399999999999992E-002     1.1680467875606554E-015
  -7.1300000000000002E-002    -1.2341237218968450E-015
  -7.0200000000000012E-002    -3.2598226028924095E-015
  -6.9099999999999995E-002    -3.0812212590408672E-015
  -6.8000000000000005E-002    -2.6567717786223164E-016
  -6.6900000000000015E-002     3.4973626167962742E-015
  -6.5799999999999997E-002     5.2963907165462596E-015
  -6.4700000000000008E-002     3.1569671803490830E-015
  -6.3599999999999990E-002    -2.0724090422674949E-015
  -6.2500000000000000E-002    -6.7712516840854990E-015
  -6.1400000000000010E-002    -6.9423777504192853E-015
  -6.0299999999999992E-002    -1.4671063809071263E-015
  -5.9200000000000003E-002     6.3269083643512601E-015
  -5.8100000000000013E-002     1.0477736571163493E-014
  -5.6999999999999995E-002     6.7996768392459325E-015
  -5.5900000000000005E-002    -3.2459147454149675E-015
  -5.4800000000000015E-002    -1.2581629192805720E-014
  -5.3699999999999998E-002    -1.3252176049236009E-014
  -5.2600000000000008E-002    -2.8964668561022328E-015
  -5.1499999999999990E-002     1.2101060815016256E-014
  -5.0400000000000000E-002     2.0113693493411557E-014
  -4.9300000000000010E-002     1.2891598358754589E-014
  -4.8199999999999993E-002    -6.8359370491684682E-015
  -4.7100000000000003E-002    -2.5322771630238369E-014
  -4.6000000000000013E-002    -2.6918081953426591E-014
  -4.4899999999999995E-002    -6.6291466605905396E-015
  -4.3800000000000006E-002     2.3569906402597270E-014
  -4.2699999999999988E-002     4.1136480344056842E-014
  -4.1599999999999998E-002     2.9290734741100818E-014
  -4.0500000000000008E-002    -8.2083980861317671E-015
  -3.9399999999999991E-002    -4.6230539876975993E-014
  -3.8300000000000001E-002    -5.4651995548462423E-014
  -3.7200000000000011E-002    -2.1733012118456754E-014
  -3.6099999999999993E-002     3.3265050599067675E-014
  -3.5000000000000003E-002     7.0339750463024181E-014
  -3.3900000000000013E-002     5.7472073161733001E-014
  -3.2799999999999996E-002    -2.3705938623376889E-015
  -3.1700000000000006E-002    -6.8124230757395099E-014
  -3.0599999999999988E-002    -8.7827843413788853E-014
  -2.9499999999999998E-002    -3.8961360721880001E-014
  -2.8400000000000009E-002     4.8718844849202428E-014
  -2.7299999999999991E-002     1.0920017196264578E-013
  -2.6200000000000001E-002     8.8278830859961355E-014
  -2.5100000000000011E-002    -1.0285023870168931E-014
  -2.3999999999999994E-002    -1.1835468043987218E-013
  -2.2900000000000004E-002    -1.4834597580285630E-013
  -2.1800000000000014E-002    -6.1299794721584450E-014
  -2.0699999999999996E-002     9.3319794979614817E-014
  -1.9600000000000006E-002     2.0278421411674963E-013
  -1.8499999999999989E-002     1.7125709216633117E-013
  -1.7399999999999999E-002    -8.0564146467685727E-016
  -1.6300000000000009E-002    -2.0170441651558985E-013
  -1.5199999999999991E-002    -2.7970990324269196E-013
  -1.4100000000000001E-002    -1.5657248175933447E-013
  -1.3000000000000012E-002     1.0063645202547031E-013
  -1.1899999999999994E-002     3.1216123978251853E-013
  -1.0800000000000004E-002     3.1128241260655609E-013
  -9.6999999999999864E-003     7.6267876562841064E-014
  -8.5999999999999965E-003    -2.3498713283380546E-013
  -7.5000000000000067E-003    -3.8773763930480265E-013
  -6.3999999999999890E-003    -2.4683280050973033E-013
  -5.2999999999999992E-003     1.0386946158865915E-013
  -4.2000000000000093E-003     4.0157279086218411E-013
  -3.0999999999999917E-003     3.9299477300885899E-013
  -2.0000000000000018E-003     4.0395648387729285E-014
  -9.0000000000001190E-004    -4.1698860076683220E-013
   2.0000000000000573E-004    -6.1480031135485724E-013
   1.2999999999999956E-003    -3.3708883666154488E-013
   2.4000000000000132E-003     2.8867695994055920E-013
   3.5000000000000031E-003     8.3955683117392654E-013
   4.5999999999999930E-003     8.8249324297837162E-013
   5.7000000000000106E-003     3.0470106147408027E-013
   6.8000000000000005E-003    -5.6186788078074756E-013
   7.8999999999999904E-003    -1.1419628263842352E-012
   9.0000000000000080E-003    -1.0244320582802890E-012
   1.0099999999999998E-002    -2.8240338669979770E-013
   1.1199999999999988E-002     5.5025238922604136E-013
   1.2300000000000005E-002     8.6154905909116564E-013
   1.3399999999999995E-002     4.3933910329196912E-013
   1.4500000000000013E-002    -3.2189602003872275E-013
   1.5600000000000003E-002    -6.7878450256408929E-013
   1.6699999999999993E-002    -1.1149142996628655E-013
   1.7800000000000010E-002     1.2024018933298741E-012
   1.8900000000000000E-002     2.3957491806364528E-012
   1.9999999999999990E-002     2.4541501643382535E-012
   2.1100000000000008E-002     9.4056251502550037E-013
   2.2199999999999998E-002    -1.6233832854373187E-012
   2.3300000000000015E-002    -4.0313611823772355E-012
   2.4400000000000005E-002    -5.1627638796014619E-012
   2.5499999999999995E-002    -4.7033362447768123E-012
   2.6600000000000013E-002    -3.2719673324910215E-012
   2.7700000000000002E-002    -1.8317682440316396E-012
   2.8799999999999992E-002    -8.1265349267597986E-013
   2.9900000000000010E-002     3.6820313508226232E-013
   3.1000000000000000E-002     2.9591507196002897E-012
   3.2099999999999990E-002     7.8886879667505738E-012
   3.3200000000000007E-002     1.4857013189151225E-011
   3.4299999999999997E-002     2.2235690719241141E-011
   3.5400000000000015E-002     2.7954522377471314E-011
   3.6500000000000005E-002     3.0813674528618051E-011
   3.7599999999999995E-002     3.1287424040460365E-011
   3.8700000000000012E-002     3.1200930727948162E-011
   3.9800000000000002E-002     3.2473294886425919E-011
   4.0899999999999992E-002     3.5837870865362831E-011
   4.2000000000000010E-002     4.0511222848538253E-011
   4.3099999999999999E-002     4.5090726291663330E-011
   4.4200000000000017E-002     4.9002728957914243E-011
   4.5300000000000007E-002     5.3331027094483119E-011
   4.6399999999999997E-002     6.0255522793539740E-011
   4.7500000000000014E-002     7.1384516353578675E-011
   4.8600000000000004E-002     8.6198409521287545E-011
   4.9699999999999994E-002     1.0188976051761500E-010
   5.0800000000000012E-002     1.1494787066634871E-010
   5.1900000000000002E-002     1.2352818767880080E-010
   5.2999999999999992E-002     1.2894386947071013E-010
   5.4099999999999981E-002     1.3511256002907146E-010
   5.5200000000000027E-002     1.4620743504778488E-010
   5.6300000000000017E-002     1.6409554270957472E-010
   5.7400000000000007E-002     1.8738390006323158E-010
   5.8499999999999996E-002     2.1278816209058249E-010
   5.9599999999999986E-002     2.3784263447623744E-010
   6.0700000000000032E-002     2.6293753285777655E-010
   6.1800000000000022E-002     2.9111490995603617E-010
   6.2900000000000011E-002     3.2571798036507005E-010
   6.4000000000000001E-002     3.6765918087766636E-010
   6.5099999999999991E-002     4.1446812648615605E-010
   6.6199999999999981E-002     4.6202236481107661E-010
   6.7300000000000026E-002     5.0782433813623129E-010
   6.8400000000000016E-002     5.5339455240499547E-010
   6.9500000000000006E-002     6.0385019207132018E-010
   7.0599999999999996E-002     6.6476402160731141E-010
   7.1699999999999986E-002     7.3849321102770205E-010
   7.2800000000000031E-002     8.2272844093012054E-010
   7.3900000000000021E-002     9.1250873524018061E-010
   7.5000000000000011E-002     1.0043943454718374E-009
   7.6100000000000001E-002     1.0997671662238417E-009
   7.7199999999999991E-002     1.2046945663257702E-009
   7.8299999999999981E-002     1.3262291265192516E-009
   7.9400000000000026E-002     1.4676988513429023E-009
   8.0500000000000016E-002     1.6264607438642997E-009
   8.1600000000000006E-002     1.7959633780151307E-009
   8.2699999999999996E-002     1.9708736864743059E-009
   8.3799999999999986E-002     2.1517008175209185E-009
   8.4900000000000031E-002     2.3455652975457042E-009
   8.6000000000000021E-002     2.5624284916148099E-009
   8.7100000000000011E-002     2.8093694037778505E-009
   8.8200000000000001E-002     3.0869391487442499E-009
   8.9299999999999990E-002     3.3901634832744776E-009
   9.0399999999999980E-002     3.7134113561876347E-009
   9.1500000000000026E-002     4.0555594438274056E-009
   9.2600000000000016E-002     4.4217185468653497E-009
   9.3700000000000006E-002     4.8203911973132563E-009
   9.4799999999999995E-002     5.2583692955465722E-009
   9.5899999999999985E-002     5.7373514827929739E-009
   9.7000000000000031E-002     6.2548917156846073E-009
   9.8100000000000021E-002     6.8089218707712007E-009
   9.9200000000000010E-002     7.4022343810042912E-009
  0.10030000000000000          8.0432576154976232E-009
  0.10139999999999999          8.7422611372289794E-009
  0.10249999999999998          9.5057393068032070E-009
  0.10360000000000003          1.0333355504599240E-008
  0.10470000000000002          1.1220114615184684E-008
  0.10580000000000001          1.2162534090975896E-008
  0.10690000000000000          1.3164468626314374E-008
  0.10799999999999998          1.4238189294246695E-008
  0.10910000000000003          1.5399669095472746E-008
  0.11020000000000002          1.6661214630175891E-008
  0.11130000000000001          1.8026648618274521E-008
  0.11240000000000000          1.9492516045716002E-008
  0.11349999999999999          2.1054468390957481E-008
  0.11460000000000004          2.2714276681767842E-008
  0.11570000000000003          2.4482480043275245E-008
  0.11680000000000001          2.6374900485848229E-008
  0.11790000000000000          2.8405816365761893E-008
  0.11899999999999999          3.0582903320919286E-008
  0.12009999999999998          3.2907710334484364E-008
  0.12120000000000003          3.5381145124802060E-008
  0.12230000000000002          3.8009677183481472E-008
  0.12340000000000001          4.0807385914831684E-008
  0.12450000000000000          4.3792180548507531E-008
  0.12559999999999999          4.6979042878092514E-008
  0.12670000000000003          5.0375451365880508E-008
  0.12780000000000002          5.3982645908945415E-008
  0.12890000000000001          5.7801983643912536E-008
  0.13000000000000000          6.1841731735512440E-008
  0.13109999999999999          6.6119262953634461E-008
  0.13219999999999998          7.0656888340181467E-008
  0.13330000000000003          7.5474311245216086E-008
  0.13440000000000002          8.0583291151015146E-008
  0.13550000000000001          8.5988254738822434E-008
  0.13660000000000000          9.1692527348641306E-008
  0.13769999999999999          9.7705466828301724E-008
  0.13880000000000003          1.0404522754470236E-007
  0.13990000000000002          1.1073532846239686E-007
  0.14100000000000001          1.1779770403563816E-007
  0.14210000000000000          1.2524731118901400E-007
  0.14319999999999999          1.3309242774539598E-007
  0.14429999999999998          1.4134008097244077E-007
  0.14540000000000003          1.5000254904862231E-007
  0.14650000000000002          1.5909976980310603E-007
  0.14760000000000001          1.6865612906258320E-007
  0.14870000000000000          1.7869400892323029E-007
  0.14979999999999999          1.8922894184925099E-007
  0.15090000000000003          2.0026989488997060E-007
  0.15200000000000002          2.1182442822009762E-007
  0.15310000000000001          2.2390497633750783E-007
  0.15420000000000000          2.3653133496281953E-007
  0.15529999999999999          2.4972811729639943E-007
  0.15639999999999998          2.6351912651989551E-007
  0.15750000000000003          2.7792273726845451E-007
  0.15860000000000002          2.9295179615473899E-007
  0.15970000000000001          3.0861741606713622E-007
  0.16080000000000000          3.2493358048668597E-007
  0.16189999999999999          3.4191890563306515E-007
  0.16300000000000003          3.5959408251073910E-007
  0.16410000000000002          3.7797758523083758E-007
  0.16520000000000001          3.9708294252704945E-007
  0.16630000000000000          4.1691987462399993E-007
  0.16739999999999999          4.3749838596340851E-007
  0.16850000000000004          4.5883240318289609E-007
  0.16960000000000003          4.8094028670675470E-007
  0.17070000000000002          5.0384147698423476E-007
  0.17180000000000001          5.2755171964236069E-007
  0.17290000000000000          5.5208113280968973E-007
  0.17399999999999999          5.7743534398468910E-007
  0.17510000000000003          6.0361952591847512E-007
  0.17620000000000002          6.3064260302780895E-007
  0.17730000000000001          6.5851713770825882E-007
  0.17840000000000000          6.8725688606718904E-007
  0.17949999999999999          7.1687281888443977E-007
  0.18060000000000004          7.4737135946634226E-007
  0.18170000000000003          7.7875512261016411E-007
  0.18280000000000002          8.1102655258291634E-007
  0.18390000000000001          8.4418940105024376E-007
  0.18500000000000000          8.7824872707642498E-007
  0.18609999999999999          9.1320811179684824E-007
  0.18720000000000003          9.4906772574177012E-007
  0.18830000000000002          9.8582381724554580E-007
  0.18940000000000001          1.0234710998702212E-006
  0.19050000000000000          1.0620060493238270E-006
  0.19159999999999999          1.1014271876774728E-006
  0.19270000000000004          1.1417332643759437E-006
  0.19380000000000003          1.1829206414404325E-006
  0.19490000000000002          1.2249806786712725E-006
  0.19600000000000001          1.2679014389505028E-006
  0.19710000000000000          1.3116698482917855E-006
  0.19819999999999999          1.3562745380113483E-006
  0.19930000000000003          1.4017055036674719E-006
  0.20040000000000002          1.4479525134447613E-006
  0.20150000000000001          1.4950014701753389E-006
  0.20260000000000000          1.5428342976520071E-006
  0.20369999999999999          1.5914297364361119E-006
  0.20480000000000004          1.6407666407758370E-006
  0.20590000000000003          1.6908261386561207E-006
  0.20700000000000002          1.7415919728591689E-006
  0.20810000000000001          1.7930476587935118E-006
  0.20920000000000000          1.8451725054546841E-006
  0.21029999999999999          1.8979408196173608E-006
  0.21140000000000003          1.9513229290168965E-006
  0.21250000000000002          2.0052891613886459E-006
  0.21360000000000001          2.0598138235072838E-006
  0.21470000000000000          2.1148737232579151E-006
  0.21579999999999999          2.1704456685256446E-006
  0.21690000000000004          2.2265028292167699E-006
  0.21800000000000003          2.2830142825114308E-006
  0.21910000000000002          2.3399477413477143E-006
  0.22020000000000001          2.3972734197741374E-006
  0.22130000000000000          2.4549647150706733E-006
  0.22239999999999999          2.5129957066383213E-006
  0.22350000000000003          2.5713372906466248E-006
  0.22460000000000002          2.6299558157916181E-006
  0.22570000000000001          2.6888135380431777E-006
  0.22680000000000000          2.7478747597342590E-006
  0.22789999999999999          2.8071078759239754E-006
  0.22900000000000004          2.8664860565186245E-006
  0.23010000000000003          2.9259842904139077E-006
  0.23120000000000002          2.9855759748897981E-006
  0.23230000000000001          3.0452317787421634E-006
  0.23340000000000000          3.1049194149090908E-006
  0.23450000000000004          3.1646065963286674E-006
  0.23560000000000003          3.2242637644230854E-006
  0.23670000000000002          3.2838631796039408E-006
  0.23780000000000001          3.3433798307669349E-006
  0.23890000000000000          3.4027887068077689E-006
  0.23999999999999999          3.4620643418747932E-006
  0.24110000000000004          3.5211803606216563E-006
  0.24220000000000003          3.5801110698230332E-006
  0.24330000000000002          3.6388314583746251E-006
  0.24440000000000001          3.6973203805246158E-006
  0.24550000000000000          3.7555594190052943E-006
  0.24660000000000004          3.8135306112963008E-006
  0.24770000000000003          3.8712150853825733E-006
  0.24880000000000002          3.9285932871280238E-006
  0.24990000000000001          3.9856463445175905E-006
  0.25100000000000000          4.0423583413939923E-006
  0.25209999999999999          4.0987174543261062E-006
  0.25320000000000004          4.1547127693775110E-006
  0.25430000000000003          4.2103338273591362E-006
  0.25540000000000002          4.2655674405978061E-006
  0.25650000000000001          4.3204008761676960E-006
  0.25760000000000000          4.3748264033638407E-006
  0.25870000000000004          4.4288394747127313E-006
  0.25980000000000003          4.4824400902143680E-006
  0.26090000000000002          4.5356291593634523E-006
  0.26200000000000001          4.5884016799391247E-006
  0.26310000000000000          4.6407490117417183E-006
  0.26419999999999999          4.6926643335609697E-006
  0.26530000000000004          4.7441499191336334E-006
  0.26640000000000003          4.7952130444173235E-006
  0.26750000000000002          4.8458618948643561E-006
  0.26860000000000001          4.8960996537061874E-006
  0.26970000000000000          4.9459272304375190E-006
  0.27080000000000004          4.9953473535424564E-006
  0.27190000000000003          5.0443691179680172E-006
  0.27300000000000002          5.0930075303767808E-006
  0.27410000000000001          5.1412748689472210E-006
  0.27520000000000000          5.1891775001422502E-006
  0.27629999999999999          5.2367195166880265E-006
  0.27740000000000004          5.2839077397948131E-006
  0.27850000000000003          5.3307562666304875E-006
  0.27960000000000002          5.3772819228470325E-006
  0.28070000000000001          5.4235015340964310E-006
  0.28179999999999999          5.4694282880518585E-006
  0.28290000000000004          5.5150730986497365E-006
  0.28400000000000003          5.5604486988158897E-006
  0.28510000000000002          5.6055714594549499E-006
  0.28620000000000001          5.6504568419768475E-006
  0.28730000000000000          5.6951193982968107E-006
  0.28840000000000005          5.7395704970986117E-006
  0.28950000000000004          5.7838251450448297E-006
  0.29060000000000002          5.8279028962715529E-006
  0.29170000000000001          5.8718228501675185E-006
  0.29280000000000000          5.9156018323847093E-006
  0.29389999999999999          5.9592493926174939E-006
  0.29500000000000004          6.0027732615708373E-006
  0.29610000000000003          6.0461848079285119E-006
  0.29720000000000002          6.0895054048160091E-006
  0.29830000000000001          6.1327568801061716E-006
  0.29940000000000000          6.1759546952089295E-006
  0.30050000000000004          6.2191052165871952E-006
  0.30160000000000003          6.2622129917144775E-006
  0.30270000000000002          6.3052871155377943E-006
  0.30380000000000001          6.3483453232038300E-006
  0.30490000000000000          6.3914071688486729E-006
  0.30599999999999999          6.4344853853981476E-006
  0.30709999999999998          6.4775799728522543E-006
  0.30819999999999997          6.5206872932321858E-006
  0.30930000000000007          6.5638100750220474E-006
  0.31040000000000006          6.6069619606423657E-006
  0.31150000000000005          6.6501615947345272E-006
  0.31260000000000004          6.6934194364876021E-006
  0.31370000000000003          6.7367345764068887E-006
  0.31480000000000002          6.7800965553033166E-006
  0.31590000000000001          6.8235012804507278E-006
  0.31700000000000000          6.8669523898279294E-006
  0.31809999999999999          6.9104580688872375E-006
  0.31919999999999998          6.9540233198495116E-006
  0.32029999999999997          6.9976440499885939E-006
  0.32140000000000007          7.0413098001154140E-006
  0.32250000000000006          7.0850119300303049E-006
  0.32360000000000005          7.1287449827650562E-006
  0.32470000000000004          7.1725053203408606E-006
  0.32580000000000003          7.2162838478107005E-006
  0.32690000000000002          7.2600664680066984E-006
  0.32800000000000001          7.3038409027503803E-006
  0.32910000000000000          7.3475989665894303E-006
  0.33019999999999999          7.3913352025556378E-006
  0.33129999999999998          7.4350405157019850E-006
  0.33239999999999997          7.4786944423976820E-006
  0.33350000000000007          7.5222710620437283E-006
  0.33460000000000006          7.5657458182831760E-006
  0.33570000000000005          7.6091041592007969E-006
  0.33680000000000004          7.6523365351022221E-006
  0.33790000000000003          7.6954302130616270E-006
  0.33900000000000002          7.7383647294482216E-006
  0.34010000000000001          7.7811082519474439E-006
  0.34120000000000000          7.8236280387500301E-006
  0.34229999999999999          7.8658995334990323E-006
  0.34339999999999998          7.9079018178163096E-006
  0.34449999999999997          7.9496121543343179E-006
  0.34560000000000007          7.9910041677067056E-006
  0.34670000000000006          8.0320478446083143E-006
  0.34780000000000005          8.0727095337351784E-006
  0.34890000000000004          8.1129619502462447E-006
