 -0.20000000000000001          0.0000000000000000
 -0.19890000000000002          0.0000000000000000
 -0.19780000000000000          0.0000000000000000
 -0.19670000000000001          0.0000000000000000
 -0.19560000000000002          0.0000000000000000
 -0.19450000000000001          0.0000000000000000
 -0.19340000000000002          0.0000000000000000
 -0.19230000000000000          0.0000000000000000
 -0.19120000000000001          4.0557503882669708E-027
 -0.19010000000000002         -1.3859186013548943E-026
 -0.18900000000000000         -9.7766496375410394E-026
 -0.18790000000000001          4.1168387598762753E-025
 -0.18680000000000002          2.7448079931280387E-024
 -0.18570000000000000         -2.9789811063238632E-025
 -0.18460000000000001         -3.3187791645762302E-023
 -0.18350000000000000         -7.3322002122087714E-023
 -0.18240000000000001          1.0747218829500155E-022
 -0.18130000000000002          7.6562139111933737E-022
 -0.18020000000000000          9.6728230932027937E-022
 -0.17910000000000001         -2.4455564517871503E-021
 -0.17800000000000002         -1.0495560841137617E-020
 -0.17690000000000000         -9.9123912391456296E-021
 -0.17580000000000001          2.8585523431674267E-020
 -0.17470000000000002          1.0336171053475604E-019
 -0.17360000000000000          9.4463554202112664E-020
 -0.17250000000000001         -2.1384729437527483E-019
 -0.17140000000000000         -7.8651310491747062E-019
 -0.17030000000000001         -8.1551741761481827E-019
 -0.16920000000000002          1.0601080556030598E-018
 -0.16810000000000000          4.7523230183233299E-018
 -0.16700000000000001          5.9449350682997279E-018
 -0.16589999999999999         -2.8732019315355910E-018
 -0.16480000000000000         -2.2860888196440307E-017
 -0.16370000000000001         -3.5372751004384724E-017
 -0.16260000000000002         -4.2783373603921756E-018
 -0.16150000000000000          8.5691557181749188E-017
 -0.16040000000000001          1.7013925971534524E-016
 -0.15930000000000000          9.9345748143823211E-017
 -0.15820000000000001         -2.3215524016971187E-016
 -0.15710000000000002         -6.5699184111493746E-016
 -0.15600000000000000         -6.4825739618152873E-016
 -0.15490000000000001          3.2019094779809753E-016
 -0.15379999999999999          1.9956748452680702E-015
 -0.15270000000000000          2.8346758026000316E-015
 -0.15160000000000001          7.7544855175550411E-016
 -0.15050000000000002         -4.4769223389779823E-015
 -0.14940000000000001         -9.3017134860967805E-015
 -0.14830000000000002         -7.1587226706422424E-015
 -0.14720000000000000          5.7294447811594932E-015
 -0.14610000000000001          2.3231286347207523E-014
 -0.14500000000000002          2.8468909494356806E-014
 -0.14390000000000000          5.3868843284991200E-015
 -0.14280000000000001         -4.1724263611210913E-014
 -0.14169999999999999         -7.8087825105838810E-014
 -0.14060000000000000         -5.6198620111908362E-014
 -0.13950000000000001          3.9927849031619680E-014
 -0.13840000000000002          1.5674924737103108E-013
 -0.13730000000000001          1.8565322348028379E-013
 -0.13619999999999999          4.5470951223064437E-014
 -0.13510000000000000         -2.1713151567535893E-013
 -0.13400000000000001         -4.0670066056222587E-013
 -0.13290000000000002         -3.0129693770301891E-013
 -0.13180000000000000          1.3737132904725197E-013
 -0.13070000000000001          6.4030372800769064E-013
 -0.12959999999999999          7.5988352979741713E-013
 -0.12850000000000000          2.3152112822374948E-013
 -0.12740000000000001         -6.9661924883071547E-013
 -0.12630000000000002         -1.3069899979997746E-012
 -0.12520000000000001         -9.2994947679947426E-013
 -0.12410000000000000          3.9906015232744896E-013
 -0.12300000000000001          1.7370018184220681E-012
 -0.12190000000000001          1.8396378170804084E-012
 -0.12080000000000000          2.5566319352375577E-013
 -0.11970000000000000         -1.9961567121473678E-012
 -0.11860000000000001         -2.9541037584873697E-012
 -0.11750000000000001         -1.3075412063842662E-012
 -0.11640000000000000          2.1518817543836333E-012
 -0.11530000000000000          4.6511600994281199E-012
 -0.11420000000000001          3.4687118628806690E-012
 -0.11310000000000001         -1.4956918082537074E-012
 -0.11200000000000000         -6.8623184391880532E-012
 -0.11090000000000001         -7.8679745010856728E-012
 -0.10980000000000001         -2.2598810843488248E-012
 -0.10870000000000000          7.0720213539432475E-012
 -0.10760000000000000          1.3336369335259501E-011
 -0.10650000000000001          1.0694599719696107E-011
 -0.10540000000000001         -7.2610434375189326E-013
 -0.10430000000000000         -1.3862140602061146E-011
 -0.10320000000000000         -1.9234204506890507E-011
 -0.10210000000000001         -1.2019055022072234E-011
 -0.10100000000000001          3.7555648695064558E-012
  -9.9900000000000003E-002     1.7566358090359557E-011
  -9.8799999999999999E-002     1.9993539809859406E-011
  -9.7700000000000009E-002     9.8915936205812294E-012
  -9.6600000000000005E-002    -4.6250230208155774E-012
  -9.5500000000000002E-002    -1.2534816934417492E-011
  -9.4400000000000012E-002    -8.8756961849623117E-012
  -9.3300000000000008E-002     8.8001085368424881E-013
  -9.2200000000000004E-002     5.0884639384018993E-012
  -9.1100000000000000E-002    -3.8214036969519416E-012
  -9.0000000000000011E-002    -2.1023028803912602E-011
  -8.8900000000000007E-002    -3.0334974115975299E-011
  -8.7800000000000003E-002    -1.5666436897765479E-011
  -8.6699999999999999E-002     2.4311498994511460E-011
  -8.5600000000000009E-002     6.9500218080609244E-011
  -8.4500000000000006E-002     8.7121684866353633E-011
  -8.3400000000000002E-002     5.3020837720296754E-011
  -8.2299999999999998E-002    -2.7639640576282432E-011
  -8.1200000000000008E-002    -1.1604886496208167E-010
  -8.0100000000000005E-002    -1.5875381564889324E-010
  -7.9000000000000001E-002    -1.2096845747322504E-010
  -7.7899999999999997E-002    -1.2672410863723282E-011
  -7.6800000000000007E-002     1.1248305759048449E-010
  -7.5700000000000003E-002     1.8824290737295968E-010
  -7.4600000000000000E-002     1.7739029689600727E-010
  -7.3500000000000010E-002     9.4358035274133556E-011
  -7.2399999999999992E-002    -8.7865114489771301E-012
  -7.1300000000000002E-002    -8.2954414171165780E-011
  -7.0200000000000012E-002    -1.1692720403022605E-010
  -6.9099999999999995E-002    -1.3690343303451868E-010
  -6.8000000000000005E-002    -1.6968264293648616E-010
  -6.6900000000000015E-002    -2.0139691303544538E-010
  -6.5799999999999997E-002    -1.7247167583001044E-010
  -6.4700000000000008E-002    -2.2903271293395200E-011
  -6.3599999999999990E-002     2.4170029866432685E-010
  -6.2500000000000000E-002     5.1792886646140346E-010
  -6.1400000000000010E-002     6.4322319692777796E-010
  -6.0299999999999992E-002     4.9137832691670269E-010
  -5.9200000000000003E-002     6.4478297701064946E-011
  -5.8100000000000013E-002    -4.8385240258852491E-010
  -5.6999999999999995E-002    -9.1587171180407267E-010
  -5.5900000000000005E-002    -1.0296319352676164E-009
  -5.4800000000000015E-002    -7.5963357826225320E-010
  -5.3699999999999998E-002    -2.0217152951751416E-010
  -5.2600000000000008E-002     4.4018191869277246E-010
  -5.1499999999999990E-002     9.5314311998606627E-010
  -5.0400000000000000E-002     1.1893191986800389E-009
  -4.9300000000000010E-002     1.0993184140772883E-009
  -4.8199999999999993E-002     7.2056921540664121E-010
  -4.7100000000000003E-002     1.5082565751889376E-010
  -4.6000000000000013E-002    -4.7186776708230127E-010
  -4.4899999999999995E-002    -9.8337615828114622E-010
  -4.3800000000000006E-002    -1.2206012867110871E-009
  -4.2699999999999988E-002    -1.0770342395716170E-009
  -4.1599999999999998E-002    -5.7626320382198060E-010
  -4.0500000000000008E-002     7.9005413322619233E-011
  -3.9399999999999991E-002     5.3607257521903762E-010
  -3.8300000000000001E-002     4.2370862374241369E-010
  -3.7200000000000011E-002    -4.5446252316949654E-010
  -3.6099999999999993E-002    -1.9670165496421532E-009
  -3.5000000000000003E-002    -3.6522809221395391E-009
  -3.3900000000000013E-002    -4.9039767802128154E-009
  -3.2799999999999996E-002    -5.2622395330104155E-009
  -3.1700000000000006E-002    -4.6413073384599102E-009
  -3.0599999999999988E-002    -3.3486817763161980E-009
  -2.9499999999999998E-002    -1.8848342886457203E-009
  -2.8400000000000009E-002    -6.6728816916494793E-010
  -2.7299999999999991E-002     1.2334186449969309E-010
  -2.6200000000000001E-002     4.7806364422697811E-010
  -2.5100000000000011E-002     3.6119288115976644E-010
  -2.3999999999999994E-002    -4.1658995697524404E-010
  -2.2900000000000004E-002    -2.1027228847003698E-009
  -2.1800000000000014E-002    -4.7263215563475569E-009
  -2.0699999999999996E-002    -7.8601818387369349E-009
  -1.9600000000000006E-002    -1.0650995641015015E-008
  -1.8499999999999989E-002    -1.2168492879993664E-008
  -1.7399999999999999E-002    -1.1887921758102493E-008
  -1.6300000000000009E-002    -1.0008150752582878E-008
  -1.5199999999999991E-002    -7.4047625808759676E-009
  -1.4100000000000001E-002    -5.2481969881057466E-009
  -1.3000000000000012E-002    -4.5127745984530065E-009
  -1.1899999999999994E-002    -5.6360511813124958E-009
  -1.0800000000000004E-002    -8.4615505713259154E-009
  -9.6999999999999864E-003    -1.2420652950595468E-008
  -8.5999999999999965E-003    -1.6800983715370421E-008
  -7.5000000000000067E-003    -2.0956196777888181E-008
  -6.3999999999999890E-003    -2.4399435361033284E-008
  -5.2999999999999992E-003    -2.6817664533496099E-008
  -4.2000000000000093E-003    -2.8087812964372461E-008
  -3.0999999999999917E-003    -2.8347653113769411E-008
  -2.0000000000000018E-003    -2.8092410175872828E-008
  -9.0000000000001190E-004    -2.8185640488231911E-008
   2.0000000000000573E-004    -2.9662533762575549E-008
   1.2999999999999956E-003    -3.3311515323930507E-008
   2.4000000000000132E-003    -3.9207371571592375E-008
   3.5000000000000031E-003    -4.6502606210196973E-008
   4.5999999999999930E-003    -5.3718210324404936E-008
   5.7000000000000106E-003    -5.9487845760486380E-008
   6.8000000000000005E-003    -6.3367174618633726E-008
   7.8999999999999904E-003    -6.6189024039431388E-008
   9.0000000000000080E-003    -6.9676183045430662E-008
   1.0099999999999998E-002    -7.5497084139897197E-008
   1.1199999999999988E-002    -8.4334814687281323E-008
   1.2300000000000005E-002    -9.5542084466160304E-008
   1.3399999999999995E-002    -1.0756451729321270E-007
   1.4500000000000013E-002    -1.1882202244350992E-007
   1.5600000000000003E-002    -1.2850283326315548E-007
   1.6699999999999993E-002    -1.3687460409528285E-007
   1.7800000000000010E-002    -1.4507793366647093E-007
   1.8900000000000000E-002    -1.5463832880868722E-007
   1.9999999999999990E-002    -1.6695329918547941E-007
   2.1100000000000008E-002    -1.8287619241164066E-007
   2.2199999999999998E-002    -2.0242806897385890E-007
   2.3300000000000015E-002    -2.2470553062703402E-007
   2.4400000000000005E-002    -2.4810705667732691E-007
   2.5499999999999995E-002    -2.7092028176411986E-007
   2.6600000000000013E-002    -2.9208752039266983E-007
   2.7700000000000002E-002    -3.1177833648143860E-007
   2.8799999999999992E-002    -3.3143760447273962E-007
   2.9900000000000010E-002    -3.5325359704074799E-007
   3.1000000000000000E-002    -3.7930192320345668E-007
   3.2099999999999990E-002    -4.1075807644119777E-007
   3.3200000000000007E-002    -4.4748554728357703E-007
   3.4299999999999997E-002    -4.8811523356562247E-007
   3.5400000000000015E-002    -5.3058261073601898E-007
   3.6500000000000005E-002    -5.7298450428788783E-007
   3.7599999999999995E-002    -6.1449128452295554E-007
   3.8700000000000012E-002    -6.5591967768341419E-007
   3.9800000000000002E-002    -6.9958412041160045E-007
   4.0899999999999992E-002    -7.4834645147348056E-007
   4.2000000000000010E-002    -8.0427099646840361E-007
   4.3099999999999999E-002    -8.6762804585305275E-007
   4.4200000000000017E-002    -9.3685019919576007E-007
   4.5300000000000007E-002    -1.0094606750499224E-006
   4.6399999999999997E-002    -1.0833739452209556E-006
   4.7500000000000014E-002    -1.1577984651012230E-006
   4.8600000000000004E-002    -1.2333674703768338E-006
   4.9699999999999994E-002    -1.3116948593960842E-006
   5.0800000000000012E-002    -1.3948110790806822E-006
   5.1900000000000002E-002    -1.4847364582237788E-006
   5.2999999999999992E-002    -1.5831193422854994E-006
   5.4099999999999981E-002    -1.6907879398786463E-006
   5.5200000000000027E-002    -1.8073308183375048E-006
   5.6300000000000017E-002    -1.9310969037178438E-006
   5.7400000000000007E-002    -2.0598779428837588E-006
   5.8499999999999996E-002    -2.1920307062828215E-006
   5.9599999999999986E-002    -2.3273755687114317E-006
   6.0700000000000032E-002    -2.4672731342434417E-006
   6.1800000000000022E-002    -2.6138789053220535E-006
   6.2900000000000011E-002    -2.7691532977769384E-006
   6.4000000000000001E-002    -2.9342663765419275E-006
   6.5099999999999991E-002    -3.1095705708139576E-006
   6.6199999999999981E-002    -3.2948380521702347E-006
   6.7300000000000026E-002    -3.4894342206825968E-006
   6.8400000000000016E-002    -3.6924100186297437E-006
   6.9500000000000006E-002    -3.9027872844599187E-006
   7.0599999999999996E-002    -4.1201592466677539E-006
   7.1699999999999986E-002    -4.3452218960737810E-006
   7.2800000000000031E-002    -4.5796909944328945E-006
   7.3900000000000021E-002    -4.8254628381982911E-006
   7.5000000000000011E-002    -5.0835683396144304E-006
   7.6100000000000001E-002    -5.3537628446065355E-006
   7.7199999999999991E-002    -5.6350268096139189E-006
   7.8299999999999981E-002    -5.9265603340463713E-006
   7.9400000000000026E-002    -6.2283684201247524E-006
   8.0500000000000016E-002    -6.5410035858803894E-006
   8.1600000000000006E-002    -6.8649014792754315E-006
   8.2699999999999996E-002    -7.2000239015324041E-006
   8.3799999999999986E-002    -7.5462239692569710E-006
   8.4900000000000031E-002    -7.9038363764993846E-006
   8.6000000000000021E-002    -8.2737460616044700E-006
   8.7100000000000011E-002    -8.6568343249382451E-006
   8.8200000000000001E-002    -9.0533212642185390E-006
   8.9299999999999990E-002    -9.4627166618010961E-006
   9.0399999999999980E-002    -9.8844302556244656E-006
   9.1500000000000026E-002    -1.0318382919649594E-005
   9.2600000000000016E-002    -1.0764977560029365E-005
   9.3700000000000006E-002    -1.1224415175092872E-005
   9.4799999999999995E-002    -1.1696160072460771E-005
   9.5899999999999985E-002    -1.2179229088360444E-005
   9.7000000000000031E-002    -1.2673158380493987E-005
   9.8100000000000021E-002    -1.3178732842789032E-005
   9.9200000000000010E-002    -1.3697566828341223E-005
  0.10030000000000000         -1.4230780834623147E-005
  0.10139999999999999         -1.4778047443542164E-005
  0.10249999999999998         -1.5337836885009892E-005
  0.10360000000000003         -1.5908652130747214E-005
  0.10470000000000002         -1.6490046618855558E-005
  0.10580000000000001         -1.7082404156099074E-005
  0.10690000000000000         -1.7685870261630043E-005
  0.10799999999999998         -1.8299688235856593E-005
  0.10910000000000003         -1.8922728486359119E-005
  0.11020000000000002         -1.9554694517864846E-005
  0.11130000000000001         -2.0196688637952320E-005
  0.11240000000000000         -2.0850411601713859E-005
  0.11349999999999999         -2.1516583728953265E-005
  0.11460000000000004         -2.2194075427250937E-005
  0.11570000000000003         -2.2880494725541212E-005
  0.11680000000000001         -2.3573664293508045E-005
  0.11790000000000000         -2.4272632799693383E-005
  0.11899999999999999         -2.4977383873192593E-005
  0.12009999999999998         -2.5687893867143430E-005
  0.12120000000000003         -2.6403668016428128E-005
  0.12230000000000002         -2.7124422558699735E-005
  0.12340000000000001         -2.7850899641634896E-005
  0.12450000000000000         -2.8584567189682275E-005
  0.12559999999999999         -2.9326167350518517E-005
  0.12670000000000003         -3.0074375899857841E-005
  0.12780000000000002         -3.0826202419120818E-005
  0.12890000000000001         -3.1578718335367739E-005
  0.13000000000000000         -3.2330724934581667E-005
  0.13109999999999999         -3.3082826121244580E-005
  0.13219999999999998         -3.3835822250694036E-005
  0.13330000000000003         -3.4589396818773821E-005
  0.13440000000000002         -3.5342440241947770E-005
  0.13550000000000001         -3.6094701499678195E-005
  0.13660000000000000         -3.6847293813480064E-005
  0.13769999999999999         -3.7601446820190176E-005
  0.13880000000000003         -3.8356811273843050E-005
  0.13990000000000002         -3.9110673242248595E-005
  0.14100000000000001         -3.9859383832663298E-005
  0.14210000000000000         -4.0601007640361786E-005
  0.14319999999999999         -4.1336268623126671E-005
  0.14429999999999998         -4.2066880268976092E-005
  0.14540000000000003         -4.2793450120370835E-005
  0.14650000000000002         -4.3514690332813188E-005
  0.14760000000000001         -4.4228581828065217E-005
  0.14870000000000000         -4.4934527977602556E-005
  0.14979999999999999         -4.5634122216142714E-005
  0.15090000000000003         -4.6329427277669311E-005
  0.15200000000000002         -4.7020581405377015E-005
  0.15310000000000001         -4.7705256292829290E-005
  0.15420000000000000         -4.8380672524217516E-005
  0.15529999999999999         -4.9045745981857181E-005
  0.15639999999999998         -4.9701124225975946E-005
  0.15750000000000003         -5.0347120122751221E-005
  0.15860000000000002         -5.0982227548956871E-005
  0.15970000000000001         -5.1603998144855723E-005
  0.16080000000000000         -5.2211504225851968E-005
  0.16189999999999999         -5.2807085012318566E-005
  0.16300000000000003         -5.3394927817862481E-005
  0.16410000000000002         -5.3977837524143979E-005
  0.16520000000000001         -5.4554686357732862E-005
  0.16630000000000000         -5.5121177865657955E-005
  0.16739999999999999         -5.5673030146863312E-005
  0.16850000000000004         -5.6208638852695003E-005
  0.16960000000000003         -5.6728869822109118E-005
  0.17070000000000002         -5.7234785344917327E-005
  0.17180000000000001         -5.7726210798136890E-005
  0.17290000000000000         -5.8202436775900424E-005
  0.17399999999999999         -5.8664754760684446E-005
  0.17510000000000003         -5.9117312048329040E-005
  0.17620000000000002         -5.9563699323916808E-005
  0.17730000000000001         -6.0003047110512853E-005
  0.17840000000000000         -6.0429712902987376E-005
  0.17949999999999999         -6.0836980992462486E-005
  0.18060000000000004         -6.1222031945362687E-005
  0.18170000000000003         -6.1587503296323121E-005
  0.18280000000000002         -6.1938619182910770E-005
  0.18390000000000001         -6.2278086261358112E-005
  0.18500000000000000         -6.2604114646092057E-005
  0.18609999999999999         -6.2913481087889522E-005
  0.18720000000000003         -6.3205814512912184E-005
  0.18830000000000002         -6.3484651036560535E-005
  0.18940000000000001         -6.3753410358913243E-005
  0.19050000000000000         -6.4010739151854068E-005
  0.19159999999999999         -6.4250220020767301E-005
  0.19270000000000004         -6.4465202740393579E-005
  0.19380000000000003         -6.4654450397938490E-005
  0.19490000000000002         -6.4823929278645664E-005
  0.19600000000000001         -6.4981424657162279E-005
  0.19710000000000000         -6.5128704591188580E-005
  0.19819999999999999         -6.5259948314633220E-005
  0.19930000000000003         -6.5367697970941663E-005
  0.20040000000000002         -6.5450323745608330E-005
  0.20150000000000001         -6.5513420850038528E-005
  0.20260000000000000         -6.5563326643314213E-005
  0.20369999999999999         -6.5599771915003657E-005
  0.20480000000000004         -6.5615546191111207E-005
  0.20590000000000003         -6.5603715484030545E-005
  0.20700000000000002         -6.5564381657168269E-005
  0.20810000000000001         -6.5504653321113437E-005
  0.20920000000000000         -6.5431500843260437E-005
  0.21029999999999999         -6.5343934693373740E-005
  0.21140000000000003         -6.5233893110416830E-005
  0.21250000000000002         -6.5093823650386184E-005
  0.21360000000000001         -6.4923668105620891E-005
  0.21470000000000000         -6.4731088059488684E-005
  0.21579999999999999         -6.4523701439611614E-005
  0.21690000000000004         -6.4301340898964554E-005
  0.21800000000000003         -6.4056483097374439E-005
  0.21910000000000002         -6.3781735661905259E-005
  0.22020000000000001         -6.3476974901277572E-005
  0.22130000000000000         -6.3149935158435255E-005
  0.22239999999999999         -6.2807732319924980E-005
  0.22350000000000003         -6.2448307289741933E-005
  0.22460000000000002         -6.2062026700004935E-005
  0.22570000000000001         -6.1641803767997772E-005
  0.22680000000000000         -6.1190774431452155E-005
  0.22789999999999999         -6.0720049077644944E-005
  0.22900000000000004         -6.0238311561988667E-005
  0.23010000000000003         -5.9743186284322292E-005
  0.23120000000000002         -5.9223759308224544E-005
  0.23230000000000001         -5.8670717407949269E-005
  0.23340000000000000         -5.8085857745027170E-005
  0.23450000000000004         -5.7479934184812009E-005
  0.23560000000000003         -5.6861161283450201E-005
  0.23670000000000002         -5.6228269386338070E-005
  0.23780000000000001         -5.5572738347109407E-005
  0.23890000000000000         -5.4888339946046472E-005
  0.23999999999999999         -5.4177995480131358E-005
  0.24110000000000004         -5.3450439736479893E-005
  0.24220000000000003         -5.2712024626089260E-005
  0.24330000000000002         -5.1960836572106928E-005
  0.24440000000000001         -5.1188409997848794E-005
  0.24550000000000000         -5.0389087846269831E-005
  0.24660000000000004         -4.9567079258849844E-005
  0.24770000000000003         -4.8733450967120007E-005
  0.24880000000000002         -4.7895187890389934E-005
  0.24990000000000001         -4.7048069973243400E-005
  0.25100000000000000         -4.6181943616829813E-005
  0.25209999999999999         -4.5291679271031171E-005
  0.25320000000000004         -4.4382104533724487E-005
  0.25430000000000003         -4.3463311158120632E-005
  0.25540000000000002         -4.2541891161818057E-005
  0.25650000000000001         -4.1614894144004211E-005
  0.25760000000000000         -4.0674040064914152E-005
  0.25870000000000004         -3.9716098399367183E-005
  0.25980000000000003         -3.8747381040593609E-005
  0.26090000000000002         -3.7777401303173974E-005
  0.26200000000000001         -3.6809964512940496E-005
  0.26310000000000000         -3.5839682823279873E-005
  0.26419999999999999         -3.4857352147810161E-005
  0.26530000000000004         -3.3859756513265893E-005
  0.26640000000000003         -3.2853153243195266E-005
  0.26750000000000002         -3.1846404453972355E-005
  0.26860000000000001         -3.0844024877296761E-005
  0.26970000000000000         -2.9844284654245712E-005
  0.27080000000000004         -2.8842288884334266E-005
  0.27190000000000003         -2.7837089874083176E-005
  0.27300000000000002         -2.6832622097572312E-005
  0.27410000000000001         -2.5832117898971774E-005
  0.27520000000000000         -2.4833976567606442E-005
  0.27629999999999999         -2.3834007151890546E-005
  0.27740000000000004         -2.2830392481409945E-005
  0.27850000000000003         -2.1826397642144002E-005
  0.27960000000000002         -2.0827723346883431E-005
  0.28070000000000001         -1.9837609215755947E-005
  0.28179999999999999         -1.8854934751288965E-005
  0.28290000000000004         -1.7876182027976029E-005
  0.28400000000000003         -1.6900656191864982E-005
  0.28510000000000002         -1.5932733731460758E-005
  0.28620000000000001         -1.4976142665545922E-005
  0.28730000000000000         -1.4028714758751448E-005
  0.28840000000000005         -1.3083522389933933E-005
  0.28950000000000004         -1.2135626093368046E-005
  0.29060000000000002         -1.1188681128260214E-005
  0.29170000000000001         -1.0252648280584253E-005
  0.29280000000000000         -9.3336939244181849E-006
  0.29389999999999999         -8.4279354268801399E-006
  0.29500000000000004         -7.5273183028912172E-006
  0.29610000000000003         -6.6288680500292685E-006
  0.29720000000000002         -5.7378847486688755E-006
  0.29830000000000001         -4.8626907300786115E-006
  0.29940000000000000         -4.0052914300758857E-006
  0.30050000000000004         -3.1586748718837043E-006
  0.30160000000000003         -2.3132763544708723E-006
  0.30270000000000002         -1.4666126162410364E-006
  0.30380000000000001         -6.2717367654840928E-007
  0.30490000000000000          1.9404481577112165E-007
  0.30599999999999999          9.9423198207659880E-007
  0.30709999999999998          1.7810087911129813E-006
  0.30819999999999997          2.5636734335421352E-006
  0.30930000000000007          3.3422361411794554E-006
  0.31040000000000006          4.1077473724726588E-006
  0.31150000000000005          4.8517849791096523E-006
  0.31260000000000004          5.5759032875357661E-006
  0.31370000000000003          6.2913240981288254E-006
  0.31480000000000002          7.0072474045446143E-006
  0.31590000000000001          7.7202385000418872E-006
  0.31700000000000000          8.4173871073289774E-006
  0.31809999999999999          9.0890789579134434E-006
  0.31919999999999998          9.7383199317846447E-006
  0.32029999999999997          1.0376959835411981E-005
  0.32140000000000007          1.1011512469849549E-005
  0.32250000000000006          1.1636110684776213E-005
  0.32360000000000005          1.2239312127348967E-005
  0.32470000000000004          1.2815795344067737E-005
  0.32580000000000003          1.3373401998251211E-005
  0.32690000000000002          1.3925443454354536E-005
  0.32800000000000001          1.4476772776106372E-005
  0.32910000000000000          1.5018225894891657E-005
  0.33019999999999999          1.5533903933828697E-005
  0.33129999999999998          1.6016512745409273E-005
  0.33239999999999997          1.6474388758069836E-005
  0.33350000000000007          1.6921632777666673E-005
  0.33460000000000006          1.7363921870128252E-005
  0.33570000000000005          1.7793940060073510E-005
  0.33680000000000004          1.8199918486061506E-005
  0.33790000000000003          1.8577682567411102E-005
  0.33900000000000002          1.8934322724817321E-005
  0.34010000000000001          1.9280507331131957E-005
  0.34120000000000000          1.9617546058725566E-005
  0.34229999999999999          1.9936027456424199E-005
  0.34339999999999998          2.0226323613314889E-005
  0.34449999999999997          2.0488443624344654E-005
  0.34560000000000007          2.0731342374347150E-005
  0.34670000000000006          2.0963138013030402E-005
  0.34780000000000005          2.1183082935749553E-005
  0.34890000000000004          2.1382775230449624E-005
