 -0.20000000000000001          0.0000000000000000
 -0.19890000000000002          0.0000000000000000
 -0.19780000000000000          0.0000000000000000
 -0.19670000000000001          0.0000000000000000
 -0.19560000000000002          0.0000000000000000
 -0.19450000000000001          0.0000000000000000
 -0.19340000000000002          0.0000000000000000
 -0.19230000000000000          0.0000000000000000
 -0.19120000000000001          0.0000000000000000
 -0.19010000000000002          0.0000000000000000
 -0.18900000000000000          0.0000000000000000
 -0.18790000000000001          2.7281830921779569E-032
 -0.18680000000000002          4.7812851859526878E-031
 -0.18570000000000000          1.8724874573005475E-030
 -0.18460000000000001         -5.2948358162167652E-030
 -0.18350000000000000         -6.4995230520242099E-029
 -0.18240000000000001         -1.8286845655583988E-028
 -0.18130000000000002          1.2921884924532760E-028
 -0.18020000000000000          2.3142012730355914E-027
 -0.17910000000000001          6.2526575202715241E-027
 -0.17800000000000002          1.1107777843094050E-027
 -0.17690000000000000         -3.9647424946748964E-026
 -0.17580000000000001         -1.1641293101461171E-025
 -0.17470000000000002         -8.4327967358082644E-026
 -0.17360000000000000          3.9772685581439163E-025
 -0.17250000000000001          1.4221987704462195E-024
 -0.17140000000000000          1.6673868963730647E-024
 -0.17030000000000001         -2.1960871942937497E-024
 -0.16920000000000002         -1.2144740038957275E-023
 -0.16810000000000000         -1.9700892340131955E-023
 -0.16700000000000001          4.4304696412314533E-025
 -0.16589999999999999          7.1925913957351017E-023
 -0.16480000000000000          1.5894840420832310E-022
 -0.16370000000000001          1.1145739999220775E-022
 -0.16260000000000002         -2.6462453923786641E-022
 -0.16150000000000000         -9.0953607547096741E-022
 -0.16040000000000001         -1.1407258875116320E-021
 -0.15930000000000000          2.2089728506386913E-022
 -0.15820000000000001          3.6209778807926935E-021
 -0.15710000000000002          6.8076867477886144E-021
 -0.15600000000000000          4.3219714446659032E-021
 -0.15490000000000001         -8.5880629615447281E-021
 -0.15379999999999999         -2.7624749919019657E-020
 -0.15270000000000000         -3.3564310613933869E-020
 -0.15160000000000001         -7.8975503172542551E-022
 -0.15050000000000002          7.4503653709465428E-020
 -0.14940000000000001          1.4327378255120197E-019
 -0.14830000000000002          1.0936867029372199E-019
 -0.14720000000000000         -9.6314920122325587E-020
 -0.14610000000000001         -4.0056862227855094E-019
 -0.14500000000000002         -5.3907712071841149E-019
 -0.14390000000000000         -1.9710124259398899E-019
 -0.14280000000000001          6.6473909065501724E-019
 -0.14169999999999999          1.5345608637851535E-018
 -0.14060000000000000          1.4883069918827196E-018
 -0.13950000000000001         -1.0053747681660419E-019
 -0.13840000000000002         -2.6753576998057704E-018
 -0.13730000000000001         -4.3071993463253758E-018
 -0.13619999999999999         -2.8625207550808469E-018
 -0.13510000000000000          1.9204670893207426E-018
 -0.13400000000000001          7.1798317640092241E-018
 -0.13290000000000002          8.3119980043136158E-018
 -0.13180000000000000          2.8590130956933158E-018
 -0.13070000000000001         -6.1023127972828418E-018
 -0.12959999999999999         -1.1074622431563118E-017
 -0.12850000000000000         -6.6739409226712869E-018
 -0.12740000000000001          3.3377018957922935E-018
 -0.12630000000000002          6.6749016929527673E-018
 -0.12520000000000001         -5.7183235628168444E-018
 -0.12410000000000000         -2.4861730564726449E-017
 -0.12300000000000001         -2.2620401976952765E-017
 -0.12190000000000001          2.5153788186684222E-017
 -0.12080000000000000          1.0312451432275735E-016
 -0.11970000000000000          1.4277323984611450E-016
 -0.11860000000000001          6.1152317868077563E-017
 -0.11750000000000001         -1.5718373196841310E-016
 -0.11640000000000000         -3.9686900239498709E-016
 -0.11530000000000000         -4.4414871391460723E-016
 -0.11420000000000001         -1.3516867068989399E-016
 -0.11310000000000001          4.6524518119671885E-016
 -0.11200000000000000          1.0093029664871877E-015
 -0.11090000000000001          1.0405611292188316E-015
 -0.10980000000000001          3.3044084055326261E-016
 -0.10870000000000000         -8.6070633542403049E-016
 -0.10760000000000000         -1.8453629195471638E-015
 -0.10650000000000001         -1.9276295122415800E-015
 -0.10540000000000001         -9.1009465605650141E-016
 -0.10430000000000000          7.1482396850079048E-016
 -0.10320000000000000          2.0897628415326042E-015
 -0.10210000000000001          2.6046980988492533E-015
 -0.10100000000000001          2.2719261706855877E-015
  -9.9900000000000003E-002     1.4979158279349622E-015
  -9.8799999999999999E-002     4.5019922907552231E-016
  -9.7700000000000009E-002    -1.2882424568419351E-015
  -9.6600000000000005E-002    -4.2011275643190349E-015
  -9.5500000000000002E-002    -7.6842668038650148E-015
  -9.4400000000000012E-002    -9.3581673849983324E-015
  -9.3300000000000008E-002    -6.0064110023844933E-015
  -9.2200000000000004E-002     3.8446817005543220E-015
  -9.1100000000000000E-002     1.7346001479796869E-014
  -9.0000000000000011E-002     2.7144561622863446E-014
  -8.8900000000000007E-002     2.4842271862117633E-014
  -8.7800000000000003E-002     6.6898018429104728E-015
  -8.6699999999999999E-002    -2.2151602248462673E-014
  -8.5600000000000009E-002    -4.8326807508027037E-014
  -8.4500000000000006E-002    -5.6603115613671970E-014
  -8.3400000000000002E-002    -3.8496139734061838E-014
  -8.2299999999999998E-002     2.0834823039869504E-015
  -8.1200000000000008E-002     4.9815098606461466E-014
  -8.0100000000000005E-002     8.4971255292359826E-014
  -7.9000000000000001E-002     9.2073084454000892E-014
  -7.7899999999999997E-002     6.5417953714654031E-014
  -7.6800000000000007E-002     9.7497769745353603E-015
  -7.5700000000000003E-002    -6.1933287274704152E-014
  -7.4600000000000000E-002    -1.3040701060239995E-013
  -7.3500000000000010E-002    -1.7161607150564112E-013
  -7.2399999999999992E-002    -1.6046245007641374E-013
  -7.1300000000000002E-002    -8.0343494173167745E-014
  -7.0200000000000012E-002     6.2818165654041774E-014
  -6.9099999999999995E-002     2.3004832088759086E-013
  -6.8000000000000005E-002     3.5323838038642252E-013
  -6.6900000000000015E-002     3.5916045528286422E-013
  -6.5799999999999997E-002     2.0699506561930314E-013
  -6.4700000000000008E-002    -7.9111671098634762E-014
  -6.3599999999999990E-002    -4.0362114692160667E-013
  -6.2500000000000000E-002    -6.2984421280928848E-013
  -6.1400000000000010E-002    -6.3791994690115539E-013
  -6.0299999999999992E-002    -3.8432836557342198E-013
  -5.9200000000000003E-002     6.7412282624568914E-014
  -5.8100000000000013E-002     5.6263462855712931E-013
  -5.6999999999999995E-002     9.1294224784099764E-013
  -5.5900000000000005E-002     9.6985776614627595E-013
  -5.4800000000000015E-002     6.8288891251835904E-013
  -5.3699999999999998E-002     1.1994305017509060E-013
  -5.2600000000000008E-002    -5.5336188105672979E-013
  -5.1499999999999990E-002    -1.1231923594326454E-012
  -5.0400000000000000E-002    -1.3883278207615923E-012
  -4.9300000000000010E-002    -1.2188157384393494E-012
  -4.8199999999999993E-002    -6.0374106972474473E-013
  -4.7100000000000003E-002     3.2196730633156367E-013
  -4.6000000000000013E-002     1.2875012471089131E-012
  -4.4899999999999995E-002     1.9483663814268137E-012
  -4.3800000000000006E-002     1.9998707551094341E-012
  -4.2699999999999988E-002     1.3105281833694638E-012
  -4.1599999999999998E-002     1.6954109828288405E-014
  -4.0500000000000008E-002    -1.4787018181097733E-012
  -3.9399999999999991E-002    -2.6310791653022525E-012
  -3.8300000000000001E-002    -2.9562582850445329E-012
  -3.7200000000000011E-002    -2.2325750189539084E-012
  -3.6099999999999993E-002    -6.0589261472593359E-013
  -3.5000000000000003E-002     1.4479322688748519E-012
  -3.3900000000000013E-002     3.2819959857460779E-012
  -3.2799999999999996E-002     4.2858793770916837E-012
  -3.1700000000000006E-002     4.0626772779273068E-012
  -3.0599999999999988E-002     2.5304151135552289E-012
  -2.9499999999999998E-002    -5.4710508584458750E-014
  -2.8400000000000009E-002    -3.1361697093446050E-012
  -2.7299999999999991E-002    -5.9476950274583995E-012
  -2.6200000000000001E-002    -7.6623577274781418E-012
  -2.5100000000000011E-002    -7.5962847123633992E-012
  -2.3999999999999994E-002    -5.4245921990436763E-012
  -2.2900000000000004E-002    -1.3274463993295793E-012
  -2.1800000000000014E-002     4.0160405383182773E-012
  -2.0699999999999996E-002     9.6111564887313428E-012
  -1.9600000000000006E-002     1.4444630387633328E-011
  -1.8499999999999989E-002     1.7768585214295030E-011
  -1.7399999999999999E-002     1.9253645552885779E-011
  -1.6300000000000009E-002     1.8974327317677897E-011
  -1.5199999999999991E-002     1.7289456324953711E-011
  -1.4100000000000001E-002     1.4728789368700923E-011
  -1.3000000000000012E-002     1.1958174034321090E-011
  -1.1899999999999994E-002     9.7977815097238796E-012
  -1.0800000000000004E-002     9.1878249799948186E-012
  -9.6999999999999864E-003     1.1004345004672622E-011
  -8.5999999999999965E-003     1.5733959274344400E-011
  -7.5000000000000067E-003     2.3153985673207700E-011
  -6.3999999999999890E-003     3.2229389296256628E-011
  -5.2999999999999992E-003     4.1363561881224697E-011
  -4.2000000000000093E-003     4.8950742764786170E-011
  -3.0999999999999917E-003     5.3987054410287172E-011
  -2.0000000000000018E-003     5.6434742295996543E-011
  -9.0000000000001190E-004     5.7157615446223886E-011
   2.0000000000000573E-004     5.7487757609830936E-011
   1.2999999999999956E-003     5.8690781401526948E-011
   2.4000000000000132E-003     6.1629500114346314E-011
   3.5000000000000031E-003     6.6761492167888292E-011
   4.5999999999999930E-003     7.4360871626932834E-011
   5.7000000000000106E-003     8.4705263636575268E-011
   6.8000000000000005E-003     9.8025490502529067E-011
   7.8999999999999904E-003     1.1423446216740629E-010
   9.0000000000000080E-003     1.3266600318306843E-010
   1.0099999999999998E-002     1.5209510040303797E-010
   1.1199999999999988E-002     1.7113642447608157E-010
   1.2300000000000005E-002     1.8884914465555624E-010
   1.3399999999999995E-002     2.0520971033555213E-010
   1.4500000000000013E-002     2.2117609133065486E-010
   1.5600000000000003E-002     2.3831639439642061E-010
   1.6699999999999993E-002     2.5823640448230378E-010
   1.7800000000000010E-002     2.8213367753160412E-010
   1.8900000000000000E-002     3.1067445838139918E-010
   1.9999999999999990E-002     3.4414529559434470E-010
   2.1100000000000008E-002     3.8265537960491258E-010
   2.2199999999999998E-002     4.2618508722114257E-010
   2.3300000000000015E-002     4.7445902762177639E-010
   2.4400000000000005E-002     5.2682103124368496E-010
   2.5499999999999995E-002     5.8233862176848561E-010
   2.6600000000000013E-002     6.4021610235442949E-010
   2.7700000000000002E-002     7.0034966714871416E-010
   2.8799999999999992E-002     7.6369244261798030E-010
   2.9900000000000010E-002     8.3214690693722559E-010
   3.1000000000000000E-002     9.0796076213095489E-010
   3.2099999999999990E-002     9.9291064259432460E-010
   3.3200000000000007E-002     1.0877183598267948E-009
   3.4299999999999997E-002     1.1920353593097843E-009
   3.5400000000000015E-002     1.3050120983848501E-009
   3.6500000000000005E-002     1.4261263281412084E-009
   3.7599999999999995E-002     1.5558019317296612E-009
   3.8700000000000012E-002     1.6954895265541836E-009
   3.9800000000000002E-002     1.8472134932778772E-009
   4.0899999999999992E-002     2.0128951838671583E-009
   4.2000000000000010E-002     2.1938586503011948E-009
   4.3099999999999999E-002     2.3907551494062318E-009
   4.4200000000000017E-002     2.6038664557859192E-009
   4.5300000000000007E-002     2.8335302992843481E-009
   4.6399999999999997E-002     3.0804190309652313E-009
   4.7500000000000014E-002     3.3455587189479274E-009
   4.8600000000000004E-002     3.6301632810875617E-009
   4.9699999999999994E-002     3.9354581815587153E-009
   5.0800000000000012E-002     4.2626235874365648E-009
   5.1900000000000002E-002     4.6128905140108145E-009
   5.2999999999999992E-002     4.9877333374581667E-009
   5.4099999999999981E-002     5.3890691908975441E-009
   5.5200000000000027E-002     5.8193729834954411E-009
   5.6300000000000017E-002     6.2816396528830865E-009
   5.7400000000000007E-002     6.7791323665744585E-009
   5.8499999999999996E-002     7.3149535317895698E-009
   5.9599999999999986E-002     7.8915665113754585E-009
   6.0700000000000032E-002     8.5104963076787499E-009
   6.1800000000000022E-002     9.1724192685660455E-009
   6.2900000000000011E-002     9.8776711254799920E-009
   6.4000000000000001E-002     1.0626981961081583E-008
   6.5099999999999991E-002     1.1422095269608690E-008
   6.6199999999999981E-002     1.2265960691593136E-008
   6.7300000000000026E-002     1.3162424039592224E-008
   6.8400000000000016E-002     1.4115624225041756E-008
   6.9500000000000006E-002     1.5129426600424267E-008
   7.0599999999999996E-002     1.6207183151095705E-008
   7.1699999999999986E-002     1.7351876380189424E-008
   7.2800000000000031E-002     1.8566440829204112E-008
   7.3900000000000021E-002     1.9854020649745507E-008
   7.5000000000000011E-002     2.1217980261667435E-008
   7.6100000000000001E-002     2.2661723164674186E-008
   7.7199999999999991E-002     2.4188514302636577E-008
   7.8299999999999981E-002     2.5801529801583456E-008
   7.9400000000000026E-002     2.7504183819360151E-008
   8.0500000000000016E-002     2.9300528225917333E-008
   8.1600000000000006E-002     3.1195405369999207E-008
   8.2699999999999996E-002     3.3194140769410296E-008
   8.3799999999999986E-002     3.5301802370213409E-008
   8.4900000000000031E-002     3.7522429607861341E-008
   8.6000000000000021E-002     3.9858733202891017E-008
   8.7100000000000011E-002     4.2312514381137589E-008
   8.8200000000000001E-002     4.4885631211855070E-008
   8.9299999999999990E-002     4.7581014683828471E-008
   9.0399999999999980E-002     5.0403116347297328E-008
   9.1500000000000026E-002     5.3357553042587824E-008
   9.2600000000000016E-002     5.6450204510838375E-008
   9.3700000000000006E-002     5.9686328768293606E-008
   9.4799999999999995E-002     6.3070139333376574E-008
   9.5899999999999985E-002     6.6605018389509496E-008
   9.7000000000000031E-002     7.0294021270456142E-008
   9.8100000000000021E-002     7.4140295680535928E-008
   9.9200000000000010E-002     7.8147209592316358E-008
  0.10030000000000000          8.2318258876057371E-008
  0.10139999999999999          8.6657053088856628E-008
  0.10249999999999998          9.1167429161487235E-008
  0.10360000000000003          9.5853607717799605E-008
  0.10470000000000002          1.0072019307472146E-007
  0.10580000000000001          1.0577169717862489E-007
  0.10690000000000000          1.1101184327344527E-007
  0.10799999999999998          1.1644292641221909E-007
  0.10910000000000003          1.2206565713768214E-007
  0.11020000000000002          1.2787970149474859E-007
  0.11130000000000001          1.3388446973294776E-007
  0.11240000000000000          1.4008006132826267E-007
  0.11349999999999999          1.4646752788394224E-007
  0.11460000000000004          1.5304851785913343E-007
  0.11570000000000003          1.5982428180905117E-007
  0.11680000000000001          1.6679476289027662E-007
  0.11790000000000000          1.7395835527622694E-007
  0.11899999999999999          1.8131233048279682E-007
  0.12009999999999998          1.8885410213442810E-007
  0.12120000000000003          1.9658220651308511E-007
  0.12230000000000002          2.0449660098620370E-007
  0.12340000000000001          2.1259795346395549E-007
  0.12450000000000000          2.2088617868121219E-007
  0.12559999999999999          2.2935903132292879E-007
  0.12670000000000003          2.3801175075277570E-007
  0.12780000000000002          2.4683754418219905E-007
  0.12890000000000001          2.5582897933418280E-007
  0.13000000000000000          2.6497903604649764E-007
  0.13109999999999999          2.7428177418187261E-007
  0.13219999999999998          2.8373176519380650E-007
  0.13330000000000003          2.9332343842725095E-007
  0.13440000000000002          3.0305011478048982E-007
  0.13550000000000001          3.1290366564462602E-007
  0.13660000000000000          3.2287459816870978E-007
  0.13769999999999999          3.3295251000708959E-007
  0.13880000000000003          3.4312665775360074E-007
  0.13990000000000002          3.5338644011062570E-007
  0.14100000000000001          3.6372168210618838E-007
  0.14210000000000000          3.7412252140711644E-007
  0.14319999999999999          3.8457883988485264E-007
  0.14429999999999998          3.9507949622930028E-007
  0.14540000000000003          4.0561198488830996E-007
  0.14650000000000002          4.1616252133280796E-007
  0.14760000000000001          4.2671632627389045E-007
  0.14870000000000000          4.3725864884436305E-007
  0.14979999999999999          4.4777533503292943E-007
  0.15090000000000003          4.5825296979273844E-007
  0.15200000000000002          4.6867882019796525E-007
  0.15310000000000001          4.7904018174449448E-007
  0.15420000000000000          4.8932389518085984E-007
  0.15529999999999999          4.9951580649576499E-007
  0.15639999999999998          5.0960039743586094E-007
  0.15750000000000003          5.1956084234916489E-007
  0.15860000000000002          5.2937969030608656E-007
  0.15970000000000001          5.3903920615994139E-007
  0.16080000000000000          5.4852273478900315E-007
  0.16189999999999999          5.5781492847017944E-007
  0.16300000000000003          5.6690208793952479E-007
  0.16410000000000002          5.7577153711463325E-007
  0.16520000000000001          5.8441088413019315E-007
  0.16630000000000000          5.9280745290379855E-007
  0.16739999999999999          6.0094833997936803E-007
  0.16850000000000004          6.0882018715346931E-007
  0.16960000000000003          6.1640969306608895E-007
  0.17070000000000002          6.2370361320063239E-007
  0.17180000000000001          6.3068898725759936E-007
  0.17290000000000000          6.3735359390193480E-007
  0.17399999999999999          6.4368617813670426E-007
  0.17510000000000003          6.4967690605044481E-007
  0.17620000000000002          6.5531776272109710E-007
  0.17730000000000001          6.6060209746865439E-007
  0.17840000000000000          6.6552439648148720E-007
  0.17949999999999999          6.7007999859924894E-007
  0.18060000000000004          6.7426475425236276E-007
  0.18170000000000003          6.7807491177518386E-007
  0.18280000000000002          6.8150694687574287E-007
  0.18390000000000001          6.8455773316600244E-007
  0.18500000000000000          6.8722476953553269E-007
  0.18609999999999999          6.8950686227253755E-007
  0.18720000000000003          6.9140520508881309E-007
  0.18830000000000002          6.9292366333684186E-007
  0.18940000000000001          6.9406900138346828E-007
  0.19050000000000000          6.9484997311519692E-007
  0.19159999999999999          6.9527641244349070E-007
  0.19270000000000004          6.9535826696665026E-007
  0.19380000000000003          6.9510576850007055E-007
  0.19490000000000002          6.9453011519726715E-007
  0.19600000000000001          6.9364398314064601E-007
  0.19710000000000000          6.9246237899278640E-007
  0.19819999999999999          6.9100269683985971E-007
  0.19930000000000003          6.8928460450479179E-007
  0.20040000000000002          6.8732975933016860E-007
  0.20150000000000001          6.8516163764797966E-007
  0.20260000000000000          6.8280468212833512E-007
  0.20369999999999999          6.8028379018869600E-007
  0.20480000000000004          6.7762431399387424E-007
  0.20590000000000003          6.7485251520338352E-007
  0.20700000000000002          6.7199664499639766E-007
  0.20810000000000001          6.6908836515722214E-007
  0.20920000000000000          6.6616303229238838E-007
  0.21029999999999999          6.6325867464911425E-007
  0.21140000000000003          6.6041422996931942E-007
  0.21250000000000002          6.5766846546466695E-007
  0.21360000000000001          6.5505923885211814E-007
  0.21470000000000000          6.5262474890914746E-007
  0.21579999999999999          6.5040450181186316E-007
  0.21690000000000004          6.4844050484680338E-007
  0.21800000000000003          6.4677738009777386E-007
  0.21910000000000002          6.4546219391559134E-007
  0.22020000000000001          6.4454366111021955E-007
  0.22130000000000000          6.4407169020341826E-007
  0.22239999999999999          6.4409658762087929E-007
  0.22350000000000003          6.4466848925803788E-007
  0.22460000000000002          6.4583679204588407E-007
  0.22570000000000001          6.4765049501147587E-007
  0.22680000000000000          6.5015893824238447E-007
  0.22789999999999999          6.5341271238139598E-007
  0.22900000000000004          6.5746411337386235E-007
  0.23010000000000003          6.6236657403351273E-007
  0.23120000000000002          6.6817364086091402E-007
  0.23230000000000001          6.7493772348825587E-007
  0.23340000000000000          6.8271037889644504E-007
  0.23450000000000004          6.9154293669271283E-007
  0.23560000000000003          7.0148712438822258E-007
  0.23670000000000002          7.1259489686781308E-007
  0.23780000000000001          7.2491786795580992E-007
  0.23890000000000000          7.3850685566867469E-007
  0.23999999999999999          7.5341142746765399E-007
  0.24110000000000004          7.6967995710219839E-007
  0.24220000000000003          7.8735911301919259E-007
  0.24330000000000002          8.0649340361560462E-007
  0.24440000000000001          8.2712472249113489E-007
  0.24550000000000000          8.4929308741266141E-007
  0.24660000000000004          8.7303749296552269E-007
  0.24770000000000003          8.9839687689163839E-007
  0.24880000000000002          9.2541017693292815E-007
  0.24990000000000001          9.5411519396293443E-007
  0.25100000000000000          9.8454620456323028E-007
  0.25209999999999999          1.0167325399379479E-006
  0.25320000000000004          1.0506985290703597E-006
  0.25430000000000003          1.0864648629649309E-006
  0.25540000000000002          1.1240500725762104E-006
  0.25650000000000001          1.1634715519903693E-006
  0.25760000000000000          1.2047455584252020E-006
  0.25870000000000004          1.2478863027354237E-006
  0.25980000000000003          1.2929043577969423E-006
  0.26090000000000002          1.3398057490121573E-006
  0.26200000000000001          1.3885918406231212E-006
  0.26310000000000000          1.4392602452062420E-006
  0.26419999999999999          1.4918045962986071E-006
  0.26530000000000004          1.5462156852663611E-006
  0.26640000000000003          1.6024807791836793E-006
  0.26750000000000002          1.6605835071459296E-006
  0.26860000000000001          1.7205031781486468E-006
  0.26970000000000000          1.7822145537138567E-006
  0.27080000000000004          1.8456881889505894E-006
  0.27190000000000003          1.9108906599285547E-006
  0.27300000000000002          1.9777846773649799E-006
  0.27410000000000001          2.0463289729377721E-006
  0.27520000000000000          2.1164789814065443E-006
  0.27629999999999999          2.1881860448047519E-006
  0.27740000000000004          2.2613985493080691E-006
  0.27850000000000003          2.3360621526080649E-006
  0.27960000000000002          2.4121179649227997E-006
  0.28070000000000001          2.4895043679862283E-006
  0.28179999999999999          2.5681542865640949E-006
  0.28290000000000004          2.6479963253223104E-006
  0.28400000000000003          2.7289552235743031E-006
  0.28510000000000002          2.8109511731599923E-006
  0.28620000000000001          2.8939023195562186E-006
  0.28730000000000000          2.9777247618767433E-006
  0.28840000000000005          3.0623336897406261E-006
  0.28950000000000004          3.1476431558985496E-006
  0.29060000000000002          3.2335656214854680E-006
  0.29170000000000001          3.3200110465259058E-006
  0.29280000000000000          3.4068848435708787E-006
  0.29389999999999999          3.4940867408295162E-006
  0.29500000000000004          3.5815137380268425E-006
  0.29610000000000003          3.6690616980195045E-006
  0.29720000000000002          3.7566276205325266E-006
  0.29830000000000001          3.8441107790276874E-006
  0.29940000000000000          3.9314113564614672E-006
  0.30050000000000004          4.0184290810429957E-006
  0.30160000000000003          4.1050602703762706E-006
  0.30270000000000002          4.1911989683285356E-006
  0.30380000000000001          4.2767396735143848E-006
  0.30490000000000000          4.3615787035378162E-006
  0.30599999999999999          4.4456146497395821E-006
  0.30709999999999998          4.5287456487130839E-006
  0.30819999999999997          4.6108716560411267E-006
  0.30930000000000007          4.6918917178118136E-006
  0.31040000000000006          4.7717085180920549E-006
  0.31150000000000005          4.8502261051908135E-006
  0.31260000000000004          4.9273521653958596E-006
  0.31370000000000003          5.0029957492370158E-006
  0.31480000000000002          5.0770672714861576E-006
  0.31590000000000001          5.1494807848939672E-006
  0.31700000000000000          5.2201526159478817E-006
  0.31809999999999999          5.2890027291141450E-006
  0.31919999999999998          5.3559556363325100E-006
  0.32029999999999997          5.4209385780268349E-006
  0.32140000000000007          5.4838828873471357E-006
  0.32250000000000006          5.5447226259275340E-006
  0.32360000000000005          5.6033968576230109E-006
  0.32470000000000004          5.6598473747726530E-006
  0.32580000000000003          5.7140182434523012E-006
  0.32690000000000002          5.7658589867060073E-006
  0.32800000000000001          5.8153223108092789E-006
  0.32910000000000000          5.8623672885005362E-006
  0.33019999999999999          5.9069602684758138E-006
  0.33129999999999998          5.9490739658940583E-006
  0.33239999999999997          5.9886851886403747E-006
  0.33350000000000007          6.0257725635892712E-006
  0.33460000000000006          6.0603169913520105E-006
  0.33570000000000005          6.0923011915292591E-006
  0.33680000000000004          6.1217142501845956E-006
  0.33790000000000003          6.1485498008551076E-006
  0.33900000000000002          6.1728092077828478E-006
  0.34010000000000001          6.1944983826833777E-006
  0.34120000000000000          6.2136277847457677E-006
  0.34229999999999999          6.2302119658852462E-006
  0.34339999999999998          6.2442691159958486E-006
  0.34449999999999997          6.2558196987083647E-006
  0.34560000000000007          6.2648878156323917E-006
  0.34670000000000006          6.2715002968616318E-006
  0.34780000000000005          6.2756889747106470E-006
  0.34890000000000004          6.2774911384622101E-006
