 -0.20000000000000001          0.0000000000000000
 -0.19890000000000002          0.0000000000000000
 -0.19780000000000000          0.0000000000000000
 -0.19670000000000001          0.0000000000000000
 -0.19560000000000002          0.0000000000000000
 -0.19450000000000001          0.0000000000000000
 -0.19340000000000002          0.0000000000000000
 -0.19230000000000000          3.3070017868056426E-023
 -0.19120000000000001          2.6780555457385410E-022
 -0.19010000000000002          7.5486541782705543E-022
 -0.18900000000000000         -3.2120421820231202E-022
 -0.18790000000000001         -8.7044547054317550E-021
 -0.18680000000000002         -2.7056061632302317E-020
 -0.18570000000000000         -2.7957722427314929E-020
 -0.18460000000000001          6.8497437120581074E-020
 -0.18350000000000000          3.2144499682691492E-019
 -0.18240000000000001          5.3097669607604454E-019
 -0.18130000000000002          3.5128470378180431E-020
 -0.18020000000000000         -1.8717926801508254E-018
 -0.17910000000000001         -4.4848785690823787E-018
 -0.17800000000000002         -4.1819836403292424E-018
 -0.17690000000000000          4.2773526018729312E-018
 -0.17580000000000001          2.1293088113715476E-017
 -0.17470000000000002          3.3923441235685664E-017
 -0.17360000000000000          1.6275021743080910E-017
 -0.17250000000000001         -4.9931510288399786E-017
 -0.17140000000000000         -1.3984124853408354E-016
 -0.17030000000000001         -1.6755034321673187E-016
 -0.16920000000000002         -2.8582885268357499E-017
 -0.16810000000000000          2.9179490939522596E-016
 -0.16700000000000001          6.1697631062074981E-016
 -0.16589999999999999          6.0960368290828917E-016
 -0.16480000000000000          3.0134917634245845E-018
 -0.16370000000000001         -1.0749825364919966E-015
 -0.16260000000000002         -1.9662101689231189E-015
 -0.16150000000000000         -1.7834577283553201E-015
 -0.16040000000000001         -8.5386215039153814E-017
 -0.15930000000000000          2.5408316028680423E-015
 -0.15820000000000001          4.5627449877432089E-015
 -0.15710000000000002          4.4023381233569258E-015
 -0.15600000000000000          1.5850774240315610E-015
 -0.15490000000000001         -2.8011951312939109E-015
 -0.15379999999999999         -6.8089408385900527E-015
 -0.15270000000000000         -8.9093246262482786E-015
 -0.15160000000000001         -8.5992555104116332E-015
 -0.15050000000000002         -5.6936385808966858E-015
 -0.14940000000000001          7.5983254646080542E-016
 -0.14830000000000002          1.2005960190863280E-014
 -0.14720000000000000          2.6714206205220165E-014
 -0.14610000000000001          3.7791411710078049E-014
 -0.14500000000000002          3.3084903631845630E-014
 -0.14390000000000000          2.6235344175302945E-015
 -0.14280000000000001         -5.0420466277600537E-014
 -0.14169999999999999         -1.0336350509234163E-013
 -0.14060000000000000         -1.2055334757798269E-013
 -0.13950000000000001         -7.3407297222164575E-014
 -0.13840000000000002          3.6612531582880248E-014
 -0.13730000000000001          1.6843315208282111E-013
 -0.13619999999999999          2.5567273450287364E-013
 -0.13510000000000000          2.4004206283269325E-013
 -0.13400000000000001          1.0509975322762349E-013
 -0.13290000000000002         -1.1014111037056448E-013
 -0.13180000000000000         -3.2573583045279741E-013
 -0.13070000000000001         -4.5394902572180873E-013
 -0.12959999999999999         -4.3234833031410846E-013
 -0.12850000000000000         -2.4331594681778479E-013
 -0.12740000000000001          8.0765045530357266E-014
 -0.12630000000000002          4.5992029629182696E-013
 -0.12520000000000001          7.7451294076130717E-013
 -0.12410000000000000          8.8679904348618055E-013
 -0.12300000000000001          6.8556710872483273E-013
 -0.12190000000000001          1.4802731523183565E-013
 -0.12080000000000000         -6.1011813006286997E-013
 -0.11970000000000000         -1.3361267387629328E-012
 -0.11860000000000001         -1.7154999209373356E-012
 -0.11750000000000001         -1.5027736000039482E-012
 -0.11640000000000000         -6.5030511357810905E-013
 -0.11530000000000000          6.3254214149530141E-013
 -0.11420000000000001          1.9283572134931593E-012
 -0.11310000000000001          2.7547434819363836E-012
 -0.11200000000000000          2.7419995527605545E-012
 -0.11090000000000001          1.7726125471975718E-012
 -0.10980000000000001          3.2506559699855761E-014
 -0.10870000000000000         -2.0343208454592920E-012
 -0.10760000000000000         -3.8403156522870407E-012
 -0.10650000000000001         -4.7970100114369529E-012
 -0.10540000000000001         -4.4527753879919363E-012
 -0.10430000000000000         -2.6078653125871654E-012
 -0.10320000000000000          6.0511556702891323E-013
 -0.10210000000000001          4.6956731038216848E-012
 -0.10100000000000001          8.8763571146066589E-012
  -9.9900000000000003E-002     1.2233790369631237E-011
  -9.8799999999999999E-002     1.3992799106909981E-011
  -9.7700000000000009E-002     1.3795519414327995E-011
  -9.6600000000000005E-002     1.1874706079550990E-011
  -9.5500000000000002E-002     9.0184699985673689E-012
  -9.4400000000000012E-002     6.3123317337043794E-012
  -9.3300000000000008E-002     4.7614421086472625E-012
  -9.2200000000000004E-002     4.9669057929080385E-012
  -9.1100000000000000E-002     7.0006036557990203E-012
  -9.0000000000000011E-002     1.0504946738876253E-011
  -8.8900000000000007E-002     1.4915927867842349E-011
  -8.7800000000000003E-002     1.9659133695948405E-011
  -8.6699999999999999E-002     2.4229505554695940E-011
  -8.5600000000000009E-002     2.8181809316740747E-011
  -8.4500000000000006E-002     3.1132742217554465E-011
  -8.3400000000000002E-002     3.2848185976819266E-011
  -8.2299999999999998E-002     3.3388410092261012E-011
  -8.1200000000000008E-002     3.3200834442803639E-011
  -8.0100000000000005E-002     3.3059596726836560E-011
  -7.9000000000000001E-002     3.3848892438959055E-011
  -7.7899999999999997E-002     3.6293752725402584E-011
  -7.6800000000000007E-002     4.0773450588060811E-011
  -7.5700000000000003E-002     4.7289849119946936E-011
  -7.4600000000000000E-002     5.5562474760018077E-011
  -7.3500000000000010E-002     6.5162590601186565E-011
  -7.2399999999999992E-002     7.5614889349928660E-011
  -7.1300000000000002E-002     8.6456002079682293E-011
  -7.0200000000000012E-002     9.7284208466774658E-011
  -6.9099999999999995E-002     1.0783018922211340E-010
  -6.8000000000000005E-002     1.1803832911105872E-010
  -6.6900000000000015E-002     1.2811407490431748E-010
  -6.5799999999999997E-002     1.3849395241738449E-010
  -6.4700000000000008E-002     1.4973067230528159E-010
  -6.3599999999999990E-002     1.6233399346976540E-010
  -6.2500000000000000E-002     1.7664153473262445E-010
  -6.1400000000000010E-002     1.9279408625116901E-010
  -6.0299999999999992E-002     2.1084593793130324E-010
  -5.9200000000000003E-002     2.3096219381457672E-010
  -5.8100000000000013E-002     2.5358010136145026E-010
  -5.6999999999999995E-002     2.7939867086601566E-010
  -5.5900000000000005E-002     3.0914468207576817E-010
  -5.4800000000000015E-002     3.4321340214304996E-010
  -5.3699999999999998E-002     3.8139827407412952E-010
  -5.2600000000000008E-002     4.2290637658481955E-010
  -5.1499999999999990E-002     4.6669512698827020E-010
  -5.0400000000000000E-002     5.1196291650512649E-010
  -4.9300000000000010E-002     5.5853194291799468E-010
  -4.8199999999999993E-002     6.0694249626180863E-010
  -4.7100000000000003E-002     6.5826605277763406E-010
  -4.6000000000000013E-002     7.1378769561647459E-010
  -4.4899999999999995E-002     7.7471279391616577E-010
  -4.3800000000000006E-002     8.4195495020367161E-010
  -4.2699999999999988E-002     9.1598933993353171E-010
  -4.1599999999999998E-002     9.9678276743730976E-010
  -4.0500000000000008E-002     1.0838896447040725E-009
  -3.9399999999999991E-002     1.1767965490960819E-009
  -3.8300000000000001E-002     1.2754546308002546E-009
  -3.7200000000000011E-002     1.3807485155226118E-009
  -3.6099999999999993E-002     1.4945914506014901E-009
  -3.5000000000000003E-002     1.6195078611502822E-009
  -3.3900000000000013E-002     1.7578724031963588E-009
  -3.2799999999999996E-002     1.9111840998675689E-009
  -3.1700000000000006E-002     2.0797237265668400E-009
  -3.0599999999999988E-002     2.2627064666380647E-009
  -2.9499999999999998E-002     2.4587785141250151E-009
  -2.8400000000000009E-002     2.6666193697622020E-009
  -2.7299999999999991E-002     2.8854598710381651E-009
  -2.6200000000000001E-002     3.1154436808122909E-009
  -2.5100000000000011E-002     3.3577771674231371E-009
  -2.3999999999999994E-002     3.6146048376650697E-009
  -2.2900000000000004E-002     3.8885734632287949E-009
  -2.1800000000000014E-002     4.1821919261053608E-009
  -2.0699999999999996E-002     4.4972523483011173E-009
  -1.9600000000000006E-002     4.8345838443708544E-009
  -1.8499999999999989E-002     5.1942614653910368E-009
  -1.7399999999999999E-002     5.5761240069784890E-009
  -1.6300000000000009E-002     5.9803260121782387E-009
  -1.5199999999999991E-002     6.4077001482587548E-009
  -1.4100000000000001E-002     6.8598642322115211E-009
  -1.3000000000000012E-002     7.3391408506040534E-009
  -1.1899999999999994E-002     7.8483317622612958E-009
  -1.0800000000000004E-002     8.3903639591653700E-009
  -9.6999999999999864E-003     8.9678389159075778E-009
  -8.5999999999999965E-003     9.5826244717045483E-009
  -7.5000000000000067E-003     1.0235712721851087E-008
  -6.3999999999999890E-003     1.0927442950503519E-008
  -5.2999999999999992E-003     1.1657988352453685E-008
  -4.2000000000000093E-003     1.2427816997728769E-008
  -3.0999999999999917E-003     1.3237899665341502E-008
  -2.0000000000000018E-003     1.4089667210726020E-008
  -9.0000000000001190E-004     1.4984895102543305E-008
   2.0000000000000573E-004     1.5925685659112787E-008
   1.2999999999999956E-003     1.6914512457333331E-008
   2.4000000000000132E-003     1.7954135955733364E-008
   3.5000000000000031E-003     1.9047289967488723E-008
   4.5999999999999930E-003     2.0196271321992754E-008
   5.7000000000000106E-003     2.1402744465603973E-008
   6.8000000000000005E-003     2.2667942189968926E-008
   7.8999999999999904E-003     2.3993123932086746E-008
   9.0000000000000080E-003     2.5379975454598025E-008
   1.0099999999999998E-002     2.6830662136489991E-008
   1.1199999999999988E-002     2.8347626468416820E-008
   1.2300000000000005E-002     2.9933342915455796E-008
   1.3399999999999995E-002     3.1590285942684204E-008
   1.4500000000000013E-002     3.3321011727593941E-008
   1.5600000000000003E-002     3.5128110198456852E-008
   1.6699999999999993E-002     3.7013943909869340E-008
   1.7800000000000010E-002     3.8980292771384484E-008
   1.8900000000000000E-002     4.1028261676956390E-008
   1.9999999999999990E-002     4.3158632223594395E-008
   2.1100000000000008E-002     4.5372456014547424E-008
   2.2199999999999998E-002     4.7671477432231768E-008
   2.3300000000000015E-002     5.0058108769235332E-008
   2.4400000000000005E-002     5.2535025218958253E-008
   2.5499999999999995E-002     5.5104798946103983E-008
   2.6600000000000013E-002     5.7769785399841567E-008
   2.7700000000000002E-002     6.0532300949489581E-008
   2.8799999999999992E-002     6.3394807625627436E-008
   2.9900000000000010E-002     6.6359831407680758E-008
   3.1000000000000000E-002     6.9429830773515278E-008
   3.2099999999999990E-002     7.2607029721893923E-008
   3.3200000000000007E-002     7.5893581197306048E-008
   3.4299999999999997E-002     7.9291737620224012E-008
   3.5400000000000015E-002     8.2803992995650333E-008
   3.6500000000000005E-002     8.6432891066579032E-008
   3.7599999999999995E-002     9.0180805045747547E-008
   3.8700000000000012E-002     9.4049809717944299E-008
   3.9800000000000002E-002     9.8041851970265270E-008
   4.0899999999999992E-002     1.0215907764177246E-007
   4.2000000000000010E-002     1.0640402337003252E-007
   4.3099999999999999E-002     1.1077965211825358E-007
   4.4200000000000017E-002     1.1528917553960127E-007
   4.5300000000000007E-002     1.1993596160664310E-007
   4.6399999999999997E-002     1.2472348487335694E-007
   4.7500000000000014E-002     1.2965537621312251E-007
   4.8600000000000004E-002     1.3473534465902048E-007
   4.9699999999999994E-002     1.3996718450925982E-007
   5.0800000000000012E-002     1.4535476111632306E-007
   5.1900000000000002E-002     1.5090218141722289E-007
   5.2999999999999992E-002     1.5661399288546818E-007
   5.4099999999999981E-002     1.6249533985046583E-007
   5.5200000000000027E-002     1.6855186402153777E-007
   5.6300000000000017E-002     1.7478950553595496E-007
   5.7400000000000007E-002     1.8121444611551851E-007
   5.8499999999999996E-002     1.8783315169912385E-007
   5.9599999999999986E-002     1.9465250034045312E-007
   6.0700000000000032E-002     2.0167966852113750E-007
   6.1800000000000022E-002     2.0892187535537232E-007
   6.2900000000000011E-002     2.1638626890307933E-007
   6.4000000000000001E-002     2.2408011091101798E-007
   6.5099999999999991E-002     2.3201118892757222E-007
   6.6199999999999981E-002     2.4018831368266547E-007
   6.7300000000000026E-002     2.4862140435288893E-007
   6.8400000000000016E-002     2.5732137487466389E-007
   6.9500000000000006E-002     2.6629965077518136E-007
   7.0599999999999996E-002     2.7556808390727383E-007
   7.1699999999999986E-002     2.8513906613625295E-007
   7.2800000000000031E-002     2.9502575671358500E-007
   7.3900000000000021E-002     3.0524179805979657E-007
   7.5000000000000011E-002     3.1580111681250855E-007
   7.6100000000000001E-002     3.2671775329617958E-007
   7.7199999999999991E-002     3.3800594678723428E-007
   7.8299999999999981E-002     3.4968084605679906E-007
   7.9400000000000026E-002     3.6175876516608696E-007
   8.0500000000000016E-002     3.7425732557494484E-007
   8.1600000000000006E-002     3.8719500139450247E-007
   8.2699999999999996E-002     4.0059055095298390E-007
   8.3799999999999986E-002     4.1446264731348492E-007
   8.4900000000000031E-002     4.2883010564764845E-007
   8.6000000000000021E-002     4.4371199692250229E-007
   8.7100000000000011E-002     4.5912781843071571E-007
   8.8200000000000001E-002     4.7509766432085598E-007
   8.9299999999999990E-002     4.9164225401909789E-007
   9.0399999999999980E-002     5.0878298907264252E-007
   9.1500000000000026E-002     5.2654206683655502E-007
   9.2600000000000016E-002     5.4494222467837972E-007
   9.3700000000000006E-002     5.6400671155643067E-007
   9.4799999999999995E-002     5.8375883327244082E-007
   9.5899999999999985E-002     6.0422155456762994E-007
   9.7000000000000031E-002     6.2541778333979892E-007
   9.8100000000000021E-002     6.4737025695649209E-007
   9.9200000000000010E-002     6.7010176962867263E-007
  0.10030000000000000          6.9363500188046601E-007
  0.10139999999999999          7.1799246370574110E-007
  0.10249999999999998          7.4319677878520451E-007
  0.10360000000000003          7.6927068448640057E-007
  0.10470000000000002          7.9623657711636042E-007
  0.10580000000000001          8.2411617086108890E-007
  0.10690000000000000          8.5293027041188907E-007
  0.10799999999999998          8.8269848674826790E-007
  0.10910000000000003          9.1343952135503059E-007
  0.11020000000000002          9.4517145043937489E-007
  0.11130000000000001          9.7791155440063449E-007
  0.11240000000000000          1.0116764315171167E-006
  0.11349999999999999          1.0464813158250763E-006
  0.11460000000000004          1.0823397360582021E-006
  0.11570000000000003          1.1192645388291567E-006
  0.11680000000000001          1.1572675475690630E-006
  0.11790000000000000          1.1963594488406670E-006
  0.11899999999999999          1.2365497923383373E-006
  0.12009999999999998          1.2778458540196880E-006
  0.12120000000000003          1.3202526361055789E-006
  0.12230000000000002          1.3637725260196021E-006
  0.12340000000000001          1.4084063195696217E-006
  0.12450000000000000          1.4541531072609359E-006
  0.12559999999999999          1.5010099332357640E-006
  0.12670000000000003          1.5489719089600840E-006
  0.12780000000000002          1.5980318721631193E-006
  0.12890000000000001          1.6481807278978522E-006
  0.13000000000000000          1.6994075622278615E-006
  0.13109999999999999          1.7516990737931337E-006
  0.13219999999999998          1.8050396874969010E-006
  0.13330000000000003          1.8594106450109393E-006
  0.13440000000000002          1.9147903458360815E-006
  0.13550000000000001          1.9711546883627307E-006
  0.13660000000000000          2.0284771835576976E-006
  0.13769999999999999          2.0867296370852273E-006
  0.13880000000000003          2.1458815808728104E-006
  0.13990000000000002          2.2059011826058850E-006
  0.14100000000000001          2.2667538814857835E-006
  0.14210000000000000          2.3284035250981105E-006
  0.14319999999999999          2.3908112325443653E-006
  0.14429999999999998          2.4539349396945909E-006
  0.14540000000000003          2.5177300813084003E-006
  0.14650000000000002          2.5821495910349768E-006
  0.14760000000000001          2.6471450382814510E-006
  0.14870000000000000          2.7126664008392254E-006
  0.14979999999999999          2.7786625196313253E-006
  0.15090000000000003          2.8450799618440215E-006
  0.15200000000000002          2.9118634756741812E-006
  0.15310000000000001          2.9789562177029438E-006
  0.15420000000000000          3.0463004350167466E-006
  0.15529999999999999          3.1138372378336499E-006
  0.15639999999999998          3.1815068268770119E-006
  0.15750000000000003          3.2492478112544632E-006
  0.15860000000000002          3.3169974358315812E-006
  0.15970000000000001          3.3846920359792421E-006
  0.16080000000000000          3.4522684018156724E-006
  0.16189999999999999          3.5196637782064499E-006
  0.16300000000000003          3.5868160921381786E-006
  0.16410000000000002          3.6536625884764362E-006
  0.16520000000000001          3.7201393752184231E-006
  0.16630000000000000          3.7861818782403134E-006
  0.16739999999999999          3.8517264329129830E-006
  0.16850000000000004          3.9167107388493605E-006
  0.16960000000000003          3.9810738599044271E-006
  0.17070000000000002          4.0447557694278657E-006
  0.17180000000000001          4.1076973502640612E-006
  0.17290000000000000          4.1698390305100475E-006
  0.17399999999999999          4.2311239667469636E-006
  0.17510000000000003          4.2914966797980014E-006
  0.17620000000000002          4.3509025999810547E-006
  0.17730000000000001          4.4092898860981222E-006
  0.17840000000000000          4.4666085159406066E-006
  0.17949999999999999          4.5228102862893138E-006
  0.18060000000000004          4.5778488129144534E-006
  0.18170000000000003          4.6316813495650422E-006
  0.18280000000000002          4.6842678784742020E-006
  0.18390000000000001          4.7355706556118093E-006
  0.18500000000000000          4.7855533011897933E-006
  0.18609999999999999          4.8341817091568373E-006
  0.18720000000000003          4.8814249566930812E-006
  0.18830000000000002          4.9272539399680682E-006
  0.18940000000000001          4.9716441026248503E-006
  0.19050000000000000          5.0145722525485326E-006
  0.19159999999999999          5.0560197450977284E-006
  0.19270000000000004          5.0959702093678061E-006
  0.19380000000000003          5.1344109124329407E-006
  0.19490000000000002          5.1713323045987636E-006
  0.19600000000000001          5.2067266551603097E-006
  0.19710000000000000          5.2405885071493685E-006
  0.19819999999999999          5.2729151320818346E-006
  0.19930000000000003          5.3037060752103571E-006
  0.20040000000000002          5.3329649745137431E-006
  0.20150000000000001          5.3606986512022559E-006
  0.20260000000000000          5.3869162002229132E-006
  0.20369999999999999          5.4116294450068381E-006
  0.20480000000000004          5.4348529374692589E-006
  0.20590000000000003          5.4566044127568603E-006
  0.20700000000000002          5.4769043345004320E-006
  0.20810000000000001          5.4957754400675185E-006
  0.20920000000000000          5.5132413763203658E-006
  0.21029999999999999          5.5293266996159218E-006
  0.21140000000000003          5.5440586947952397E-006
  0.21250000000000002          5.5574673751834780E-006
  0.21360000000000001          5.5695845730951987E-006
  0.21470000000000000          5.5804448493290693E-006
  0.21579999999999999          5.5900832194311079E-006
  0.21690000000000004          5.5985346989473328E-006
  0.21800000000000003          5.6058356676658150E-006
  0.21910000000000002          5.6120243243640289E-006
  0.22020000000000001          5.6171406868088525E-006
  0.22130000000000000          5.6212247727671638E-006
  0.22239999999999999          5.6243179642478935E-006
  0.22350000000000003          5.6264616432599723E-006
  0.22460000000000002          5.6276967370649800E-006
  0.22570000000000001          5.6280655371665489E-006
  0.22680000000000000          5.6276112445630133E-006
  0.22789999999999999          5.6263775150000583E-006
  0.22900000000000004          5.6244057304866146E-006
  0.23010000000000003          5.6217386372736655E-006
  0.23120000000000002          5.6184176173701417E-006
  0.23230000000000001          5.6144840527849738E-006
  0.23340000000000000          5.6099802350217942E-006
  0.23450000000000004          5.6049470913421828E-006
  0.23560000000000003          5.5994246395130176E-006
  0.23670000000000002          5.5934519878064748E-006
  0.23780000000000001          5.5870664255053271E-006
  0.23890000000000000          5.5803061513870489E-006
  0.23999999999999999          5.5732084547344130E-006
  0.24110000000000004          5.5658083510934375E-006
  0.24220000000000003          5.5581408560101409E-006
  0.24330000000000002          5.5502382565464359E-006
  0.24440000000000001          5.5421319302695338E-006
  0.24550000000000000          5.5338514357572421E-006
  0.24660000000000004          5.5254254220926668E-006
  0.24770000000000003          5.5168807193695102E-006
  0.24880000000000002          5.5082423386920709E-006
  0.24990000000000001          5.4995352911646478E-006
  0.25100000000000000          5.4907823141547851E-006
  0.25209999999999999          5.4820070545247290E-006
  0.25320000000000004          5.4732308853999712E-006
  0.25430000000000003          5.4644724514218979E-006
  0.25540000000000002          5.4557485782424919E-006
  0.25650000000000001          5.4470733630296309E-006
  0.25760000000000000          5.4384599934564903E-006
  0.25870000000000004          5.4299216571962461E-006
  0.25980000000000003          5.4214688134379685E-006
  0.26090000000000002          5.4131101023813244E-006
  0.26200000000000001          5.4048532547312789E-006
  0.26310000000000000          5.3967064559401479E-006
  0.26419999999999999          5.3886760724708438E-006
  0.26530000000000004          5.3807675612915773E-006
  0.26640000000000003          5.3729859246232081E-006
  0.26750000000000002          5.3653316172130872E-006
  0.26860000000000001          5.3578046390612144E-006
  0.26970000000000000          5.3504040806728881E-006
  0.27080000000000004          5.3431281230587047E-006
  0.27190000000000003          5.3359758567239624E-006
  0.27300000000000002          5.3289445531845558E-006
  0.27410000000000001          5.3220305744616780E-006
  0.27520000000000000          5.3152284635871183E-006
  0.27629999999999999          5.3085327635926660E-006
  0.27740000000000004          5.3019375627627596E-006
  0.27850000000000003          5.2954360398871358E-006
  0.27960000000000002          5.2890204642608296E-006
  0.28070000000000001          5.2826821956841741E-006
  0.28179999999999999          5.2764121392101515E-006
  0.28290000000000004          5.2702016546390951E-006
  0.28400000000000003          5.2640430112660397E-006
  0.28510000000000002          5.2579280236386694E-006
  0.28620000000000001          5.2518480515573174E-006
  0.28730000000000000          5.2457935453276150E-006
  0.28840000000000005          5.2397545005078427E-006
  0.28950000000000004          5.2337218221509829E-006
  0.29060000000000002          5.2276868700573687E-006
  0.29170000000000001          5.2216400945326313E-006
  0.29280000000000000          5.2155724006297532E-006
  0.29389999999999999          5.2094742386543658E-006
  0.29500000000000004          5.2033378779015038E-006
  0.29610000000000003          5.1971551329188515E-006
  0.29720000000000002          5.1909196372434963E-006
  0.29830000000000001          5.1846241149178240E-006
  0.29940000000000000          5.1782612899842206E-006
  0.30050000000000004          5.1718252507271245E-006
  0.30160000000000003          5.1653096306836233E-006
  0.30270000000000002          5.1587103371275589E-006
  0.30380000000000001          5.1520232773327734E-006
  0.30490000000000000          5.1452443585731089E-006
  0.30599999999999999          5.1383708523644600E-006
  0.30709999999999998          5.1313995754753705E-006
  0.30819999999999997          5.1243296184111387E-006
  0.30930000000000007          5.1171623454138171E-006
  0.31040000000000006          5.1098982112307567E-006
  0.31150000000000005          5.1025394895987120E-006
  0.31260000000000004          5.0950870900123846E-006
  0.31370000000000003          5.0875437409558799E-006
  0.31480000000000002          5.0799130804080050E-006
  0.31590000000000001          5.0722005653369706E-006
  0.31700000000000000          5.0644125622056890E-006
  0.31809999999999999          5.0565563469717745E-006
  0.31919999999999998          5.0486401050875429E-006
  0.32029999999999997          5.0406715672579594E-006
  0.32140000000000007          5.0326625569141470E-006
  0.32250000000000006          5.0246244427398778E-006
  0.32360000000000005          5.0165699576609768E-006
  0.32470000000000004          5.0085118346032687E-006
  0.32580000000000003          5.0004623517452274E-006
  0.32690000000000002          4.9924346967600286E-006
  0.32800000000000001          4.9844443310576025E-006
  0.32910000000000000          4.9765071707952302E-006
  0.33019999999999999          4.9686409511195961E-006
  0.33129999999999998          4.9608638619247358E-006
  0.33239999999999997          4.9531959120940883E-006
  0.33350000000000007          4.9456571105110925E-006
  0.33460000000000006          4.9382683755538892E-006
  0.33570000000000005          4.9310510803479701E-006
  0.33680000000000004          4.9240275075135287E-006
  0.33790000000000003          4.9172194849234074E-006
  0.33900000000000002          4.9106506594398525E-006
  0.34010000000000001          4.9043455874198116E-006
  0.34120000000000000          4.8983288252202328E-006
  0.34229999999999999          4.8926258386927657E-006
  0.34339999999999998          4.8872625484364107E-006
  0.34449999999999997          4.8822639655554667E-006
  0.34560000000000007          4.8776564653962851E-006
  0.34670000000000006          4.8734664233052172E-006
  0.34780000000000005          4.8697211241233163E-006
  0.34890000000000004          4.8664464884495828E-006
