 -0.20000000000000001          0.0000000000000000
 -0.19890000000000002          0.0000000000000000
 -0.19780000000000000          0.0000000000000000
 -0.19670000000000001          0.0000000000000000
 -0.19560000000000002          0.0000000000000000
 -0.19450000000000001          0.0000000000000000
 -0.19340000000000002          0.0000000000000000
 -0.19230000000000000          0.0000000000000000
 -0.19120000000000001          0.0000000000000000
 -0.19010000000000002          0.0000000000000000
 -0.18900000000000000          1.2400832703095747E-029
 -0.18790000000000001          2.1733115531426445E-028
 -0.18680000000000002          8.3872987593950548E-028
 -0.18570000000000000         -2.6240747344027479E-027
 -0.18460000000000001         -3.0394416247712974E-026
 -0.18350000000000000         -8.0715286397985690E-026
 -0.18240000000000001          8.8279131276277633E-026
 -0.18130000000000002          1.1350317072708776E-024
 -0.18020000000000000          2.7833813192410831E-024
 -0.17910000000000001         -5.4701084421460933E-025
 -0.17800000000000002         -2.0863674892149537E-023
 -0.17690000000000000         -5.3419868209590257E-023
 -0.17580000000000001         -2.0309340756328922E-023
 -0.17470000000000002          2.3369990433220543E-022
 -0.17360000000000000          6.8478493351694224E-022
 -0.17250000000000001          5.7711816794650250E-022
 -0.17140000000000000         -1.6446754773157814E-021
 -0.17030000000000001         -6.2782394569663921E-021
 -0.16920000000000002         -7.9567294759171339E-021
 -0.16810000000000000          5.7217217920254484E-021
 -0.16700000000000001          4.1648550304393479E-020
 -0.16589999999999999          7.2047890180114736E-020
 -0.16480000000000000          1.7968855755599357E-020
 -0.16370000000000001         -1.9253316351055904E-019
 -0.16260000000000002         -4.6408797661286279E-019
 -0.16150000000000000         -3.9822790794017901E-019
 -0.16040000000000001          5.1383337788088304E-019
 -0.15930000000000000          2.1644109237687560E-018
 -0.15820000000000001          2.9939955299770159E-018
 -0.15710000000000002          3.1863379766575932E-019
 -0.15600000000000000         -6.9980679233874343E-018
 -0.15490000000000001         -1.4521236717068431E-017
 -0.15379999999999999         -1.1352839667511654E-017
 -0.15270000000000000          1.2197726081076379E-017
 -0.15160000000000001          4.9121803039106328E-017
 -0.15050000000000002          6.5483428937960315E-017
 -0.14940000000000001          1.5847736634582968E-017
 -0.14830000000000002         -1.0890395908821635E-016
 -0.14720000000000000         -2.3178969251341243E-016
 -0.14610000000000001         -2.0125555766321379E-016
 -0.14500000000000002          9.2485165082867603E-017
 -0.14390000000000000          5.4718916021734960E-016
 -0.14280000000000001          7.8711913052145147E-016
 -0.14169999999999999          3.7434901683567581E-016
 -0.14060000000000000         -7.4322657140900327E-016
 -0.13950000000000001         -1.8925748419612240E-015
 -0.13840000000000002         -1.9121188566696961E-015
 -0.13730000000000001         -8.5073911344523193E-017
 -0.13619999999999999          2.8307576399442700E-015
 -0.13510000000000000          4.5647054454996290E-015
 -0.13400000000000001          2.9052412704028401E-015
 -0.13290000000000002         -1.9640083067767313E-015
 -0.13180000000000000         -6.5519595127225706E-015
 -0.13070000000000001         -6.3334707521101128E-015
 -0.12959999999999999         -2.5983122115807848E-016
 -0.12850000000000000          6.5510565756007975E-015
 -0.12740000000000001          6.0676557196357155E-015
 -0.12630000000000002         -4.1163751416826641E-015
 -0.12520000000000001         -1.4334833233625721E-014
 -0.12410000000000000         -7.6827633203836385E-015
 -0.12300000000000001          2.2734327034855742E-014
 -0.12190000000000001          5.7156780393710638E-014
 -0.12080000000000000          5.3463384706766565E-014
 -0.11970000000000000         -1.9078268560226638E-014
 -0.11860000000000001         -1.3634407459387626E-013
 -0.11750000000000001         -2.0819150982169521E-013
 -0.11640000000000000         -1.3043864220078222E-013
 -0.11530000000000000          1.1895469147465282E-013
 -0.11420000000000001          4.1336088740275001E-013
 -0.11310000000000001          5.2021435119689596E-013
 -0.11200000000000000          2.6150720586377851E-013
 -0.11090000000000001         -3.0857369610892693E-013
 -0.10980000000000001         -8.6421251014809353E-013
 -0.10870000000000000         -9.8900174074628699E-013
 -0.10760000000000000         -4.8496504121559036E-013
 -0.10650000000000001          4.2512201441427533E-013
 -0.10540000000000001          1.2011152706117856E-012
 -0.10430000000000000          1.3635715820359273E-012
 -0.10320000000000000          8.5903365584089064E-013
 -0.10210000000000001          8.2801536352254679E-014
 -0.10100000000000001         -5.0308281845934388E-013
  -9.9900000000000003E-002    -8.2805767451232803E-013
  -9.8799999999999999E-002    -1.2664356325783888E-012
  -9.7700000000000009E-002    -2.1142393391571090E-012
  -9.6600000000000005E-002    -2.9072835718707557E-012
  -9.5500000000000002E-002    -2.3441090648418372E-012
  -9.4400000000000012E-002     7.6266185207451986E-013
  -9.3300000000000008E-002     6.0012953807808689E-012
  -9.2200000000000004E-002     1.0614732183500397E-011
  -9.1100000000000000E-002     1.0590854582215314E-011
  -9.0000000000000011E-002     3.4073954595370548E-012
  -8.8900000000000007E-002    -9.2976190982363427E-012
  -8.7800000000000003E-002    -2.1360852323071278E-011
  -8.6699999999999999E-002    -2.5007549850353250E-011
  -8.5600000000000009E-002    -1.5659779029064680E-011
  -8.4500000000000006E-002     4.4684850437903822E-012
  -8.3400000000000002E-002     2.6675727599068111E-011
  -8.2299999999999998E-002     4.0141473478527701E-011
  -8.1200000000000008E-002     3.7676261416264012E-011
  -8.0100000000000005E-002     1.9208173246409999E-011
  -7.9000000000000001E-002    -8.8878670048697650E-012
  -7.7899999999999997E-002    -3.7419685405826186E-011
  -7.6800000000000007E-002    -5.7886927889994055E-011
  -7.5700000000000003E-002    -6.3707629449627490E-011
  -7.4600000000000000E-002    -4.9855810452248406E-011
  -7.3500000000000010E-002    -1.3661559730704376E-011
  -7.2399999999999992E-002     4.1487542568052760E-011
  -7.1300000000000002E-002     1.0149119739066848E-010
  -7.0200000000000012E-002     1.4108718360272832E-010
  -6.9099999999999995E-002     1.3200918136391238E-010
  -6.8000000000000005E-002     5.8687332771256706E-011
  -6.6900000000000015E-002    -6.6474228899160437E-011
  -6.5799999999999997E-002    -1.9921460314709094E-010
  -6.4700000000000008E-002    -2.7755281406527388E-010
  -6.3599999999999990E-002    -2.5033297657017783E-010
  -6.2500000000000000E-002    -1.0649944814922208E-010
  -6.1400000000000010E-002     1.1159813351202530E-010
  -6.0299999999999992E-002     3.2060556987012490E-010
  -5.9200000000000003E-002     4.3043774100581800E-010
  -5.8100000000000013E-002     3.8433178861652095E-010
  -5.6999999999999995E-002     1.8510139254690472E-010
  -5.5900000000000005E-002    -1.0456972787675767E-010
  -5.4800000000000015E-002    -3.8632488874590365E-010
  -5.3699999999999998E-002    -5.6193216746436292E-010
  -5.2600000000000008E-002    -5.6506155310387385E-010
  -5.1499999999999990E-002    -3.7952999076829030E-010
  -5.0400000000000000E-002    -4.3465162025135839E-011
  -4.9300000000000010E-002     3.5663036412891813E-010
  -4.8199999999999993E-002     7.0035593990880329E-010
  -4.7100000000000003E-002     8.5965556895217787E-010
  -4.6000000000000013E-002     7.3927225452408152E-010
  -4.4899999999999995E-002     3.2380431669309928E-010
  -4.3800000000000006E-002    -2.8992641620817494E-010
  -4.2699999999999988E-002    -9.0132573626888757E-010
  -4.1599999999999998E-002    -1.2678318395131782E-009
  -4.0500000000000008E-002    -1.2036515117941349E-009
  -3.9399999999999991E-002    -6.7161659567105403E-010
  -3.8300000000000001E-002     1.8113824329368811E-010
  -3.7200000000000011E-002     1.0683480766715547E-009
  -3.6099999999999993E-002     1.6729578833363234E-009
  -3.5000000000000003E-002     1.7672221463982396E-009
  -3.3900000000000013E-002     1.2899760148954442E-009
  -3.2799999999999996E-002     3.5485517302369374E-010
  -3.1700000000000006E-002    -7.9793838203556788E-010
  -3.0599999999999988E-002    -1.8715400340596489E-009
  -2.9499999999999998E-002    -2.5757205257548321E-009
  -2.8400000000000009E-002    -2.6786293183533871E-009
  -2.7299999999999991E-002    -2.0573582837357662E-009
  -2.6200000000000001E-002    -7.4935913030316215E-010
  -2.5100000000000011E-002     1.0171661291025202E-009
  -2.3999999999999994E-002     2.8494719916949407E-009
  -2.2900000000000004E-002     4.2911967312875277E-009
  -2.1800000000000014E-002     4.9720920713980377E-009
  -2.0699999999999996E-002     4.7402677338936883E-009
  -1.9600000000000006E-002     3.7079215253754683E-009
  -1.8499999999999989E-002     2.1859156706938165E-009
  -1.7399999999999999E-002     5.4806498228643363E-010
  -1.6300000000000009E-002    -8.9281365633908649E-010
  -1.5199999999999991E-002    -1.9297905495818668E-009
  -1.4100000000000001E-002    -2.4233104412019202E-009
  -1.3000000000000012E-002    -2.2413677580601643E-009
  -1.1899999999999994E-002    -1.2592495934882209E-009
  -1.0800000000000004E-002     5.4843796171155645E-010
  -9.6999999999999864E-003     2.9755153896360298E-009
  -8.5999999999999965E-003     5.5225641837353123E-009
  -7.5000000000000067E-003     7.4979240594075236E-009
  -6.3999999999999890E-003     8.2770803544462979E-009
  -5.2999999999999992E-003     7.6006143601148324E-009
  -4.2000000000000093E-003     5.7379501150478518E-009
  -3.0999999999999917E-003     3.4018172723193629E-009
  -2.0000000000000018E-003     1.4411632998090340E-009
  -9.0000000000001190E-004     4.7864184837820289E-010
   2.0000000000000573E-004     6.9689387593996344E-010
   1.2999999999999956E-003     1.8826098457935814E-009
   2.4000000000000132E-003     3.6685057214214112E-009
   3.5000000000000031E-003     5.7869882219563351E-009
   4.5999999999999930E-003     8.1562570031223913E-009
   5.7000000000000106E-003     1.0756640911324666E-008
   6.8000000000000005E-003     1.3422361888615342E-008
   7.8999999999999904E-003     1.5745689196933199E-008
   9.0000000000000080E-003     1.7209382363603254E-008
   1.0099999999999998E-002     1.7486554426682233E-008
   1.1199999999999988E-002     1.6706378502817643E-008
   1.2300000000000005E-002     1.5487852778051092E-008
   1.3399999999999995E-002     1.4694070848975116E-008
   1.4500000000000013E-002     1.5048494006464352E-008
   1.5600000000000003E-002     1.6845591588321440E-008
   1.6699999999999993E-002     1.9916944538067582E-008
   1.7800000000000010E-002     2.3835488249801529E-008
   1.8900000000000000E-002     2.8187111311694935E-008
   1.9999999999999990E-002     3.2718610043502849E-008
   2.1100000000000008E-002     3.7290824650426657E-008
   2.2199999999999998E-002     4.1728924315975746E-008
   2.3300000000000015E-002     4.5743611565285391E-008
   2.4400000000000005E-002     4.9036202653951477E-008
   2.5499999999999995E-002     5.1543228352102233E-008
   2.6600000000000013E-002     5.3641397101955590E-008
   2.7700000000000002E-002     5.6125614378288446E-008
   2.8799999999999992E-002     5.9907812044457387E-008
   2.9900000000000010E-002     6.5576472252359963E-008
   3.1000000000000000E-002     7.3074417628049559E-008
   3.2099999999999990E-002     8.1708002142022451E-008
   3.3200000000000007E-002     9.0511242945012782E-008
   3.4299999999999997E-002     9.8769909584461857E-008
   3.5400000000000015E-002     1.0640501102443523E-007
   3.6500000000000005E-002     1.1399536958833778E-007
   3.7599999999999995E-002     1.2243782521181856E-007
   3.8700000000000012E-002     1.3245981733689405E-007
   3.9800000000000002E-002     1.4427536143557518E-007
   4.0899999999999992E-002     1.5756606330796785E-007
   4.2000000000000010E-002     1.7175447908357455E-007
   4.3099999999999999E-002     1.8636708887243003E-007
   4.4200000000000017E-002     2.0126138622345024E-007
   4.5300000000000007E-002     2.1661486471202807E-007
   4.6399999999999997E-002     2.3274020577446208E-007
   4.7500000000000014E-002     2.4988369773382146E-007
   4.8600000000000004E-002     2.6813606268660806E-007
   4.9699999999999994E-002     2.8748181080118229E-007
   5.0800000000000012E-002     3.0792361371823063E-007
   5.1900000000000002E-002     3.2959533768917026E-007
   5.2999999999999992E-002     3.5280851307106786E-007
   5.4099999999999981E-002     3.7801808616677590E-007
   5.5200000000000027E-002     4.0571387671661796E-007
   5.6300000000000017E-002     4.3625416878967371E-007
   5.7400000000000007E-002     4.6968801825642004E-007
   5.8499999999999996E-002     5.0565154197101947E-007
   5.9599999999999986E-002     5.4342831390385982E-007
   6.0700000000000032E-002     5.8220592791258241E-007
   6.1800000000000022E-002     6.2144300727595692E-007
   6.2900000000000011E-002     6.6116456309828209E-007
   6.4000000000000001E-002     7.0201082280618721E-007
   6.5099999999999991E-002     7.4499013180684415E-007
   6.6199999999999981E-002     7.9105865324891056E-007
   6.7300000000000026E-002     8.4075639961156412E-007
   6.8400000000000016E-002     8.9409155634712079E-007
   6.9500000000000006E-002     9.5070834049693076E-007
   7.0599999999999996E-002     1.0102046417159727E-006
   7.1699999999999986E-002     1.0723898640208063E-006
   7.2800000000000031E-002     1.1373380175427883E-006
   7.3900000000000021E-002     1.2052449847033131E-006
   7.5000000000000011E-002     1.2762284313794225E-006
   7.6100000000000001E-002     1.3502423144018394E-006
   7.7199999999999991E-002     1.4271845429902896E-006
   7.8299999999999981E-002     1.5071228745000553E-006
   7.9400000000000026E-002     1.5904544170552981E-006
   8.0500000000000016E-002     1.6778292319941102E-006
   8.1600000000000006E-002     1.7698248484521173E-006
   8.2699999999999996E-002     1.8665426750885672E-006
   8.3799999999999986E-002     1.9674021132232156E-006
   8.4900000000000031E-002     2.0713328012789134E-006
   8.6000000000000021E-002     2.1773130356450565E-006
   8.7100000000000011E-002     2.2849551442050142E-006
   8.8200000000000001E-002     2.3947739009599900E-006
   8.9299999999999990E-002     2.5079468741751043E-006
   9.0399999999999980E-002     2.6256971068505663E-006
   9.1500000000000026E-002     2.7486760245665209E-006
   9.2600000000000016E-002     2.8767160529241664E-006
   9.3700000000000006E-002     3.0090600375842769E-006
   9.4799999999999995E-002     3.1448582831217209E-006
   9.5899999999999985E-002     3.2835826004884439E-006
   9.7000000000000031E-002     3.4251268061780138E-006
   9.8100000000000021E-002     3.5696302802534774E-006
   9.9200000000000010E-002     3.7172558222664520E-006
  0.10030000000000000          3.8681137084495276E-006
  0.10139999999999999          4.0223517316917423E-006
  0.10249999999999998          4.1802531995926984E-006
  0.10360000000000003          4.3421655391284730E-006
  0.10470000000000002          4.5082206270308234E-006
  0.10580000000000001          4.6780228331044782E-006
  0.10690000000000000          4.8505598897463642E-006
  0.10799999999999998          5.0244671001564711E-006
  0.10910000000000003          5.1985366553708445E-006
  0.11020000000000002          5.3721814765594900E-006
  0.11130000000000001          5.5456125664932188E-006
  0.11240000000000000          5.7195716181013267E-006
  0.11349999999999999          5.8947543948306702E-006
  0.11460000000000004          6.0712500271620229E-006
  0.11570000000000003          6.2482972680300009E-006
  0.11680000000000001          6.4245800786011387E-006
  0.11790000000000000          6.5988942878902890E-006
  0.11899999999999999          6.7707965172303375E-006
  0.12009999999999998          6.9408470153575763E-006
  0.12120000000000003          7.1102231231634505E-006
  0.12230000000000002          7.2798907240212429E-006
  0.12340000000000001          7.4498120739008300E-006
  0.12450000000000000          7.6186756814422552E-006
  0.12559999999999999          7.7843551480327733E-006
  0.12670000000000003          7.9447800089837983E-006
  0.12780000000000002          8.0987329056370072E-006
  0.12890000000000001          8.2461274359957315E-006
  0.13000000000000000          8.3876311691710725E-006
  0.13109999999999999          8.5239644249668345E-006
  0.13219999999999998          8.6553036453551613E-006
  0.13330000000000003          8.7810640252428129E-006
  0.13440000000000002          8.9001050582737662E-006
  0.13550000000000001          9.0111416284344159E-006
  0.13660000000000000          9.1131196313654073E-006
  0.13769999999999999          9.2054733613622375E-006
  0.13880000000000003          9.2881373348063789E-006
  0.13990000000000002          9.3613743956666440E-006
  0.14100000000000001          9.4254965006257407E-006
  0.14210000000000000          9.4805163826094940E-006
  0.14319999999999999          9.5258865258074366E-006
  0.14429999999999998          9.5605309979873709E-006
  0.14540000000000003          9.5831946964608505E-006
  0.14650000000000002          9.5928726295824163E-006
  0.14760000000000001          9.5891509772627614E-006
  0.14870000000000000          9.5722725745872594E-006
  0.14979999999999999          9.5428722488577478E-006
  0.15090000000000003          9.5015911938389763E-006
  0.15200000000000002          9.4487450041924603E-006
  0.15310000000000001          9.3841499619884416E-006
  0.15420000000000000          9.3071248556952924E-006
  0.15529999999999999          9.2166010290384293E-006
  0.15639999999999998          9.1114015958737582E-006
  0.15750000000000003          8.9905915956478566E-006
  0.15860000000000002          8.8537844931124710E-006
  0.15970000000000001          8.7013704614946619E-006
  0.16080000000000000          8.5344063336378895E-006
  0.16189999999999999          8.3542518041213043E-006
  0.16300000000000003          8.1620864875731058E-006
  0.16410000000000002          7.9585233834222890E-006
  0.16520000000000001          7.7435943239834160E-006
  0.16630000000000000          7.5170228228671476E-006
  0.16739999999999999          7.2785028351063374E-006
  0.16850000000000004          7.0278856583172455E-006
  0.16960000000000003          6.7651935751200654E-006
  0.17070000000000002          6.4906057559710462E-006
  0.17180000000000001          6.2045592130743898E-006
  0.17290000000000000          5.9078156482428312E-006
  0.17399999999999999          5.6015228437900078E-006
  0.17510000000000003          5.2870991567033343E-006
  0.17620000000000002          4.9659765863907523E-006
  0.17730000000000001          4.6393720367632341E-006
  0.17840000000000000          4.3081495277874637E-006
  0.17949999999999999          3.9728975025354885E-006
  0.18060000000000004          3.6340559290692909E-006
  0.18170000000000003          3.2919313071033685E-006
  0.18280000000000002          2.9467812510119984E-006
  0.18390000000000001          2.5990352696680930E-006
  0.18500000000000000          2.2496246856462676E-006
  0.18609999999999999          1.9002012550117797E-006
  0.18720000000000003          1.5530719110756763E-006
  0.18830000000000002          1.2108129112675670E-006
  0.18940000000000001          8.7561664940949413E-007
  0.19050000000000000          5.4883940947547671E-007
  0.19159999999999999          2.3104685453745333E-007
  0.19270000000000004         -7.7546907562009437E-008
  0.19380000000000003         -3.7642169559148897E-007
  0.19490000000000002         -6.6444272306398489E-007
  0.19600000000000001         -9.3987171112530632E-007
  0.19710000000000000         -1.2005878033960471E-006
  0.19819999999999999         -1.4444642602029489E-006
  0.19930000000000003         -1.6695242948117084E-006
  0.20040000000000002         -1.8740705627351417E-006
  0.20150000000000001         -2.0568566014844691E-006
  0.20260000000000000         -2.2171855107444571E-006
  0.20369999999999999         -2.3546947431896115E-006
  0.20480000000000004         -2.4687844870641129E-006
  0.20590000000000003         -2.5580748115316965E-006
  0.20700000000000002         -2.6200871161563555E-006
  0.20810000000000001         -2.6516356683714548E-006
  0.20920000000000000         -2.6498546503717080E-006
  0.21029999999999999         -2.6130871901841601E-006
  0.21140000000000003         -2.5410085982002784E-006
  0.21250000000000002         -2.4340913569176337E-006
  0.21360000000000001         -2.2926117253518896E-006
  0.21470000000000000         -2.1158189156267326E-006
  0.21579999999999999         -1.9019529418073944E-006
  0.21690000000000004         -1.6486982303831610E-006
  0.21800000000000003         -1.3537701306631789E-006
  0.21910000000000002         -1.0153255516343052E-006
  0.22020000000000001         -6.3206033473761636E-007
  0.22130000000000000         -2.0321731142303179E-007
  0.22239999999999999          2.7127953217132017E-007
  0.22350000000000003          7.9100482253124937E-007
  0.22460000000000002          1.3554708857554942E-006
  0.22570000000000001          1.9646092823677463E-006
  0.22680000000000000          2.6191696633759420E-006
  0.22789999999999999          3.3205299132532673E-006
  0.22900000000000004          4.0699624150875024E-006
  0.23010000000000003          4.8679917199478950E-006
  0.23120000000000002          5.7141592151310761E-006
  0.23230000000000001          6.6076036091544665E-006
  0.23340000000000000          7.5478428698261268E-006
  0.23450000000000004          8.5348992797662504E-006
  0.23560000000000003          9.5690647867741063E-006
  0.23670000000000002          1.0650345757312607E-005
  0.23780000000000001          1.1778171938203741E-005
  0.23890000000000000          1.2951633834745735E-005
  0.23999999999999999          1.4169623682391830E-005
  0.24110000000000004          1.5430787243531086E-005
  0.24220000000000003          1.6733391021261923E-005
  0.24330000000000002          1.8075288608088158E-005
  0.24440000000000001          1.9454408175079152E-005
  0.24550000000000000          2.0869440049864352E-005
  0.24660000000000004          2.2319905838230625E-005
  0.24770000000000003          2.3805767341400497E-005
  0.24880000000000002          2.5326542527182028E-005
  0.24990000000000001          2.6880034056375735E-005
  0.25100000000000000          2.8462418413255364E-005
  0.25209999999999999          3.0069253625697456E-005
  0.25320000000000004          3.1696548830950633E-005
  0.25430000000000003          3.3341624657623470E-005
  0.25540000000000002          3.5003049561055377E-005
  0.25650000000000001          3.6679775803349912E-005
  0.25760000000000000          3.8370300899259746E-005
  0.25870000000000004          4.0072111005429178E-005
  0.25980000000000003          4.1781524487305433E-005
  0.26090000000000002          4.3494343117345124E-005
  0.26200000000000001          4.5206594222690910E-005
  0.26310000000000000          4.6914872655179352E-005
  0.26419999999999999          4.8616147978464141E-005
  0.26530000000000004          5.0307404308114201E-005
  0.26640000000000003          5.1985403842991218E-005
  0.26750000000000002          5.3646534070139751E-005
  0.26860000000000001          5.5286807764787227E-005
  0.26970000000000000          5.6902248616097495E-005
  0.27080000000000004          5.8489145885687321E-005
  0.27190000000000003          6.0043876146664843E-005
  0.27300000000000002          6.1562903283629566E-005
  0.27410000000000001          6.3042847614269704E-005
  0.27520000000000000          6.4480394939891994E-005
  0.27629999999999999          6.5872489358298481E-005
  0.27740000000000004          6.7216322349850088E-005
  0.27850000000000003          6.8508794356603175E-005
  0.27960000000000002          6.9746478402521461E-005
  0.28070000000000001          7.0925525506027043E-005
  0.28179999999999999          7.2041773819364607E-005
  0.28290000000000004          7.3091250669676811E-005
  0.28400000000000003          7.4070245318580419E-005
  0.28510000000000002          7.4975861934944987E-005
  0.28620000000000001          7.5806114182341844E-005
  0.28730000000000000          7.6559677836485207E-005
  0.28840000000000005          7.7235614298842847E-005
  0.28950000000000004          7.7832752140238881E-005
  0.29060000000000002          7.8349112300202250E-005
  0.29170000000000001          7.8781413321848959E-005
  0.29280000000000000          7.9125289630610496E-005
  0.29389999999999999          7.9376834037248045E-005
  0.29500000000000004          7.9534074757248163E-005
  0.29610000000000003          7.9597200965508819E-005
  0.29720000000000002          7.9567835200577974E-005
  0.29830000000000001          7.9447381722275168E-005
  0.29940000000000000          7.9235738667193800E-005
  0.30050000000000004          7.8931152529548854E-005
  0.30160000000000003          7.8531520557589829E-005
  0.30270000000000002          7.8035925980657339E-005
  0.30380000000000001          7.7445241913665086E-005
  0.30490000000000000          7.6761178206652403E-005
  0.30599999999999999          7.5984826253261417E-005
  0.30709999999999998          7.5116673542652279E-005
  0.30819999999999997          7.4157163908239454E-005
  0.30930000000000007          7.3107577918563038E-005
  0.31040000000000006          7.1970083808992058E-005
  0.31150000000000005          7.0747053541708738E-005
  0.31260000000000004          6.9440575316548347E-005
  0.31370000000000003          6.8052278948016465E-005
  0.31480000000000002          6.6584114392753690E-005
  0.31590000000000001          6.5038650063797832E-005
  0.31700000000000000          6.3419000071007758E-005
  0.31809999999999999          6.1728685977868736E-005
  0.31919999999999998          5.9970981965307146E-005
  0.32029999999999997          5.8148922107648104E-005
  0.32140000000000007          5.6265664170496166E-005
  0.32250000000000006          5.4324646043824032E-005
  0.32360000000000005          5.2329243771964684E-005
  0.32470000000000004          5.0282440497539937E-005
  0.32580000000000003          4.8187266656896099E-005
  0.32690000000000002          4.6047338400967419E-005
  0.32800000000000001          4.3867443309864029E-005
  0.32910000000000000          4.1653638618299738E-005
  0.33019999999999999          3.9412159821949899E-005
  0.33129999999999998          3.7147747207200155E-005
  0.33239999999999997          3.4863121982198209E-005
  0.33350000000000007          3.2559953979216516E-005
  0.33460000000000006          3.0240313208196312E-005
  0.33570000000000005          2.7907832190976478E-005
  0.33680000000000004          2.5567551347194239E-005
  0.33790000000000003          2.3225018594530411E-005
  0.33900000000000002          2.0885545382043347E-005
  0.34010000000000001          1.8553679183241911E-005
  0.34120000000000000          1.6233305359492078E-005
  0.34229999999999999          1.3927820873504970E-005
  0.34339999999999998          1.1639990589173976E-005
  0.34449999999999997          9.3723383542965166E-006
  0.34560000000000007          7.1276344897341914E-006
  0.34670000000000006          4.9095742724603042E-006
  0.34780000000000005          2.7230062187300064E-006
  0.34890000000000004          5.7304282563563902E-007
