 -0.20000000000000001          0.0000000000000000
 -0.19890000000000002          0.0000000000000000
 -0.19780000000000000          0.0000000000000000
 -0.19670000000000001          0.0000000000000000
 -0.19560000000000002          0.0000000000000000
 -0.19450000000000001          0.0000000000000000
 -0.19340000000000002          0.0000000000000000
 -0.19230000000000000          0.0000000000000000
 -0.19120000000000001          0.0000000000000000
 -0.19010000000000002          0.0000000000000000
 -0.18900000000000000          8.2154694064695031E-034
 -0.18790000000000001          3.0852512561837349E-032
 -0.18680000000000002          4.0536071630196589E-031
 -0.18570000000000000          2.7924203084574554E-030
 -0.18460000000000001          1.1766555511618038E-029
 -0.18350000000000000          3.0931021713638938E-029
 -0.18240000000000001          4.0115279071076803E-029
 -0.18130000000000002         -4.2552940638749879E-029
 -0.18020000000000000         -3.2664265376355769E-028
 -0.17910000000000001         -6.6333134330302809E-028
 -0.17800000000000002         -1.5205290337016357E-028
 -0.17690000000000000          2.5647454995009269E-027
 -0.17580000000000001          6.2877968824788470E-027
 -0.17470000000000002          2.1605288190640061E-027
 -0.17360000000000000         -2.3055634001978168E-026
 -0.17250000000000001         -5.6234282429374217E-026
 -0.17140000000000000         -8.4046897141998771E-027
 -0.17030000000000001          2.4638068640031305E-025
 -0.16920000000000002          5.6062263913419789E-025
 -0.16810000000000000          3.9034304378581309E-026
 -0.16700000000000001         -2.5565786813941583E-024
 -0.16589999999999999         -5.8652877209708802E-024
 -0.16480000000000000         -1.5680263154864048E-024
 -0.16370000000000001          2.2214875293657347E-023
 -0.16260000000000002          5.6122347898696400E-023
 -0.16150000000000000          3.2732678856878575E-023
 -0.16040000000000001         -1.5174381960247374E-022
 -0.15930000000000000         -4.5624089784351651E-022
 -0.15820000000000001         -4.1558484956750016E-022
 -0.15710000000000002          7.6640782864385754E-022
 -0.15600000000000000          3.0777068186593189E-021
 -0.15490000000000001          3.8145757065309650E-021
 -0.15379999999999999         -2.3175823617888554E-021
 -0.15270000000000000         -1.7057246175016235E-020
 -0.15160000000000001         -2.7333466021127351E-020
 -0.15050000000000002         -2.7249766894584992E-021
 -0.14940000000000001          7.6233592100694981E-020
 -0.14830000000000002          1.5862395412410750E-019
 -0.14720000000000000          9.3695348982295253E-020
 -0.14610000000000001         -2.5979173610512856E-019
 -0.14500000000000002         -7.5688101383398351E-019
 -0.14390000000000000         -7.5657449171824433E-019
 -0.14280000000000001          5.4028444252122091E-019
 -0.14169999999999999          2.9603441682971336E-018
 -0.14060000000000000          4.1968125071704806E-018
 -0.13950000000000001          5.1997488373635956E-019
 -0.13840000000000002         -9.2042553971980278E-018
 -0.13730000000000001         -1.8187350822740203E-017
 -0.13619999999999999         -1.1769714708000616E-017
 -0.13510000000000000          2.0391294155548940E-017
 -0.13400000000000001          6.3516843427562444E-017
 -0.13290000000000002          6.8964926257077602E-017
 -0.13180000000000000         -1.5589418055450008E-017
 -0.13070000000000001         -1.7640125518038807E-016
 -0.12959999999999999         -2.7943947802164389E-016
 -0.12850000000000000         -1.2376499994656034E-016
 -0.12740000000000001          3.5858083677804697E-016
 -0.12630000000000002          8.7715449764984733E-016
 -0.12520000000000001          8.0594099670283008E-016
 -0.12410000000000000         -3.3774054402292057E-016
 -0.12300000000000001         -2.1496734818919009E-015
 -0.12190000000000001         -3.0332976171928766E-015
 -0.12080000000000000         -1.0998414711862526E-015
 -0.11970000000000000          3.8020174980340701E-015
 -0.11860000000000001          8.4510984365085418E-015
 -0.11750000000000001          7.2917644416015809E-015
 -0.11640000000000000         -2.9768875522463451E-015
 -0.11530000000000000         -1.7894994026098482E-014
 -0.11420000000000001         -2.4476816108892976E-014
 -0.11310000000000001         -9.4843803763369067E-015
 -0.11200000000000000          2.6199057707359044E-014
 -0.11090000000000001          5.8873384140879781E-014
 -0.10980000000000001          5.2293500069468604E-014
 -0.10870000000000000         -1.2014295842097209E-014
 -0.10760000000000000         -1.0432975284472429E-013
 -0.10650000000000001         -1.4833680074197164E-013
 -0.10540000000000001         -7.1868231580739933E-014
 -0.10430000000000000          1.1777132546096636E-013
 -0.10320000000000000          2.9749930275345393E-013
 -0.10210000000000001          2.8879063853834430E-013
 -0.10100000000000001          4.0303555577572009E-015
  -9.9900000000000003E-002    -4.2355152046237576E-013
  -9.8799999999999999E-002    -6.6218227732714463E-013
  -9.7700000000000009E-002    -4.0540414449931339E-013
  -9.6600000000000005E-002     3.2802241283456934E-013
  -9.5500000000000002E-002     1.0725530706634512E-012
  -9.4400000000000012E-002     1.1631364274511391E-012
  -9.3300000000000008E-002     2.6744657378487136E-013
  -9.2200000000000004E-002    -1.1843202200184644E-012
  -9.1100000000000000E-002    -2.1108048035151095E-012
  -9.0000000000000011E-002    -1.5256105840438794E-012
  -8.8900000000000007E-002     5.4595813547136940E-013
  -8.7800000000000003E-002     2.7614666196079662E-012
  -8.6699999999999999E-002     3.2455967167305255E-012
  -8.5600000000000009E-002     1.0958426006901778E-012
  -8.4500000000000006E-002    -2.5337501194377943E-012
  -8.3400000000000002E-002    -4.8760531203007051E-012
  -8.2299999999999998E-002    -3.5637131266808009E-012
  -8.1200000000000008E-002     1.1586045707903669E-012
  -8.0100000000000005E-002     5.9588232785567907E-012
  -7.9000000000000001E-002     6.5798217568913131E-012
  -7.7899999999999997E-002     1.4059623690970691E-012
  -7.6800000000000007E-002    -6.3929950742946939E-012
  -7.5700000000000003E-002    -1.0436305465655327E-011
  -7.4600000000000000E-002    -5.9926720703817882E-012
  -7.3500000000000010E-002     5.3455482228181861E-012
  -7.2399999999999992E-002     1.5366404329530958E-011
  -7.1300000000000002E-002     1.4704116396702105E-011
  -7.0200000000000012E-002     7.3859044965110532E-013
  -6.9099999999999995E-002    -1.8333222093214196E-011
  -6.8000000000000005E-002    -2.7704609439904715E-011
  -6.6900000000000015E-002    -1.6827945287234414E-011
  -6.5799999999999997E-002     1.0721321400120054E-011
  -6.4700000000000008E-002     3.6905336425752111E-011
  -6.3599999999999990E-002     4.0756998470614647E-011
  -6.2500000000000000E-002     1.4698856715122943E-011
  -6.1400000000000010E-002    -2.6846186731988020E-011
  -6.0299999999999992E-002    -5.5079819177850098E-011
  -5.9200000000000003E-002    -4.7365809191513009E-011
  -5.8100000000000013E-002    -6.0384527239554231E-012
  -5.6999999999999995E-002     4.0334818818266172E-011
  -5.5900000000000005E-002     5.7136597536588951E-011
  -5.4800000000000015E-002     3.1756815926931026E-011
  -5.3699999999999998E-002    -1.3283628537419379E-011
  -5.2600000000000008E-002    -3.6326521651863786E-011
  -5.1499999999999990E-002    -1.3016379640795606E-011
  -5.0400000000000000E-002     3.5821425686810571E-011
  -4.9300000000000010E-002     5.3199396277125999E-011
  -4.8199999999999993E-002    -6.1460931830015220E-012
  -4.7100000000000003E-002    -1.2249622149962391E-010
  -4.6000000000000013E-002    -2.0155169200286593E-010
  -4.4899999999999995E-002    -1.3358712747102430E-010
  -4.3800000000000006E-002     1.0761816437998561E-010
  -4.2699999999999988E-002     4.0097425380025697E-010
  -4.1599999999999998E-002     5.1965631797656897E-010
  -4.0500000000000008E-002     2.8140270669219092E-010
  -3.9399999999999991E-002    -2.8061425405567775E-010
  -3.8300000000000001E-002    -8.6137441623890254E-010
  -3.7200000000000011E-002    -1.0271408168449625E-009
  -3.6099999999999993E-002    -5.0889942260212706E-010
  -3.5000000000000003E-002     5.3775334185601764E-010
  -3.3900000000000013E-002     1.5180795509550649E-009
  -3.2799999999999996E-002     1.7113773731480819E-009
  -3.1700000000000006E-002     7.6653794423009458E-010
  -3.0599999999999988E-002    -9.4169483322303904E-010
  -2.9499999999999998E-002    -2.3960931017086295E-009
  -2.8400000000000009E-002    -2.5098239042620207E-009
  -2.7299999999999991E-002    -8.9142826453780799E-010
  -2.6200000000000001E-002     1.7065113766534523E-009
  -2.5100000000000011E-002     3.6539358205800454E-009
  -2.3999999999999994E-002     3.4022822337220759E-009
  -2.2900000000000004E-002     6.1292254605049834E-010
  -2.1800000000000014E-002    -3.3082647732385340E-009
  -2.0699999999999996E-002    -5.7887490356733906E-009
  -1.9600000000000006E-002    -4.6353134663945639E-009
  -1.8499999999999989E-002     3.0675709195016054E-010
  -1.7399999999999999E-002     6.5141354532727291E-009
  -1.6300000000000009E-002     9.8592103370265249E-009
  -1.5199999999999991E-002     7.0766659199250626E-009
  -1.4100000000000001E-002    -1.7260063378543578E-009
  -1.3000000000000012E-002    -1.2216221811911510E-008
  -1.1899999999999994E-002    -1.7635917615166363E-008
  -1.0800000000000004E-002    -1.2709838514979310E-008
  -9.6999999999999864E-003     2.4131090459178495E-009
  -8.5999999999999965E-003     2.0781484977305809E-008
  -7.5000000000000067E-003     3.1362876740104184E-008
  -6.3999999999999890E-003     2.5101181577724674E-008
  -5.2999999999999992E-003     1.2154240947026551E-009
  -4.2000000000000093E-003    -3.0222192748396992E-008
  -3.0999999999999917E-003    -5.1924061494901252E-008
  -2.0000000000000018E-003    -4.8364231730602114E-008
  -9.0000000000001190E-004    -1.5674597619863562E-008
   2.0000000000000573E-004     3.3476773353413591E-008
   1.2999999999999956E-003     7.4074556266623404E-008
   2.4000000000000132E-003     8.1262186313324491E-008
   3.5000000000000031E-003     4.5125208458784982E-008
   4.5999999999999930E-003    -2.0847419790470667E-008
   5.7000000000000106E-003    -8.3918330062715540E-008
   6.8000000000000005E-003    -1.0851087495211686E-007
   7.8999999999999904E-003    -7.6873568843893736E-008
   9.0000000000000080E-003    -2.0138295475646828E-009
   1.0099999999999998E-002     7.6240063151544746E-008
   1.1199999999999988E-002     1.1211887596118686E-007
   1.2300000000000005E-002     8.1204490243180771E-008
   1.3399999999999995E-002    -2.0041870385512084E-009
   1.4500000000000013E-002    -8.8593672842307569E-008
   1.5600000000000003E-002    -1.2189138942630962E-007
   1.6699999999999993E-002    -7.2249335403284931E-008
   1.7800000000000010E-002     4.1140928885852190E-008
   1.8900000000000000E-002     1.5688107168898568E-007
   1.9999999999999990E-002     2.0545907375435490E-007
   2.1100000000000008E-002     1.5180398804659490E-007
   2.2199999999999998E-002     1.9467357503799576E-008
   2.3300000000000015E-002    -1.2144123218149616E-007
   2.4400000000000005E-002    -1.9833693443160882E-007
   2.5499999999999995E-002    -1.8582905170205777E-007
   2.6600000000000013E-002    -1.2727193166028883E-007
   2.7700000000000002E-002    -1.0922836679583270E-007
   2.8799999999999992E-002    -1.9985199628536066E-007
   2.9900000000000010E-002    -3.8919597500353120E-007
   3.1000000000000000E-002    -5.7455127944194828E-007
   3.2099999999999990E-002    -6.1014696939309943E-007
   3.3200000000000007E-002    -3.9946490915099275E-007
   3.4299999999999997E-002     2.4802261577860918E-008
   3.5400000000000015E-002     4.8976738753481186E-007
   3.6500000000000005E-002     7.6076048571849242E-007
   3.7599999999999995E-002     6.7381898816165631E-007
   3.8700000000000012E-002     2.4557607503084000E-007
   3.9800000000000002E-002    -3.1343262207883527E-007
   4.0899999999999992E-002    -7.0450903422170086E-007
   4.2000000000000010E-002    -7.1469656859335373E-007
   4.3099999999999999E-002    -3.5714157320398954E-007
   4.4200000000000017E-002     1.1552493361932648E-007
   4.5300000000000007E-002     3.4893278666459082E-007
   4.6399999999999997E-002     1.0633709734975128E-007
   4.7500000000000014E-002    -5.6038157936200150E-007
   4.8600000000000004E-002    -1.3031187791057164E-006
   4.9699999999999994E-002    -1.6583715023443801E-006
   5.0800000000000012E-002    -1.3257119917398086E-006
   5.1900000000000002E-002    -3.8143082292663166E-007
   5.2999999999999992E-002     7.1276616608884069E-007
   5.4099999999999981E-002     1.3343404816623661E-006
   5.5200000000000027E-002     1.0462659929544316E-006
   5.6300000000000017E-002    -1.3089321271309018E-007
   5.7400000000000007E-002    -1.6894531427169568E-006
   5.8499999999999996E-002    -2.8839897368015954E-006
   5.9599999999999986E-002    -3.1327033411798766E-006
   6.0700000000000032E-002    -2.3464072000933811E-006
   6.1800000000000022E-002    -9.9118585694668582E-007
   6.2900000000000011E-002     1.6152061732555012E-007
   6.4000000000000001E-002     4.6171561507435399E-007
   6.5099999999999991E-002    -2.5877508846861019E-007
   6.6199999999999981E-002    -1.6025602462832467E-006
   6.7300000000000026E-002    -2.8495448987087002E-006
   6.8400000000000016E-002    -3.3838471154012950E-006
   6.9500000000000006E-002    -3.0509318094118498E-006
   7.0599999999999996E-002    -2.2321034975902876E-006
   7.1699999999999986E-002    -1.5947048268571962E-006
   7.2800000000000031E-002    -1.6728478158256621E-006
   7.3900000000000021E-002    -2.5385031676705694E-006
   7.5000000000000011E-002    -3.7674722079827916E-006
   7.6100000000000001E-002    -4.7209273361659143E-006
   7.7199999999999991E-002    -4.9640225370239932E-006
   7.8299999999999981E-002    -4.5550232243840583E-006
   7.9400000000000026E-002    -4.0145905586541630E-006
   8.0500000000000016E-002    -3.9886435843072832E-006
   8.1600000000000006E-002    -4.8135484576050658E-006
   8.2699999999999996E-002    -6.2683784562977962E-006
   8.3799999999999986E-002    -7.6867054303875193E-006
   8.4900000000000031E-002    -8.3766144598484971E-006
   8.6000000000000021E-002    -8.0934369179885834E-006
   8.7100000000000011E-002    -7.2567822826385964E-006
   8.8200000000000001E-002    -6.7502965066523757E-006
   8.9299999999999990E-002    -7.3955984589701984E-006
   9.0399999999999980E-002    -9.4109382189344615E-006
   9.1500000000000026E-002    -1.2198368494864553E-005
   9.2600000000000016E-002    -1.4623251445300411E-005
   9.3700000000000006E-002    -1.5655741663067602E-005
   9.4799999999999995E-002    -1.5010104107204825E-005
   9.5899999999999985E-002    -1.3391479114943650E-005
   9.7000000000000031E-002    -1.2175423762528226E-005
   9.8100000000000021E-002    -1.2669484021898825E-005
   9.9200000000000010E-002    -1.5365965737146325E-005
  0.10030000000000000         -1.9621584215201437E-005
  0.10139999999999999         -2.3961141778272577E-005
  0.10249999999999998         -2.6855082978727296E-005
  0.10360000000000003         -2.7539468646864407E-005
  0.10470000000000002         -2.6422243536217138E-005
  0.10580000000000001         -2.4852692149579525E-005
  0.10690000000000000         -2.4395862055826001E-005
  0.10799999999999998         -2.6019282813649625E-005
  0.10910000000000003         -2.9639797503477894E-005
  0.11020000000000002         -3.4261021937709302E-005
  0.11130000000000001         -3.8581165426876396E-005
  0.11240000000000000         -4.1695144318509847E-005
  0.11349999999999999         -4.3500287574715912E-005
  0.11460000000000004         -4.4608641474042088E-005
  0.11570000000000003         -4.5884669816587120E-005
  0.11680000000000001         -4.7909765271469951E-005
  0.11790000000000000         -5.0714585086097941E-005
  0.11899999999999999         -5.3901807405054569E-005
  0.12009999999999998         -5.7032371842069551E-005
  0.12120000000000003         -5.9984129620715976E-005
  0.12230000000000002         -6.3036080973688513E-005
  0.12340000000000001         -6.6632666857913136E-005
  0.12450000000000000         -7.1011454565450549E-005
  0.12559999999999999         -7.5950389145873487E-005
  0.12670000000000003         -8.0825848272070289E-005
  0.12780000000000002         -8.4969688032288104E-005
  0.12890000000000001         -8.8081520516425371E-005
  0.13000000000000000         -9.0467088739387691E-005
  0.13109999999999999         -9.2926806246396154E-005
  0.13219999999999998         -9.6346528152935207E-005
  0.13330000000000003         -1.0124696564162150E-004
  0.13440000000000002         -1.0748792556114495E-004
  0.13550000000000001         -1.1437563080107793E-004
  0.13660000000000000         -1.2100048479624093E-004
  0.13769999999999999         -1.2667584815062582E-004
  0.13880000000000003         -1.3123585085850209E-004
  0.13990000000000002         -1.3505981769412756E-004
  0.14100000000000001         -1.3882432540412992E-004
  0.14210000000000000         -1.4317060413304716E-004
  0.14319999999999999         -1.4843963435851038E-004
  0.14429999999999998         -1.5459762653335929E-004
  0.14540000000000003         -1.6133239842019975E-004
  0.14650000000000002         -1.6822393808979541E-004
  0.14760000000000001         -1.7490096797700971E-004
  0.14870000000000000         -1.8115130660589784E-004
  0.14979999999999999         -1.8691911827772856E-004
  0.15090000000000003         -1.9228592282161117E-004
  0.15200000000000002         -1.9745909958146513E-004
  0.15310000000000001         -2.0269794913474470E-004
  0.15420000000000000         -2.0821372163482010E-004
  0.15529999999999999         -2.1411514899227768E-004
  0.15639999999999998         -2.2038345923647285E-004
  0.15750000000000003         -2.2687850287184119E-004
  0.15860000000000002         -2.3339976905845106E-004
  0.15970000000000001         -2.3973724455572665E-004
  0.16080000000000000         -2.4577564909122884E-004
  0.16189999999999999         -2.5149737484753132E-004
  0.16300000000000003         -2.5687500601634383E-004
  0.16410000000000002         -2.6193843223154545E-004
  0.16520000000000001         -2.6669082581065595E-004
  0.16630000000000000         -2.7118978323414922E-004
  0.16739999999999999         -2.7549298829399049E-004
  0.16850000000000004         -2.7973559917882085E-004
  0.16960000000000003         -2.8410030063241720E-004
  0.17070000000000002         -2.8868540539406240E-004
  0.17180000000000001         -2.9344705399125814E-004
  0.17290000000000000         -2.9813003493472934E-004
  0.17399999999999999         -3.0235093436203897E-004
  0.17510000000000003         -3.0575308483093977E-004
  0.17620000000000002         -3.0818770756013691E-004
  0.17730000000000001         -3.0983565375208855E-004
  0.17840000000000000         -3.1103738001547754E-004
  0.17949999999999999         -3.1210118322633207E-004
  0.18060000000000004         -3.1328166369348764E-004
  0.18170000000000003         -3.1464162748306990E-004
  0.18280000000000002         -3.1609833240509033E-004
  0.18390000000000001         -3.1735881930217147E-004
  0.18500000000000000         -3.1817171839065850E-004
  0.18609999999999999         -3.1817035051062703E-004
  0.18720000000000003         -3.1714813667349517E-004
  0.18830000000000002         -3.1506703817285597E-004
  0.18940000000000001         -3.1211340683512390E-004
  0.19050000000000000         -3.0866061570122838E-004
  0.19159999999999999         -3.0510791111737490E-004
  0.19270000000000004         -3.0172069091349840E-004
  0.19380000000000003         -2.9857218032702804E-004
  0.19490000000000002         -2.9537666705437005E-004
  0.19600000000000001         -2.9194602393545210E-004
  0.19710000000000000         -2.8790551004931331E-004
  0.19819999999999999         -2.8280794504098594E-004
  0.19930000000000003         -2.7631290140561759E-004
  0.20040000000000002         -2.6859986246563494E-004
  0.20150000000000001         -2.6023216196335852E-004
  0.20260000000000000         -2.5181294768117368E-004
  0.20369999999999999         -2.4395251239184290E-004
  0.20480000000000004         -2.3679647711105645E-004
  0.20590000000000003         -2.2970284044276923E-004
  0.20700000000000002         -2.2168418217916042E-004
  0.20810000000000001         -2.1256688341964036E-004
  0.20920000000000000         -2.0230031805112958E-004
  0.21029999999999999         -1.9157530914526433E-004
  0.21140000000000003         -1.8081504094880074E-004
  0.21250000000000002         -1.7022657266352326E-004
  0.21360000000000001         -1.5943465405143797E-004
  0.21470000000000000         -1.4842211385257542E-004
  0.21579999999999999         -1.3703521108254790E-004
  0.21690000000000004         -1.2541863543447107E-004
  0.21800000000000003         -1.1348016414558515E-004
  0.21910000000000002         -1.0100819781655446E-004
  0.22020000000000001         -8.8697182945907116E-005
  0.22130000000000000         -7.6833755883853883E-005
  0.22239999999999999         -6.5652115154080093E-005
  0.22350000000000003         -5.4575368267251179E-005
  0.22460000000000002         -4.3068208469776437E-005
  0.22570000000000001         -3.0598956072935835E-005
  0.22680000000000000         -1.7180263967020437E-005
  0.22789999999999999         -3.5011569252674235E-006
  0.22900000000000004          9.8795562735176645E-006
  0.23010000000000003          2.2205942514119670E-005
  0.23120000000000002          3.3394815545761958E-005
  0.23230000000000001          4.3655050831148401E-005
  0.23340000000000000          5.3886349633103237E-005
  0.23450000000000004          6.4300300437025726E-005
  0.23560000000000003          7.5017167546320707E-005
  0.23670000000000002          8.5989930084906518E-005
  0.23780000000000001          9.7176096460316330E-005
  0.23890000000000000          1.0836044384632260E-004
  0.23999999999999999          1.1917225492652506E-004
  0.24110000000000004          1.2928510841447860E-004
  0.24220000000000003          1.3815915735904127E-004
  0.24330000000000002          1.4592464140150696E-004
  0.24440000000000001          1.5270180301740766E-004
  0.24550000000000000          1.5930716472212225E-004
  0.24660000000000004          1.6629320452921093E-004
  0.24770000000000003          1.7366895917803049E-004
  0.24880000000000002          1.8085302144754678E-004
  0.24990000000000001          1.8739598453976214E-004
  0.25100000000000000          1.9319026614539325E-004
  0.25209999999999999          1.9848901138175279E-004
  0.25320000000000004          2.0333836437202990E-004
  0.25430000000000003          2.0722382760141045E-004
  0.25540000000000002          2.1028010814916342E-004
  0.25650000000000001          2.1263198868837208E-004
  0.25760000000000000          2.1475329413078725E-004
  0.25870000000000004          2.1706087864004076E-004
  0.25980000000000003          2.1904656023252755E-004
  0.26090000000000002          2.2003396588843316E-004
  0.26200000000000001          2.2018406889401376E-004
  0.26310000000000000          2.1989381639286876E-004
  0.26419999999999999          2.1967590146232396E-004
  0.26530000000000004          2.1976270363666117E-004
  0.26640000000000003          2.1956829004921019E-004
  0.26750000000000002          2.1872013167012483E-004
  0.26860000000000001          2.1656898024957627E-004
  0.26970000000000000          2.1332371397875249E-004
  0.27080000000000004          2.0977102394681424E-004
  0.27190000000000003          2.0635215332731605E-004
  0.27300000000000002          2.0246941130608320E-004
  0.27410000000000001          1.9818609871435910E-004
  0.27520000000000000          1.9430065003689378E-004
  0.27629999999999999          1.9047487876378000E-004
  0.27740000000000004          1.8721965898294002E-004
  0.27850000000000003          1.8405758601147681E-004
  0.27960000000000002          1.7991533968597651E-004
  0.28070000000000001          1.7449271399527788E-004
  0.28179999999999999          1.6840004536788911E-004
  0.28290000000000004          1.6183989646378905E-004
  0.28400000000000003          1.5484572213608772E-004
  0.28510000000000002          1.4821866352576762E-004
  0.28620000000000001          1.4220466255210340E-004
  0.28730000000000000          1.3666538870893419E-004
  0.28840000000000005          1.3189560559112579E-004
  0.28950000000000004          1.2802325363736600E-004
  0.29060000000000002          1.2369835167191923E-004
  0.29170000000000001          1.1843576794490218E-004
  0.29280000000000000          1.1167126649525017E-004
  0.29389999999999999          1.0408346133772284E-004
  0.29500000000000004          9.6626776212360710E-005
  0.29610000000000003          9.0790010290220380E-005
  0.29720000000000002          8.6080806795507669E-005
  0.29830000000000001          8.1838639744091779E-005
  0.29940000000000000          7.7173746831249446E-005
  0.30050000000000004          7.1960894274525344E-005
  0.30160000000000003          6.7305038101039827E-005
  0.30270000000000002          6.3325096562039107E-005
  0.30380000000000001          5.9209520259173587E-005
  0.30490000000000000          5.4525185987586156E-005
  0.30599999999999999          5.0294318498345092E-005
  0.30709999999999998          4.6417455450864509E-005
  0.30819999999999997          4.3101212213514373E-005
  0.30930000000000007          3.9922862924868241E-005
  0.31040000000000006          3.7063255149405450E-005
  0.31150000000000005          3.3927404729183763E-005
  0.31260000000000004          3.0790197342867032E-005
  0.31370000000000003          2.7936464903177693E-005
  0.31480000000000002          2.6190860808128491E-005
  0.31590000000000001          2.5389717848156579E-005
  0.31700000000000000          2.5255892978748307E-005
  0.31809999999999999          2.5454821297898889E-005
  0.31919999999999998          2.4883351215976290E-005
  0.32029999999999997          2.3857961423345841E-005
  0.32140000000000007          2.2743051886209287E-005
  0.32250000000000006          2.1535912310355343E-005
  0.32360000000000005          2.1112735339556821E-005
  0.32470000000000004          2.1643516447511502E-005
  0.32580000000000003          2.3636426703887992E-005
  0.32690000000000002          2.6603185688145459E-005
  0.32800000000000001          2.9426175387925468E-005
  0.32910000000000000          3.1544772355118766E-005
  0.33019999999999999          3.2535801437916234E-005
  0.33129999999999998          3.3497897675260901E-005
  0.33239999999999997          3.5272889363113791E-005
  0.33350000000000007          3.8112153561087325E-005
  0.33460000000000006          4.1883675294229761E-005
  0.33570000000000005          4.5477063395082951E-005
  0.33680000000000004          4.8715995944803581E-005
  0.33790000000000003          5.2351882914081216E-005
  0.33900000000000002          5.6712051446083933E-005
  0.34010000000000001          6.1267535784281790E-005
  0.34120000000000000          6.5568026911932975E-005
  0.34229999999999999          6.9052002800162882E-005
  0.34339999999999998          7.2746661317069083E-005
  0.34449999999999997          7.7328368206508458E-005
  0.34560000000000007          8.3584694948513061E-005
  0.34670000000000006          9.0386274678166956E-005
  0.34780000000000005          9.5870396762620658E-005
  0.34890000000000004          1.0017812019214034E-004
