 -0.20000000000000001          0.0000000000000000
 -0.19890000000000002          0.0000000000000000
 -0.19780000000000000          0.0000000000000000
 -0.19670000000000001          0.0000000000000000
 -0.19560000000000002          2.3066010790379982E-017
 -0.19450000000000001         -1.5359351664702675E-016
 -0.19340000000000002         -1.3056317256117107E-015
 -0.19230000000000000         -3.5618374941918506E-015
 -0.19120000000000001         -3.6675031602959301E-015
 -0.19010000000000002          4.3671074819817777E-015
 -0.18900000000000000          2.0092514281598410E-014
 -0.18790000000000001          2.5900293940269402E-014
 -0.18680000000000002         -4.7532503208772264E-015
 -0.18570000000000000         -7.0867885670032604E-014
 -0.18460000000000001         -1.1080555011944507E-013
 -0.18350000000000000         -3.1292463330842915E-014
 -0.18240000000000001          1.8679650111864260E-013
 -0.18130000000000002          3.9424258128917256E-013
 -0.18020000000000000          3.3067835579145277E-013
 -0.17910000000000001         -1.3544865912467480E-013
 -0.17800000000000002         -7.7090379435942880E-013
 -0.17690000000000000         -1.0338896622510974E-012
 -0.17580000000000001         -5.0530434871076668E-013
 -0.17470000000000002          6.2441566674176219E-013
 -0.17360000000000000          1.5296064111505747E-012
 -0.17250000000000001          1.3785466908625144E-012
 -0.17140000000000000          1.5362297751172344E-013
 -0.17030000000000001         -1.1531224109254112E-012
 -0.16920000000000002         -1.3387267639927702E-012
 -0.16810000000000000         -1.7836593476077550E-013
 -0.16700000000000001          1.1631119244820409E-012
 -0.16589999999999999          1.0990060857890560E-012
 -0.16480000000000000         -7.6921796840143108E-013
 -0.16370000000000001         -2.9646938116273391E-012
 -0.16260000000000002         -3.2589057320786541E-012
 -0.16150000000000000         -7.5774586258403609E-013
 -0.16040000000000001          3.0285609090019427E-012
 -0.15930000000000000          5.3378954902039144E-012
 -0.15820000000000001          4.6022114071064824E-012
 -0.15710000000000002          1.8341903516849722E-012
 -0.15600000000000000         -5.1424294510160617E-013
 -0.15490000000000001         -1.1635087424771706E-012
 -0.15379999999999999         -1.3689407680345100E-012
 -0.15270000000000000         -3.4019135165125336E-012
 -0.15160000000000001         -7.5001836338794980E-012
 -0.15050000000000002         -1.0522026826220721E-011
 -0.14940000000000001         -8.1594991180322651E-012
 -0.14830000000000002          9.8653843341039993E-013
 -0.14720000000000000          1.3360743934820452E-011
 -0.14610000000000001          2.2707289173973244E-011
 -0.14500000000000002          2.4797872089088457E-011
 -0.14390000000000000          2.0289795885086725E-011
 -0.14280000000000001          1.3126467794666308E-011
 -0.14169999999999999          6.3138708671084398E-012
 -0.14060000000000000         -4.9988181996529768E-013
 -0.13950000000000001         -9.2218611219552216E-012
 -0.13840000000000002         -1.9472378570695170E-011
 -0.13730000000000001         -2.7207359629133343E-011
 -0.13619999999999999         -2.7720057152458288E-011
 -0.13510000000000000         -2.0069336817418737E-011
 -0.13400000000000001         -8.1411899791050679E-012
 -0.13290000000000002          2.9918331267281273E-012
 -0.13180000000000000          1.1519491957545647E-011
 -0.13070000000000001          1.9085488398018491E-011
 -0.12959999999999999          2.6283504886426279E-011
 -0.12850000000000000          2.8717205696748849E-011
 -0.12740000000000001          1.9139930959588547E-011
 -0.12630000000000002         -5.0841392727762891E-012
 -0.12520000000000001         -3.6522052743181987E-011
 -0.12410000000000000         -6.0955268610385360E-011
 -0.12300000000000001         -6.7941346992839158E-011
 -0.12190000000000001         -5.9290371223763572E-011
 -0.12080000000000000         -4.7071336412018994E-011
 -0.11970000000000000         -4.2573847225391148E-011
 -0.11860000000000001         -4.6767353878429674E-011
 -0.11750000000000001         -5.1575015092009124E-011
 -0.11640000000000000         -5.0307494281476295E-011
 -0.11530000000000000         -4.5926144831565097E-011
 -0.11420000000000001         -4.7850556850193016E-011
 -0.11310000000000001         -6.0299591708723455E-011
 -0.11200000000000000         -7.4961259421968407E-011
 -0.11090000000000001         -7.7159542644089640E-011
 -0.10980000000000001         -6.0489842301780783E-011
 -0.10870000000000000         -3.4841751012093525E-011
 -0.10760000000000000         -1.8295023482273187E-011
 -0.10650000000000001         -1.9958718705526124E-011
 -0.10540000000000001         -3.1323141996830728E-011
 -0.10430000000000000         -3.6059866898030535E-011
 -0.10320000000000000         -2.9035310614156096E-011
 -0.10210000000000001         -2.4378502688771064E-011
 -0.10100000000000001         -4.2424723456502278E-011
  -9.9900000000000003E-002    -8.7401495763028691E-011
  -9.8799999999999999E-002    -1.3911434504354503E-010
  -9.7700000000000009E-002    -1.6931675506093313E-010
  -9.6600000000000005E-002    -1.6819619308439115E-010
  -9.5500000000000002E-002    -1.5435516753647960E-010
  -9.4400000000000012E-002    -1.5680355625047326E-010
  -9.3300000000000008E-002    -1.8594470407862218E-010
  -9.2200000000000004E-002    -2.2319184000973991E-010
  -9.1100000000000000E-002    -2.4108845475545593E-010
  -9.0000000000000011E-002    -2.3424287509676844E-010
  -8.8900000000000007E-002    -2.2848765934835313E-010
  -8.7800000000000003E-002    -2.5649243839964697E-010
  -8.6699999999999999E-002    -3.2296071372783786E-010
  -8.5600000000000009E-002    -3.9559119868748382E-010
  -8.4500000000000006E-002    -4.3377584857395846E-010
  -8.3400000000000002E-002    -4.2838765867969641E-010
  -8.2299999999999998E-002    -4.1252695703875020E-010
  -8.1200000000000008E-002    -4.3052808540444687E-010
  -8.0100000000000005E-002    -4.9476400754144834E-010
  -7.9000000000000001E-002    -5.7373189532583524E-010
  -7.7899999999999997E-002    -6.2457483629430044E-010
  -7.6800000000000007E-002    -6.3789501458799691E-010
  -7.5700000000000003E-002    -6.4880595340710556E-010
  -7.4600000000000000E-002    -7.0152966769043701E-010
  -7.3500000000000010E-002    -8.0277740011069909E-010
  -7.2399999999999992E-002    -9.1233193222350906E-010
  -7.1300000000000002E-002    -9.8239982815329085E-010
  -7.0200000000000012E-002    -1.0067544575775855E-009
  -6.9099999999999995E-002    -1.0286932417002959E-009
  -6.8000000000000005E-002    -1.0976051179056867E-009
  -6.6900000000000015E-002    -1.2171820218398466E-009
  -6.5799999999999997E-002    -1.3389538366936904E-009
  -6.4700000000000008E-002    -1.4099434952896672E-009
  -6.3599999999999990E-002    -1.4272931725400895E-009
  -6.2500000000000000E-002    -1.4435092010600670E-009
  -6.1400000000000010E-002    -1.5149436149997086E-009
  -6.0299999999999992E-002    -1.6445943495924098E-009
  -5.9200000000000003E-002    -1.7779011596275041E-009
  -5.8100000000000013E-002    -1.8572960946983130E-009
  -5.6999999999999995E-002    -1.8806842749796715E-009
  -5.5900000000000005E-002    -1.9034764875414112E-009
  -5.4800000000000015E-002    -1.9806076778650095E-009
  -5.3699999999999998E-002    -2.1072121825227441E-009
  -5.2600000000000008E-002    -2.2197665927592425E-009
  -5.1499999999999990E-002    -2.2585335823777086E-009
  -5.0400000000000000E-002    -2.2283794809396795E-009
  -4.9300000000000010E-002    -2.1947339501338092E-009
  -4.8199999999999993E-002    -2.2166293245362567E-009
  -4.7100000000000003E-002    -2.2840056512762885E-009
  -4.6000000000000013E-002    -2.3239679070030661E-009
  -4.4899999999999995E-002    -2.2714488068231731E-009
  -4.3800000000000006E-002    -2.1332609012603143E-009
  -4.2699999999999988E-002    -1.9796035921615385E-009
  -4.1599999999999998E-002    -1.8700478943145527E-009
  -4.0500000000000008E-002    -1.7883837744037123E-009
  -3.9399999999999991E-002    -1.6530099511413709E-009
  -3.8300000000000001E-002    -1.3934945419791234E-009
  -3.7200000000000011E-002    -1.0163532238038897E-009
  -3.6099999999999993E-002    -5.9319477108132901E-010
  -3.5000000000000003E-002    -1.8293577763728308E-010
  -3.3900000000000013E-002     2.3311436114781259E-010
  -3.2799999999999996E-002     7.3741091011214621E-010
  -3.1700000000000006E-002     1.3977872193038365E-009
  -3.0599999999999988E-002     2.2047168535266337E-009
  -2.9499999999999998E-002     3.0884850232837380E-009
  -2.8400000000000009E-002     3.9990721845128974E-009
  -2.7299999999999991E-002     4.9674788726861152E-009
  -2.6200000000000001E-002     6.0860791961658833E-009
  -2.5100000000000011E-002     7.4281079065485756E-009
  -2.3999999999999994E-002     8.9876994735504923E-009
  -2.2900000000000004E-002     1.0700326846802000E-008
  -2.1800000000000014E-002     1.2521492287476121E-008
  -2.0699999999999996E-002     1.4483151566935248E-008
  -1.9600000000000006E-002     1.6671741320806177E-008
  -1.8499999999999989E-002     1.9152713193193449E-008
  -1.7399999999999999E-002     2.1919916548540641E-008
  -1.6300000000000009E-002     2.4920634444924872E-008
  -1.5199999999999991E-002     2.8128512852276799E-008
  -1.4100000000000001E-002     3.1588381688152367E-008
  -1.3000000000000012E-002     3.5388179497886085E-008
  -1.1899999999999994E-002     3.9589313161059181E-008
  -1.0800000000000004E-002     4.4188478653950369E-008
  -9.6999999999999864E-003     4.9148884073701993E-008
  -8.5999999999999965E-003     5.4465338905629324E-008
  -7.5000000000000067E-003     6.0193976025857410E-008
  -6.3999999999999890E-003     6.6416525612567057E-008
  -5.2999999999999992E-003     7.3179023729608161E-008
  -4.2000000000000093E-003     8.0470684338251885E-008
  -3.0999999999999917E-003     8.8264641817659140E-008
  -2.0000000000000018E-003     9.6576385999469494E-008
  -9.0000000000001190E-004     1.0547748985345606E-007
   2.0000000000000573E-004     1.1505101582542920E-007
   1.2999999999999956E-003     1.2533729432107066E-007
   2.4000000000000132E-003     1.3632866568968893E-007
   3.5000000000000031E-003     1.4801742054260103E-007
   4.5999999999999930E-003     1.6044457140651502E-007
   5.7000000000000106E-003     1.7369504234920896E-007
   6.8000000000000005E-003     1.8784390931614325E-007
   7.8999999999999904E-003     2.0291106750391918E-007
   9.0000000000000080E-003     2.1887470325054892E-007
   1.0099999999999998E-002     2.3573099383611407E-007
   1.1199999999999988E-002     2.5353719479426218E-007
   1.2300000000000005E-002     2.7239170208304131E-007
   1.3399999999999995E-002     2.9237082799227210E-007
   1.4500000000000013E-002     3.1348955076282436E-007
   1.5600000000000003E-002     3.3572780466784025E-007
   1.6699999999999993E-002     3.5909548046220152E-007
   1.7800000000000010E-002     3.8366687249435927E-007
   1.8900000000000000E-002     4.0954645896817965E-007
   1.9999999999999990E-002     4.3680063299689209E-007
   2.1100000000000008E-002     4.6542649556613469E-007
   2.2199999999999998E-002     4.9539164592715679E-007
   2.3300000000000015E-002     5.2670361583295744E-007
   2.4400000000000005E-002     5.5943746701814234E-007
   2.5499999999999995E-002     5.9369256177888019E-007
   2.6600000000000013E-002     6.2952403823146597E-007
   2.7700000000000002E-002     6.6692092559605953E-007
   2.8799999999999992E-002     7.0585360845143441E-007
   2.9900000000000010E-002     7.4633925351008656E-007
   3.1000000000000000E-002     7.8845778261893429E-007
   3.2099999999999990E-002     8.3229895153635880E-007
   3.3200000000000007E-002     8.7789783265179722E-007
   3.4299999999999997E-002     9.2522469685718534E-007
   3.5400000000000015E-002     9.7423958322906401E-007
   3.6500000000000005E-002     1.0249536899209488E-006
   3.7599999999999995E-002     1.0774323300211108E-006
   3.8700000000000012E-002     1.1317381449771347E-006
   3.9800000000000002E-002     1.1878765917572309E-006
   4.0899999999999992E-002     1.2457999218895566E-006
   4.2000000000000010E-002     1.3054684586677467E-006
   4.3099999999999999E-002     1.3669005056726746E-006
   4.4200000000000017E-002     1.4301590454124380E-006
   4.5300000000000007E-002     1.4952859146433184E-006
   4.6399999999999997E-002     1.5622558748873416E-006
   4.7500000000000014E-002     1.6309959391946904E-006
   4.8600000000000004E-002     1.7014515378832584E-006
   4.9699999999999994E-002     1.7736277868607431E-006
   5.0800000000000012E-002     1.8475628849046188E-006
   5.1900000000000002E-002     1.9232604699936928E-006
   5.2999999999999992E-002     2.0006550585094374E-006
   5.4099999999999981E-002     2.0796483113372233E-006
   5.5200000000000027E-002     2.1601795197057072E-006
   5.6300000000000017E-002     2.2422548227041261E-006
   5.7400000000000007E-002     2.3259044610313140E-006
   5.8499999999999996E-002     2.4111102447932353E-006
   5.9599999999999986E-002     2.4977769044198794E-006
   6.0700000000000032E-002     2.5857825676212087E-006
   6.1800000000000022E-002     2.6750487904791953E-006
   6.2900000000000011E-002     2.7655639769363916E-006
   6.4000000000000001E-002     2.8573301733558765E-006
   6.5099999999999991E-002     2.9502919005608419E-006
   6.6199999999999981E-002     3.0443213745456887E-006
   6.7300000000000026E-002     3.1392758046422387E-006
   6.8400000000000016E-002     3.2350690162274987E-006
   6.9500000000000006E-002     3.3316812277917052E-006
   7.0599999999999996E-002     3.4291010706510860E-006
   7.1699999999999986E-002     3.5272562399768503E-006
   7.2800000000000031E-002     3.6260073557059513E-006
   7.3900000000000021E-002     3.7252061702020001E-006
   7.5000000000000011E-002     3.8247612792474683E-006
   7.6100000000000001E-002     3.9246374399226625E-006
   7.7199999999999991E-002     4.0247946344607044E-006
   7.8299999999999981E-002     4.1251314542023465E-006
   7.9400000000000026E-002     4.2254891923221294E-006
   8.0500000000000016E-002     4.3257173274469096E-006
   8.1600000000000006E-002     4.4257253648538608E-006
   8.2699999999999996E-002     4.5254760152602103E-006
   8.3799999999999986E-002     4.6249233491835184E-006
   8.4900000000000031E-002     4.7239632294804323E-006
   8.6000000000000021E-002     4.8224469537672121E-006
   8.7100000000000011E-002     4.9202412810700480E-006
   8.8200000000000001E-002     5.0172652663604822E-006
   8.9299999999999990E-002     5.1134743443981279E-006
   9.0399999999999980E-002     5.2088048505538609E-006
   9.1500000000000026E-002     5.3031394600111526E-006
   9.2600000000000016E-002     5.3963335631124210E-006
   9.3700000000000006E-002     5.4882716540305410E-006
   9.4799999999999995E-002     5.5788932513678446E-006
   9.5899999999999985E-002     5.6681642490730155E-006
   9.7000000000000031E-002     5.7560228015063331E-006
   9.8100000000000021E-002     5.8423611335456371E-006
   9.9200000000000010E-002     5.9270573729008902E-006
  0.10030000000000000          6.0100283008068800E-006
  0.10139999999999999          6.0912407207069919E-006
  0.10249999999999998          6.1706728047283832E-006
  0.10360000000000003          6.2482677094521932E-006
  0.10470000000000002          6.3239253904612269E-006
  0.10580000000000001          6.3975467128329910E-006
  0.10690000000000000          6.4690771068853792E-006
  0.10799999999999998          6.5385038396925665E-006
  0.10910000000000003          6.6058155425707810E-006
  0.11020000000000002          6.6709671955322847E-006
  0.11130000000000001          6.7338837652641814E-006
  0.11240000000000000          6.7945070441055577E-006
  0.11349999999999999          6.8528242991305888E-006
  0.11460000000000004          6.9088550844753627E-006
  0.11570000000000003          6.9626071308448445E-006
  0.11680000000000001          7.0140495154191740E-006
  0.11790000000000000          7.0631317612424027E-006
  0.11899999999999999          7.1098215812526178E-006
  0.12009999999999998          7.1541312536282931E-006
  0.12120000000000003          7.1960944296733942E-006
  0.12230000000000002          7.2357302087766584E-006
  0.12340000000000001          7.2730276770016644E-006
  0.12450000000000000          7.3079668254649732E-006
  0.12559999999999999          7.3405590228503570E-006
  0.12670000000000003          7.3708533818717115E-006
  0.12780000000000002          7.3989067459478974E-006
  0.12890000000000001          7.4247504926461261E-006
  0.13000000000000000          7.4483846219663974E-006
  0.13109999999999999          7.4698123171401676E-006
  0.13219999999999998          7.4890717769449111E-006
  0.13330000000000003          7.5062303039885592E-006
  0.13440000000000002          7.5213524723949376E-006
  0.13550000000000001          7.5344701144786086E-006
  0.13660000000000000          7.5455955084180459E-006
  0.13769999999999999          7.5547545748122502E-006
  0.13880000000000003          7.5620146162691526E-006
  0.13990000000000002          7.5674661275115795E-006
  0.14100000000000001          7.5711850513471290E-006
  0.14210000000000000          7.5732095865532756E-006
  0.14319999999999999          7.5735629252449144E-006
  0.14429999999999998          7.5722882684203796E-006
  0.14540000000000003          7.5694661063607782E-006
  0.14650000000000002          7.5651842053048313E-006
  0.14760000000000001          7.5595053203869611E-006
  0.14870000000000000          7.5524603744270280E-006
  0.14979999999999999          7.5440775617607869E-006
  0.15090000000000003          7.5344205470173620E-006
  0.15200000000000002          7.5235834628983866E-006
  0.15310000000000001          7.5116577136213891E-006
  0.15420000000000000          7.4986987783631776E-006
  0.15529999999999999          7.4847330324701034E-006
  0.15639999999999998          7.4697945819934830E-006
  0.15750000000000003          7.4539566412568092E-006
  0.15860000000000002          7.4373147072037682E-006
  0.15970000000000001          7.4199451773893088E-006
  0.16080000000000000          7.4018807936226949E-006
  0.16189999999999999          7.3831320150929969E-006
  0.16300000000000003          7.3637347668409348E-006
  0.16410000000000002          7.3437699938949663E-006
  0.16520000000000001          7.3233359216828831E-006
  0.16630000000000000          7.3024989433179144E-006
  0.16739999999999999          7.2812749749573413E-006
  0.16850000000000004          7.2596662903379183E-006
  0.16960000000000003          7.2377101787424181E-006
  0.17070000000000002          7.2154925874201581E-006
  0.17180000000000001          7.1931031015992630E-006
  0.17290000000000000          7.1705881055095233E-006
  0.17399999999999999          7.1479398684459738E-006
  0.17510000000000003          7.1251452027354389E-006
  0.17620000000000002          7.1022377596818842E-006
  0.17730000000000001          7.0793003033031709E-006
  0.17840000000000000          7.0564174166065641E-006
  0.17949999999999999          7.0336227508960292E-006
  0.18060000000000004          7.0108994805195834E-006
  0.18170000000000003          6.9882294155831914E-006
  0.18280000000000002          6.9656421146646608E-006
  0.18390000000000001          6.9432112468348350E-006
  0.18500000000000000          6.9210032052069437E-006
  0.18609999999999999          6.8990339059382677E-006
  0.18720000000000003          6.8772760641877539E-006
  0.18830000000000002          6.8557092163246125E-006
  0.18940000000000001          6.8343633756740019E-006
  0.19050000000000000          6.8133062995912042E-006
  0.19159999999999999          6.7925861912954133E-006
  0.19270000000000004          6.7722025960392784E-006
  0.19380000000000003          6.7521223172661848E-006
  0.19490000000000002          6.7323312578082550E-006
  0.19600000000000001          6.7128630689694546E-006
  0.19710000000000000          6.6937736846739426E-006
  0.19819999999999999          6.6750935729942285E-006
  0.19930000000000003          6.6568068177730311E-006
  0.20040000000000002          6.6388765844749287E-006
  0.20150000000000001          6.6212951423949562E-006
  0.20260000000000000          6.6040965975844301E-006
  0.20369999999999999          6.5873250605363864E-006
  0.20480000000000004          6.5709928094292991E-006
  0.20590000000000003          6.5550730141694658E-006
  0.20700000000000002          6.5395342971896753E-006
  0.20810000000000001          6.5243821154581383E-006
  0.20920000000000000          6.5096583057311364E-006
  0.21029999999999999          6.4954001572914422E-006
  0.21140000000000003          6.4816003941814415E-006
  0.21250000000000002          6.4682153606554493E-006
  0.21360000000000001          6.4552109506621491E-006
  0.21470000000000000          6.4425989876326639E-006
  0.21579999999999999          6.4304263105441350E-006
  0.21690000000000004          6.4187247517111246E-006
  0.21800000000000003          6.4074797592184041E-006
  0.21910000000000002          6.3966449488361832E-006
  0.22020000000000001          6.3861948547128122E-006
  0.22130000000000000          6.3761522142158356E-006
  0.22239999999999999          6.3665647758170962E-006
  0.22350000000000003          6.3574539126420859E-006
  0.22460000000000002          6.3487909756076988E-006
  0.22570000000000001          6.3405263972526882E-006
  0.22680000000000000          6.3326401686936151E-006
  0.22789999999999999          6.3251613937609363E-006
  0.22900000000000004          6.3181364566844422E-006
  0.23010000000000003          6.3115785451373085E-006
  0.23120000000000002          6.3054544625629205E-006
  0.23230000000000001          6.2997200984682422E-006
  0.23340000000000000          6.2943686316430103E-006
  0.23450000000000004          6.2894382608646993E-006
  0.23560000000000003          6.2849735513736960E-006
  0.23670000000000002          6.2809754126647022E-006
  0.23780000000000001          6.2774024627287872E-006
  0.23890000000000000          6.2742124100623187E-006
  0.23999999999999999          6.2714038904232439E-006
  0.24110000000000004          6.2690196500625461E-006
  0.24220000000000003          6.2670978877576999E-006
  0.24330000000000002          6.2656322370457929E-006
  0.24440000000000001          6.2645794969284907E-006
  0.24550000000000000          6.2639091993332841E-006
  0.24660000000000004          6.2636363509227522E-006
  0.24770000000000003          6.2638073359266855E-006
  0.24880000000000002          6.2644521676702425E-006
  0.24990000000000001          6.2655526562593877E-006
  0.25100000000000000          6.2670605984749272E-006
  0.25209999999999999          6.2689496189705096E-006
  0.25320000000000004          6.2712406361242756E-006
  0.25430000000000003          6.2739773056819104E-006
  0.25540000000000002          6.2771791817795020E-006
  0.25650000000000001          6.2808212533127517E-006
  0.25760000000000000          6.2848607740306761E-006
  0.25870000000000004          6.2892859205021523E-006
  0.25980000000000003          6.2941285250417423E-006
  0.26090000000000002          6.2994331528898329E-006
  0.26200000000000001          6.3052079894987401E-006
  0.26310000000000000          6.3114171098277438E-006
  0.26419999999999999          6.3180145843944047E-006
  0.26530000000000004          6.3249926824937575E-006
  0.26640000000000003          6.3323891481559258E-006
  0.26750000000000002          6.3402453633898403E-006
  0.26860000000000001          6.3485585997113958E-006
  0.26970000000000000          6.3572842918802053E-006
  0.27080000000000004          6.3663819673820399E-006
  0.27190000000000003          6.3758548094483558E-006
  0.27300000000000002          6.3857464738248382E-006
  0.27410000000000001          6.3960924308048561E-006
  0.27520000000000000          6.4068808569572866E-006
  0.27629999999999999          6.4180621848208830E-006
  0.27740000000000004          6.4295973061234690E-006
  0.27850000000000003          6.4414930420753080E-006
  0.27960000000000002          6.4537894104432780E-006
  0.28070000000000001          6.4665132413210813E-006
  0.28179999999999999          6.4796431615832262E-006
  0.28290000000000004          6.4931277847790625E-006
  0.28400000000000003          6.5069316406152211E-006
  0.28510000000000002          6.5210665525228251E-006
  0.28620000000000001          6.5355720835214015E-006
  0.28730000000000000          6.5504677877470385E-006
  0.28840000000000005          6.5657263803586829E-006
  0.28950000000000004          6.5812951106636319E-006
  0.29060000000000002          6.5971416915999725E-006
  0.29170000000000001          6.6132774918514770E-006
  0.29280000000000000          6.6297352532274090E-006
  0.29389999999999999          6.6465245254221372E-006
  0.29500000000000004          6.6636143856158014E-006
  0.29610000000000003          6.6809525378630497E-006
  0.29720000000000002          6.6985080593440216E-006
  0.29830000000000001          6.7162900450057350E-006
  0.29940000000000000          6.7343244154471904E-006
  0.30050000000000004          6.7526170823839493E-006
  0.30160000000000003          6.7711343945120461E-006
  0.30270000000000002          6.7898281486122869E-006
  0.30380000000000001          6.8086692408542149E-006
  0.30490000000000000          6.8276640377007425E-006
  0.30599999999999999          6.8468280005617999E-006
  0.30709999999999998          6.8661561272165272E-006
  0.30819999999999997          6.8856115831295028E-006
  0.30930000000000007          6.9051502578076907E-006
  0.31040000000000006          6.9247471401467919E-006
  0.31150000000000005          6.9444049586309120E-006
  0.31260000000000004          6.9641300797229633E-006
  0.31370000000000003          6.9839106799918227E-006
  0.31480000000000002          7.0037135628808755E-006
  0.31590000000000001          7.0234991653705947E-006
  0.31700000000000000          7.0432438405987341E-006
  0.31809999999999999          7.0629425863444339E-006
  0.31919999999999998          7.0825926741235889E-006
  0.32029999999999997          7.1021786425262690E-006
  0.32140000000000007          7.1216682044905610E-006
  0.32250000000000006          7.1410272539651487E-006
  0.32360000000000005          7.1602316893404350E-006
  0.32470000000000004          7.1792669587011915E-006
  0.32580000000000003          7.1981221481109969E-006
  0.32690000000000002          7.2167808866652194E-006
  0.32800000000000001          7.2352186180069111E-006
  0.32910000000000000          7.2534098762844224E-006
  0.33019999999999999          7.2713301051408052E-006
  0.33129999999999998          7.2889579314505681E-006
  0.33239999999999997          7.3062728915829211E-006
  0.33350000000000007          7.3232563408964779E-006
  0.33460000000000006          7.3398919084866066E-006
  0.33570000000000005          7.3561609497119207E-006
  0.33680000000000004          7.3720361797313672E-006
  0.33790000000000003          7.3874866757250857E-006
  0.33900000000000002          7.4024874265887775E-006
  0.34010000000000001          7.4170247899019159E-006
  0.34120000000000000          7.4310955824330449E-006
  0.34229999999999999          7.4446897997404449E-006
  0.34339999999999998          7.4577783379936591E-006
  0.34449999999999997          7.4703211794258095E-006
  0.34560000000000007          7.4822855822276324E-006
  0.34670000000000006          7.4936642704415135E-006
  0.34780000000000005          7.5044636105303653E-006
  0.34890000000000004          7.5146826929994859E-006
