 -0.20000000000000001          0.0000000000000000
 -0.19890000000000002          0.0000000000000000
 -0.19780000000000000          0.0000000000000000
 -0.19670000000000001          0.0000000000000000
 -0.19560000000000002          0.0000000000000000
 -0.19450000000000001          0.0000000000000000
 -0.19340000000000002          2.7234175551395913E-017
 -0.19230000000000000          1.6688613703718649E-016
 -0.19120000000000001          1.6404457972716473E-016
 -0.19010000000000002         -1.5703232747606936E-015
 -0.18900000000000000         -6.3666918078179001E-015
 -0.18790000000000001         -5.7820476447663534E-015
 -0.18680000000000002          2.6280012034259927E-014
 -0.18570000000000000          1.0035395637316563E-013
 -0.18460000000000001          1.1723471314822181E-013
 -0.18350000000000000         -1.6645306010268368E-013
 -0.18240000000000001         -8.5350688105653716E-013
 -0.18130000000000002         -1.2890811465146590E-012
 -0.18020000000000000          1.1257771922795409E-013
 -0.17910000000000001          4.3303915141235105E-012
 -0.17800000000000002          8.6097535351159493E-012
 -0.17690000000000000          5.2451211776660678E-012
 -0.17580000000000001         -1.2521672934640016E-011
 -0.17470000000000002         -3.7666689212123572E-011
 -0.17360000000000000         -4.1834567060528016E-011
 -0.17250000000000001          8.3168983852632827E-012
 -0.17140000000000000          1.0816053608309062E-010
 -0.17030000000000001          1.7972565102830629E-010
 -0.16920000000000002          1.0157552576828266E-010
 -0.16810000000000000         -1.7479767633332699E-010
 -0.16700000000000001         -4.9856546668891610E-010
 -0.16589999999999999         -5.3651155740297440E-010
 -0.16480000000000000         -2.4580599708445838E-011
 -0.16370000000000001          8.7818258220906387E-010
 -0.16260000000000002          1.4810984660940107E-009
 -0.16150000000000000          9.8306740525799796E-010
 -0.16040000000000001         -7.3224315499942350E-010
 -0.15930000000000000         -2.6000464004027890E-009
 -0.15820000000000001         -2.8826547815441472E-009
 -0.15710000000000002         -6.4004279654028551E-010
 -0.15600000000000000          2.9557243319544568E-009
 -0.15490000000000001          4.9353925390960285E-009
 -0.15379999999999999          2.8529980600211502E-009
 -0.15270000000000000         -2.5003616954677454E-009
 -0.15160000000000001         -6.6934600084778140E-009
 -0.15050000000000002         -4.9074859731490506E-009
 -0.14940000000000001          3.1424569613136555E-009
 -0.14830000000000002          1.1123508336652321E-008
 -0.14720000000000000          1.0089694413295547E-008
 -0.14610000000000001         -3.2622535783843887E-009
 -0.14500000000000002         -2.0921715915278583E-008
 -0.14390000000000000         -2.7080846010107962E-008
 -0.14280000000000001         -1.0525932125915460E-008
 -0.14169999999999999          2.3165275919723172E-008
 -0.14060000000000000          5.1200661488337573E-008
 -0.13950000000000001          4.8618815640111279E-008
 -0.13840000000000002          9.1058325324411271E-009
 -0.13730000000000001         -4.5630283551645334E-008
 -0.13619999999999999         -7.8447037310525047E-008
 -0.13510000000000000         -6.4258244947268395E-008
 -0.13400000000000001         -1.1060918403416053E-008
 -0.13290000000000002          4.4286572631335730E-008
 -0.13180000000000000          6.4587005965677236E-008
 -0.13070000000000001          4.2740250449924133E-008
 -0.12959999999999999          7.6794490766474155E-009
 -0.12850000000000000         -1.5068452041688829E-009
 -0.12740000000000001          2.7082380782417204E-008
 -0.12630000000000002          6.2087316621273203E-008
 -0.12520000000000001          5.1385459443054060E-008
 -0.12410000000000000         -3.1760283292214808E-008
 -0.12300000000000001         -1.5615690074355371E-007
 -0.12190000000000001         -2.4345729343622224E-007
 -0.12080000000000000         -2.1899460023178108E-007
 -0.11970000000000000         -6.7018660843132238E-008
 -0.11860000000000001          1.5087040594607970E-007
 -0.11750000000000001          3.2918913461799093E-007
 -0.11640000000000000          3.8155576476128772E-007
 -0.11530000000000000          2.9036655746494944E-007
 -0.11420000000000001          1.1107111674846237E-007
 -0.11310000000000001         -6.8794889784840052E-008
 -0.11200000000000000         -1.8582728955607308E-007
 -0.11090000000000001         -2.3449078412340896E-007
 -0.10980000000000001         -2.5795546321205620E-007
 -0.10870000000000000         -3.0505762538268755E-007
 -0.10760000000000000         -3.8523597822859301E-007
 -0.10650000000000001         -4.5553932181974233E-007
 -0.10540000000000001         -4.5291466221897281E-007
 -0.10430000000000000         -3.5187679259252036E-007
 -0.10320000000000000         -2.0343756546026270E-007
 -0.10210000000000001         -1.1638418584425381E-007
 -0.10100000000000001         -1.8059627393540723E-007
  -9.9900000000000003E-002    -3.8164048987709975E-007
  -9.8799999999999999E-002    -5.7715897128218785E-007
  -9.7700000000000009E-002    -5.7213077298001735E-007
  -9.6600000000000005E-002    -2.5652832391642733E-007
  -9.5500000000000002E-002     2.9061044415357173E-007
  -9.4400000000000012E-002     8.1765205095507554E-007
  -9.3300000000000008E-002     1.0416091527076787E-006
  -9.2200000000000004E-002     8.2074484453187324E-007
  -9.1100000000000000E-002     2.3351155675754853E-007
  -9.0000000000000011E-002    -4.9292992798655177E-007
  -8.8900000000000007E-002    -1.1431097846070770E-006
  -8.7800000000000003E-002    -1.6307965324813267E-006
  -8.6699999999999999E-002    -1.9828034965030383E-006
  -8.5600000000000009E-002    -2.2188276034285082E-006
  -8.4500000000000006E-002    -2.2533592982654227E-006
  -8.3400000000000002E-002    -1.9297710878163343E-006
  -8.2299999999999998E-002    -1.1771599019994028E-006
  -8.1200000000000008E-002    -1.5951233933719777E-007
  -8.0100000000000005E-002     7.2731330647002324E-007
  -7.9000000000000001E-002     1.0434115438329172E-006
  -7.7899999999999997E-002     5.6145472626667470E-007
  -7.6800000000000007E-002    -5.8673799685493577E-007
  -7.5700000000000003E-002    -1.9780795810220297E-006
  -7.4600000000000000E-002    -3.1333097467722837E-006
  -7.3500000000000010E-002    -3.7613719996443251E-006
  -7.2399999999999992E-002    -3.8637567740806844E-006
  -7.1300000000000002E-002    -3.6585695397661766E-006
  -7.0200000000000012E-002    -3.4043796404148452E-006
  -6.9099999999999995E-002    -3.2521800221729791E-006
  -6.8000000000000005E-002    -3.2110128813656047E-006
  -6.6900000000000015E-002    -3.2240809559880290E-006
  -6.5799999999999997E-002    -3.2807790830702288E-006
  -6.4700000000000008E-002    -3.4744339245662559E-006
  -6.3599999999999990E-002    -3.9576311792188790E-006
  -6.2500000000000000E-002    -4.8192418944381643E-006
  -6.1400000000000010E-002    -5.9694643823604565E-006
  -6.0299999999999992E-002    -7.1299532464763615E-006
  -5.9200000000000003E-002    -7.9670126069686376E-006
  -5.8100000000000013E-002    -8.3015565905952826E-006
  -5.6999999999999995E-002    -8.2531241787364706E-006
  -5.5900000000000005E-002    -8.1965863500954583E-006
  -5.4800000000000015E-002    -8.5364472397486679E-006
  -5.3699999999999998E-002    -9.4487077149096876E-006
  -5.2600000000000008E-002    -1.0783262041513808E-005
  -5.1499999999999990E-002    -1.2205678103782702E-005
  -5.0400000000000000E-002    -1.3468108591041528E-005
  -4.9300000000000010E-002    -1.4588102203560993E-005
  -4.8199999999999993E-002    -1.5789066310389899E-005
  -4.7100000000000003E-002    -1.7259786545764655E-005
  -4.6000000000000013E-002    -1.8951790480059572E-005
  -4.4899999999999995E-002    -2.0601884898496792E-005
  -4.3800000000000006E-002    -2.1967916836729273E-005
  -4.2699999999999988E-002    -2.3070497263688594E-005
  -4.1599999999999998E-002    -2.4219247279688716E-005
  -4.0500000000000008E-002    -2.5786801415961236E-005
  -3.9399999999999991E-002    -2.7915371902054176E-005
  -3.8300000000000001E-002    -3.0401166441151872E-005
  -3.7200000000000011E-002    -3.2856354664545506E-005
  -3.6099999999999993E-002    -3.5015524190384895E-005
  -3.5000000000000003E-002    -3.6945391912013292E-005
  -3.3900000000000013E-002    -3.9004029531497508E-005
  -3.2799999999999996E-002    -4.1599927499191836E-005
  -3.1700000000000006E-002    -4.4939319195691496E-005
  -3.0599999999999988E-002    -4.8930869525065646E-005
  -2.9499999999999998E-002    -5.3277421102393419E-005
  -2.8400000000000009E-002    -5.7658704463392496E-005
  -2.7299999999999991E-002    -6.1881182773504406E-005
  -2.6200000000000001E-002    -6.5926120441872627E-005
  -2.5100000000000011E-002    -6.9910747697576880E-005
  -2.3999999999999994E-002    -7.4003786721732467E-005
  -2.2900000000000004E-002    -7.8347024100366980E-005
  -2.1800000000000014E-002    -8.3014747360721231E-005
  -2.0699999999999996E-002    -8.8027562014758587E-005
  -1.9600000000000006E-002    -9.3402413767762482E-005
  -1.8499999999999989E-002    -9.9187345767859370E-005
  -1.7399999999999999E-002    -1.0543495591264218E-004
  -1.6300000000000009E-002    -1.1211799574084580E-004
  -1.5199999999999991E-002    -1.1906964209629223E-004
  -1.4100000000000001E-002    -1.2604115181602538E-004
  -1.3000000000000012E-002    -1.3287465844769031E-004
  -1.1899999999999994E-002    -1.3966795813757926E-004
  -1.0800000000000004E-002    -1.4678301522508264E-004
  -9.6999999999999864E-003    -1.5464119496755302E-004
  -8.5999999999999965E-003    -1.6345230687875301E-004
  -7.5000000000000067E-003    -1.7308141104876995E-004
  -6.3999999999999890E-003    -1.8316812929697335E-004
  -5.2999999999999992E-003    -1.9339052960276604E-004
  -4.2000000000000093E-003    -2.0365045929793268E-004
  -3.0999999999999917E-003    -2.1403822756838053E-004
  -2.0000000000000018E-003    -2.2464361973106861E-004
  -9.0000000000001190E-004    -2.3542165581602603E-004
   2.0000000000000573E-004    -2.4625347577966750E-004
   1.2999999999999956E-003    -2.5712934439070523E-004
   2.4000000000000132E-003    -2.6827098918147385E-004
   3.5000000000000031E-003    -2.8003644547425210E-004
   4.5999999999999930E-003    -2.9269704828038812E-004
   5.7000000000000106E-003    -3.0626027728430927E-004
   6.8000000000000005E-003    -3.2049571746028960E-004
   7.8999999999999904E-003    -3.3510802313685417E-004
   9.0000000000000080E-003    -3.4988013794645667E-004
   1.0099999999999998E-002    -3.6470140912570059E-004
   1.1199999999999988E-002    -3.7949983379803598E-004
   1.2300000000000005E-002    -3.9420771645382047E-004
   1.3399999999999995E-002    -4.0882552275434136E-004
   1.4500000000000013E-002    -4.2349353316240013E-004
   1.5600000000000003E-002    -4.3845767504535615E-004
   1.6699999999999993E-002    -4.5395389315672219E-004
   1.7800000000000010E-002    -4.7006717068143189E-004
   1.8900000000000000E-002    -4.8672678531147540E-004
   1.9999999999999990E-002    -5.0379871390759945E-004
   2.1100000000000008E-002    -5.2115478320047259E-004
   2.2199999999999998E-002    -5.3863378707319498E-004
   2.3300000000000015E-002    -5.5600138148292899E-004
   2.4400000000000005E-002    -5.7299359468743205E-004
   2.5499999999999995E-002    -5.8948463993147016E-004
   2.6600000000000013E-002    -6.0566695174202323E-004
   2.7700000000000002E-002    -6.2194879865273833E-004
   2.8799999999999992E-002    -6.3865032279863954E-004
   2.9900000000000010E-002    -6.5570638980716467E-004
   3.1000000000000000E-002    -6.7266455153003335E-004
   3.2099999999999990E-002    -6.8906071828678250E-004
   3.3200000000000007E-002    -7.0479646092280746E-004
   3.4299999999999997E-002    -7.2018965147435665E-004
   3.5400000000000015E-002    -7.3562579927965999E-004
   3.6500000000000005E-002    -7.5114250648766756E-004
   3.7599999999999995E-002    -7.6631514821201563E-004
   3.8700000000000012E-002    -7.8068365110084414E-004
   3.9800000000000002E-002    -7.9412065679207444E-004
   4.0899999999999992E-002    -8.0694229109212756E-004
   4.2000000000000010E-002    -8.1952242180705070E-004
   4.3099999999999999E-002    -8.3186919800937176E-004
   4.4200000000000017E-002    -8.4352138219401240E-004
   4.5300000000000007E-002    -8.5400306852534413E-004
   4.6399999999999997E-002    -8.6330197518691421E-004
   4.7500000000000014E-002    -8.7187276221811771E-004
   4.8600000000000004E-002    -8.8022038107737899E-004
   4.9699999999999994E-002    -8.8832364417612553E-004
   5.0800000000000012E-002    -8.9554471196606755E-004
   5.1900000000000002E-002    -9.0116297360509634E-004
   5.2999999999999992E-002    -9.0494495816528797E-004
   5.4099999999999981E-002    -9.0722314780578017E-004
   5.5200000000000027E-002    -9.0857519535347819E-004
   5.6300000000000017E-002    -9.0916553745046258E-004
   5.7400000000000007E-002    -9.0865523088723421E-004
   5.8499999999999996E-002    -9.0665521565824747E-004
   5.9599999999999986E-002    -9.0314657427370548E-004
   6.0700000000000032E-002    -8.9850416406989098E-004
   6.1800000000000022E-002    -8.9304981520399451E-004
   6.2900000000000011E-002    -8.8666361989453435E-004
   6.4000000000000001E-002    -8.7878445629030466E-004
   6.5099999999999991E-002    -8.6898839799687266E-004
   6.6199999999999981E-002    -8.5735105676576495E-004
   6.7300000000000026E-002    -8.4432103903964162E-004
   6.8400000000000016E-002    -8.3025102503597736E-004
   6.9500000000000006E-002    -8.1495527410879731E-004
   7.0599999999999996E-002    -7.9787377035245299E-004
   7.1699999999999986E-002    -7.7866594074293971E-004
   7.2800000000000031E-002    -7.5754598947241902E-004
   7.3900000000000021E-002    -7.3512602830305696E-004
   7.5000000000000011E-002    -7.1174930781126022E-004
   7.6100000000000001E-002    -6.8722676951438189E-004
   7.7199999999999991E-002    -6.6104269353672862E-004
   7.8299999999999981E-002    -6.3296779990196228E-004
   7.9400000000000026E-002    -6.0325750382617116E-004
   8.0500000000000016E-002    -5.7257001753896475E-004
   8.1600000000000006E-002    -5.4108863696455956E-004
   8.2699999999999996E-002    -5.0839688628911972E-004
   8.3799999999999986E-002    -4.7390387044288218E-004
   8.4900000000000031E-002    -4.3738252134062350E-004
   8.6000000000000021E-002    -3.9937550900503993E-004
   8.7100000000000011E-002    -3.6071613430976868E-004
   8.8200000000000001E-002    -3.2172820647247136E-004
   8.9299999999999990E-002    -2.8202176326885819E-004
   9.0399999999999980E-002    -2.4087865313049406E-004
   9.1500000000000026E-002    -1.9794654508586973E-004
   9.2600000000000016E-002    -1.5377966337837279E-004
   9.3700000000000006E-002    -1.0920660861302167E-004
   9.4799999999999995E-002    -6.4599727920722216E-005
   9.5899999999999985E-002    -1.9658189557958394E-005
   9.7000000000000031E-002     2.6262323444825597E-005
   9.8100000000000021E-002     7.3353119660168886E-005
   9.9200000000000010E-002     1.2119745952077210E-004
  0.10030000000000000          1.6904584481380880E-004
  0.10139999999999999          2.1665341046173126E-004
  0.10249999999999998          2.6432034792378545E-004
  0.10360000000000003          3.1249213498085737E-004
  0.10470000000000002          3.6106779589317739E-004
  0.10580000000000001          4.0935986908152699E-004
  0.10690000000000000          4.5662757474929094E-004
  0.10799999999999998          5.0283945165574551E-004
  0.10910000000000003          5.4857152281329036E-004
  0.11020000000000002          5.9441261691972613E-004
  0.11130000000000001          6.4043136080726981E-004
  0.11240000000000000          6.8616773933172226E-004
  0.11349999999999999          7.3112896643579006E-004
  0.11460000000000004          7.7497836900874972E-004
  0.11570000000000003          8.1798492465168238E-004
  0.11680000000000001          8.6019228911027312E-004
  0.11790000000000000          9.0136082144454122E-004
  0.11899999999999999          9.4064633594825864E-004
  0.12009999999999998          9.7773387096822262E-004
  0.12120000000000003          1.0129195870831609E-003
  0.12230000000000002          1.0469449916854501E-003
  0.12340000000000001          1.0803022887557745E-003
  0.12450000000000000          1.1126312892884016E-003
  0.12559999999999999          1.1431464226916432E-003
  0.12670000000000003          1.1713446583598852E-003
  0.12780000000000002          1.1975464876741171E-003
  0.12890000000000001          1.2220775242894888E-003
  0.13000000000000000          1.2450932990759611E-003
  0.13109999999999999          1.2663560919463634E-003
  0.13219999999999998          1.2851523933932185E-003
  0.13330000000000003          1.3012731214985251E-003
  0.13440000000000002          1.3151045423001051E-003
  0.13550000000000001          1.3269934570416808E-003
  0.13660000000000000          1.3373142573982477E-003
  0.13769999999999999          1.3455841690301895E-003
  0.13880000000000003          1.3511219294741750E-003
  0.13990000000000002          1.3541065854951739E-003
  0.14100000000000001          1.3549608411267400E-003
  0.14210000000000000          1.3541994849219918E-003
  0.14319999999999999          1.3518859632313251E-003
  0.14429999999999998          1.3473281869664788E-003
  0.14540000000000003          1.3399953022599220E-003
  0.14650000000000002          1.3296183897182345E-003
  0.14760000000000001          1.3168872101232409E-003
  0.14870000000000000          1.3024185318499804E-003
  0.14979999999999999          1.2861915165558457E-003
  0.15090000000000003          1.2679080246016383E-003
  0.15200000000000002          1.2471113586798310E-003
  0.15310000000000001          1.2239853385835886E-003
  0.15420000000000000          1.1992810759693384E-003
  0.15529999999999999          1.1734359432011843E-003
  0.15639999999999998          1.1465147836133838E-003
  0.15750000000000003          1.1180428555235267E-003
  0.15860000000000002          1.0874326108023524E-003
  0.15970000000000001          1.0546555276960135E-003
  0.16080000000000000          1.0202706325799227E-003
  0.16189999999999999          9.8469585645943880E-004
  0.16300000000000003          9.4788975547999144E-004
  0.16410000000000002          9.0965791605412960E-004
  0.16520000000000001          8.6982169887050986E-004
  0.16630000000000000          8.2868919707834721E-004
  0.16739999999999999          7.8667671186849475E-004
  0.16850000000000004          7.4420386226847768E-004
  0.16960000000000003          7.0140685420483351E-004
  0.17070000000000002          6.5800698939710855E-004
  0.17180000000000001          6.1407720204442739E-004
  0.17290000000000000          5.6966056581586599E-004
  0.17399999999999999          5.2490906091406941E-004
  0.17510000000000003          4.7981555690057576E-004
  0.17620000000000002          4.3404806638136506E-004
  0.17730000000000001          3.8762536132708192E-004
  0.17840000000000000          3.4094639704562724E-004
  0.17949999999999999          2.9473920585587621E-004
  0.18060000000000004          2.4970030062831938E-004
  0.18170000000000003          2.0546888117678463E-004
  0.18280000000000002          1.6152812168002129E-004
  0.18390000000000001          1.1741839989554137E-004
  0.18500000000000000          7.3374831117689610E-005
  0.18609999999999999          3.0069810236454941E-005
  0.18720000000000003         -1.2058578249707352E-005
  0.18830000000000002         -5.3294450481189415E-005
  0.18940000000000001         -9.4089249614626169E-005
  0.19050000000000000         -1.3467646203935146E-004
  0.19159999999999999         -1.7473059415351599E-004
  0.19270000000000004         -2.1335082419682294E-004
  0.19380000000000003         -2.4996965657919645E-004
  0.19490000000000002         -2.8468601522035897E-004
  0.19600000000000001         -3.1818865681998432E-004
  0.19710000000000000         -3.5103110712952912E-004
  0.19819999999999999         -3.8324663182720542E-004
  0.19930000000000003         -4.1418024920858443E-004
  0.20040000000000002         -4.4328684452921152E-004
  0.20150000000000001         -4.7051318688318133E-004
  0.20260000000000000         -4.9615441821515560E-004
  0.20369999999999999         -5.2065774798393250E-004
  0.20480000000000004         -5.4399925284087658E-004
  0.20590000000000003         -5.6596018839627504E-004
  0.20700000000000002         -5.8634416200220585E-004
  0.20810000000000001         -6.0508493334054947E-004
  0.20920000000000000         -6.2227208400145173E-004
  0.21029999999999999         -6.3801748910918832E-004
  0.21140000000000003         -6.5217324299737811E-004
  0.21250000000000002         -6.6473265178501606E-004
  0.21360000000000001         -6.7580660106614232E-004
  0.21470000000000000         -6.8563473178073764E-004
  0.21579999999999999         -6.9415330654010177E-004
  0.21690000000000004         -7.0125091588124633E-004
  0.21800000000000003         -7.0662004873156548E-004
  0.21910000000000002         -7.1031559491530061E-004
  0.22020000000000001         -7.1275146910920739E-004
  0.22130000000000000         -7.1420276071876287E-004
  0.22239999999999999         -7.1457965532317758E-004
  0.22350000000000003         -7.1345805190503597E-004
  0.22460000000000002         -7.1045017102733254E-004
  0.22570000000000001         -7.0545281050726771E-004
  0.22680000000000000         -6.9927820004522800E-004
  0.22789999999999999         -6.9264852209016681E-004
  0.22900000000000004         -6.8570405710488558E-004
  0.23010000000000003         -6.7822454730048776E-004
  0.23120000000000002         -6.6970690386369824E-004
  0.23230000000000001         -6.5981847001239657E-004
  0.23340000000000000         -6.4885505707934499E-004
  0.23450000000000004         -6.3731963746249676E-004
  0.23560000000000003         -6.2511756550520658E-004
  0.23670000000000002         -6.1191112035885453E-004
  0.23780000000000001         -5.9740111464634538E-004
  0.23890000000000000         -5.8150471886619925E-004
  0.23999999999999999         -5.6471611605957150E-004
  0.24110000000000004         -5.4751511197537184E-004
  0.24220000000000003         -5.3022766951471567E-004
  0.24330000000000002         -5.1279860781505704E-004
  0.24440000000000001         -4.9493863480165601E-004
  0.24550000000000000         -4.7662231372669339E-004
  0.24660000000000004         -4.5786096598021686E-004
  0.24770000000000003         -4.3868666398338974E-004
  0.24880000000000002         -4.1896390030160546E-004
  0.24990000000000001         -3.9885865407995880E-004
  0.25100000000000000         -3.7829324719496071E-004
  0.25209999999999999         -3.5750231472775340E-004
  0.25320000000000004         -3.3647619420662522E-004
  0.25430000000000003         -3.1526380917057395E-004
  0.25540000000000002         -2.9371975688263774E-004
  0.25650000000000001         -2.7184365899302065E-004
  0.25760000000000000         -2.4980813032016158E-004
  0.25870000000000004         -2.2810454538557678E-004
  0.25980000000000003         -2.0660123846028000E-004
  0.26090000000000002         -1.8495845142751932E-004
  0.26200000000000001         -1.6271746426355094E-004
  0.26310000000000000         -1.3996424968354404E-004
  0.26419999999999999         -1.1693221313180402E-004
  0.26530000000000004         -9.4163267931435257E-005
  0.26640000000000003         -7.2104725404642522E-005
  0.26750000000000002         -5.0431794079486281E-005
  0.26860000000000001         -2.8640377422561869E-005
  0.26970000000000000         -6.4085147641890217E-006
  0.27080000000000004          1.6201727703446522E-005
  0.27190000000000003          3.8587986637139693E-005
  0.27300000000000002          6.0608716012211516E-005
  0.27410000000000001          8.2355552876833826E-005
  0.27520000000000000          1.0419941827422008E-004
  0.27629999999999999          1.2621184578165412E-004
  0.27740000000000004          1.4820754586253315E-004
  0.27850000000000003          1.6973013407550752E-004
  0.27960000000000002          1.9065735978074372E-004
  0.28070000000000001          2.1102539903949946E-004
  0.28179999999999999          2.3140924167819321E-004
  0.28290000000000004          2.5219912640750408E-004
  0.28400000000000003          2.7355991187505424E-004
  0.28510000000000002          2.9504284611903131E-004
  0.28620000000000001          3.1637761276215315E-004
  0.28730000000000000          3.3731645089574158E-004
  0.28840000000000005          3.5743555054068565E-004
  0.28950000000000004          3.7661319947801530E-004
  0.29060000000000002          3.9496322278864682E-004
  0.29170000000000001          4.1285302722826600E-004
  0.29280000000000000          4.3089801329188049E-004
  0.29389999999999999          4.4942362001165748E-004
  0.29500000000000004          4.6826453763060272E-004
  0.29610000000000003          4.8706401139497757E-004
  0.29720000000000002          5.0526752602308989E-004
  0.29830000000000001          5.2274478366598487E-004
  0.29940000000000000          5.3950614528730512E-004
  0.30050000000000004          5.5567634990438819E-004
  0.30160000000000003          5.7124928571283817E-004
  0.30270000000000002          5.8584118960425258E-004
  0.30380000000000001          5.9938273625448346E-004
  0.30490000000000000          6.1220792122185230E-004
  0.30599999999999999          6.2514632008969784E-004
  0.30709999999999998          6.3847535056993365E-004
  0.30819999999999997          6.5233244094997644E-004
  0.30930000000000007          6.6594476811587811E-004
  0.31040000000000006          6.7844864679500461E-004
  0.31150000000000005          6.8918248871341348E-004
  0.31260000000000004          6.9851055741310120E-004
  0.31370000000000003          7.0693594170734286E-004
  0.31480000000000002          7.1474188007414341E-004
  0.31590000000000001          7.2201574221253395E-004
  0.31700000000000000          7.2839972563087940E-004
  0.31809999999999999          7.3386309668421745E-004
  0.31919999999999998          7.3857640381902456E-004
  0.32029999999999997          7.4268406024202704E-004
  0.32140000000000007          7.4637221405282617E-004
  0.32250000000000006          7.4952124850824475E-004
  0.32360000000000005          7.5177330290898681E-004
  0.32470000000000004          7.5286458013579249E-004
  0.32580000000000003          7.5236521661281586E-004
  0.32690000000000002          7.5042439857497811E-004
  0.32800000000000001          7.4738985858857632E-004
  0.32910000000000000          7.4339396087452769E-004
  0.33019999999999999          7.3882483411580324E-004
  0.33129999999999998          7.3373434133827686E-004
  0.33239999999999997          7.2804401861503720E-004
  0.33350000000000007          7.2119460674002767E-004
  0.33460000000000006          7.1296998066827655E-004
  0.33570000000000005          7.0319138467311859E-004
  0.33680000000000004          6.9246045313775539E-004
  0.33790000000000003          6.8098970223218203E-004
  0.33900000000000002          6.6893128678202629E-004
  0.34010000000000001          6.5588130382820964E-004
  0.34120000000000000          6.4161134650930762E-004
  0.34229999999999999          6.2604539562016726E-004
  0.34339999999999998          6.0959125403314829E-004
  0.34449999999999997          5.9254915686324239E-004
  0.34560000000000007          5.7511246996000409E-004
  0.34670000000000006          5.5685231927782297E-004
  0.34780000000000005          5.3735444089397788E-004
  0.34890000000000004          5.1650573732331395E-004
