 -0.20000000000000001          0.0000000000000000
 -0.19890000000000002          0.0000000000000000
 -0.19780000000000000          0.0000000000000000
 -0.19670000000000001          0.0000000000000000
 -0.19560000000000002          0.0000000000000000
 -0.19450000000000001          3.5126615564831490E-014
 -0.19340000000000002          1.1360521085056358E-013
 -0.19230000000000000         -9.9695859206976378E-014
 -0.19120000000000001         -1.2081285407847239E-012
 -0.19010000000000002         -2.5197190254428760E-012
 -0.18900000000000000         -3.2532277653037532E-013
 -0.18790000000000001          9.1173821964437705E-012
 -0.18680000000000002          2.0279698059733029E-011
 -0.18570000000000000          1.3702598083976388E-011
 -0.18460000000000001         -2.6905602745761669E-011
 -0.18350000000000000         -8.0361967080830486E-011
 -0.18240000000000001         -7.9614918824243519E-011
 -0.18130000000000002          2.7234690197493706E-011
 -0.18020000000000000          1.8005559543342700E-010
 -0.17910000000000001          2.0055651583915407E-010
 -0.17800000000000002         -3.0830123176624482E-011
 -0.17690000000000000         -3.3787372899495241E-010
 -0.17580000000000001         -2.7488361586943477E-010
 -0.17470000000000002          3.9937728124610489E-010
 -0.17360000000000000          1.1482101935911452E-009
 -0.17250000000000001          7.6171313700963970E-010
 -0.17140000000000000         -1.4536486458994571E-009
 -0.17030000000000001         -4.2105967601458782E-009
 -0.16920000000000002         -4.2825578638883086E-009
 -0.16810000000000000          8.9763552146863107E-010
 -0.16700000000000001          9.5806900191066499E-009
 -0.16589999999999999          1.4731015518521053E-008
 -0.16480000000000000          8.5130720250956834E-009
 -0.16370000000000001         -9.7531618337148015E-009
 -0.16260000000000002         -2.9065448714505252E-008
 -0.16150000000000000         -3.2107688952010040E-008
 -0.16040000000000001         -9.3204128859263583E-009
 -0.15930000000000000          2.9067662055127840E-008
 -0.15820000000000001          5.5750906113872764E-008
 -0.15710000000000002          4.6074859483269651E-008
 -0.15600000000000000          8.7156443173601907E-010
 -0.15490000000000001         -4.8651344286556289E-008
 -0.15379999999999999         -6.3180145559729017E-008
 -0.15270000000000000         -2.9761915598670752E-008
 -0.15160000000000001          2.1995955279408091E-008
 -0.15050000000000002          4.1631544434041241E-008
 -0.14940000000000001          4.3576315889049711E-009
 -0.14830000000000002         -5.7927245222797103E-008
 -0.14720000000000000         -7.5194670046127932E-008
 -0.14610000000000001         -5.6371513012889347E-010
 -0.14500000000000002          1.3538291909753829E-007
 -0.14390000000000000          2.3072146859703821E-007
 -0.14280000000000001          1.8599649820316308E-007
 -0.14169999999999999         -8.3585103283281037E-009
 -0.14060000000000000         -2.4653294872224183E-007
 -0.13950000000000001         -3.7509235539801694E-007
 -0.13840000000000002         -3.0708599751960809E-007
 -0.13730000000000001         -9.0444466138698054E-008
 -0.13619999999999999          1.2945264415977185E-007
 -0.13510000000000000          2.2594738879890558E-007
 -0.13400000000000001          1.9011113749912975E-007
 -0.13290000000000002          1.2845873698097413E-007
 -0.13180000000000000          1.6097570210147934E-007
 -0.13070000000000001          3.0762149094695859E-007
 -0.12959999999999999          4.6246415763559702E-007
 -0.12850000000000000          4.7911282763378588E-007
 -0.12740000000000001          2.9486406560863940E-007
 -0.12630000000000002         -1.1814880629387244E-008
 -0.12520000000000001         -2.7765861432270586E-007
 -0.12410000000000000         -3.7559090060313005E-007
 -0.12300000000000001         -3.0048806820561083E-007
 -0.12190000000000001         -1.5517555596035962E-007
 -0.12080000000000000         -5.7031609657094294E-008
 -0.11970000000000000         -4.5167414697272496E-008
 -0.11860000000000001         -5.7492449911895849E-008
 -0.11750000000000001          1.4371918766229685E-008
 -0.11640000000000000          2.3948840066625780E-007
 -0.11530000000000000          5.8878748632195458E-007
 -0.11420000000000001          9.3349859753284697E-007
 -0.11310000000000001          1.0989504062308081E-006
 -0.11200000000000000          9.5223487051037984E-007
 -0.11090000000000001          4.8899636340135019E-007
 -0.10980000000000001         -1.2798487603049739E-007
 -0.10870000000000000         -6.2095796238279488E-007
 -0.10760000000000000         -7.3798105404418225E-007
 -0.10650000000000001         -4.0827802649798871E-007
 -0.10540000000000001          2.0143392021055500E-007
 -0.10430000000000000          7.9312218304039466E-007
 -0.10320000000000000          1.1446413736848633E-006
 -0.10210000000000001          1.2566783880174689E-006
 -0.10100000000000001          1.3081424867778024E-006
  -9.9900000000000003E-002     1.4483722452496193E-006
  -9.8799999999999999E-002     1.6133308236021165E-006
  -9.7700000000000009E-002     1.5546194163106763E-006
  -9.6600000000000005E-002     1.0868241133720521E-006
  -9.5500000000000002E-002     3.4135962323482574E-007
  -9.4400000000000012E-002    -2.2801694399280562E-007
  -9.3300000000000008E-002    -1.4449918239733429E-007
  -9.2200000000000004E-002     7.1142557089846403E-007
  -9.1100000000000000E-002     1.9681581306941109E-006
  -9.0000000000000011E-002     3.0141206934786478E-006
  -8.8900000000000007E-002     3.4410368243697997E-006
  -8.7800000000000003E-002     3.3109326977864382E-006
  -8.6699999999999999E-002     3.0282590159912682E-006
  -8.5600000000000009E-002     2.9474581424436836E-006
  -8.4500000000000006E-002     3.0775015602556539E-006
  -8.3400000000000002E-002     3.1439442409463375E-006
  -8.2299999999999998E-002     2.9292318686201889E-006
  -8.1200000000000008E-002     2.5538088266329895E-006
  -8.0100000000000005E-002     2.4240364382421729E-006
  -7.9000000000000001E-002     2.8940485208295358E-006
  -7.7899999999999997E-002     3.9571627894474676E-006
  -7.6800000000000007E-002     5.2460527513175872E-006
  -7.5700000000000003E-002     6.3247130128728742E-006
  -7.4600000000000000E-002     6.9936859290463307E-006
  -7.3500000000000010E-002     7.3496780714774952E-006
  -7.2399999999999992E-002     7.6017563515049845E-006
  -7.1300000000000002E-002     7.8728126027270524E-006
  -7.0200000000000012E-002     8.1837870311573029E-006
  -6.9099999999999995E-002     8.5831125034018589E-006
  -6.8000000000000005E-002     9.2138725449330241E-006
  -6.6900000000000015E-002     1.0193949492531691E-005
  -6.5799999999999997E-002     1.1428083780628893E-005
  -6.4700000000000008E-002     1.2593490282597234E-005
  -6.3599999999999990E-002     1.3383561054069749E-005
  -6.2500000000000000E-002     1.3806226888845893E-005
  -6.1400000000000010E-002     1.4228585314412848E-005
  -6.0299999999999992E-002     1.5081423043738847E-005
  -5.9200000000000003E-002     1.6484402294736135E-005
  -5.8100000000000013E-002     1.8160941181122054E-005
  -5.6999999999999995E-002     1.9742063159355562E-005
  -5.5900000000000005E-002     2.1159057723707126E-005
  -5.4800000000000015E-002     2.2710959456162094E-005
  -5.3699999999999998E-002     2.4708671844563938E-005
  -5.2600000000000008E-002     2.7045862225349566E-005
  -5.1499999999999990E-002     2.9167680622776557E-005
  -5.0400000000000000E-002     3.0540490115526643E-005
  -4.9300000000000010E-002     3.1206411222228320E-005
  -4.8199999999999993E-002     3.1871459214016280E-005
  -4.7100000000000003E-002     3.3382562833139090E-005
  -4.6000000000000013E-002     3.6041026760357733E-005
  -4.4899999999999995E-002     3.9384700357913293E-005
  -4.3800000000000006E-002     4.2645242501748007E-005
  -4.2699999999999988E-002     4.5445198338710869E-005
  -4.1599999999999998E-002     4.8068697651614560E-005
  -4.0500000000000008E-002     5.1063016144325103E-005
  -3.9399999999999991E-002     5.4590018407906456E-005
  -3.8300000000000001E-002     5.8198158512822382E-005
  -3.7200000000000011E-002     6.1263323004822256E-005
  -3.6099999999999993E-002     6.3672239775768437E-005
  -3.5000000000000003E-002     6.6050495661328394E-005
  -3.3900000000000013E-002     6.9275665737221701E-005
  -3.2799999999999996E-002     7.3717266786842264E-005
  -3.1700000000000006E-002     7.8915618360041217E-005
  -3.0599999999999988E-002     8.4004699601790403E-005
  -2.9499999999999998E-002     8.8453576609025177E-005
  -2.8400000000000009E-002     9.2426504124885770E-005
  -2.7299999999999991E-002     9.6463540103284933E-005
  -2.6200000000000001E-002     1.0086553811561152E-004
  -2.5100000000000011E-002     1.0543819371377878E-004
  -2.3999999999999994E-002     1.0984029358951196E-004
  -2.2900000000000004E-002     1.1412930325604785E-004
  -2.1800000000000014E-002     1.1889191227964855E-004
  -2.0699999999999996E-002     1.2476698611862746E-004
  -1.9600000000000006E-002     1.3181404210626857E-004
  -1.8499999999999989E-002     1.3937767653260150E-004
  -1.7399999999999999E-002     1.4658048166893184E-004
  -1.6300000000000009E-002     1.5299755614250649E-004
  -1.5199999999999991E-002     1.5885652101132761E-004
  -1.4100000000000001E-002     1.6463256906717747E-004
  -1.3000000000000012E-002     1.7051109171006547E-004
  -1.1899999999999994E-002     1.7628124624024784E-004
  -1.0800000000000004E-002     1.8176404410041562E-004
  -9.6999999999999864E-003     1.8725040717981439E-004
  -8.5999999999999965E-003     1.9342348969075495E-004
  -7.5000000000000067E-003     2.0076875807717098E-004
  -6.3999999999999890E-003     2.0905748533550298E-004
  -5.2999999999999992E-003     2.1745714184362081E-004
  -4.2000000000000093E-003     2.2519502090289817E-004
  -3.0999999999999917E-003     2.3217189300339287E-004
  -2.0000000000000018E-003     2.3890910961199153E-004
  -9.0000000000001190E-004     2.4593187845311647E-004
   2.0000000000000573E-004     2.5320972781627942E-004
   1.2999999999999956E-003     2.6024290127679267E-004
   2.4000000000000132E-003     2.6667452766559568E-004
   3.5000000000000031E-003     2.7276301989331375E-004
   4.5999999999999930E-003     2.7920698630623042E-004
   5.7000000000000106E-003     2.8645442216656614E-004
   6.8000000000000005E-003     2.9419056954793133E-004
   7.8999999999999904E-003     3.0154886189847675E-004
   9.0000000000000080E-003     3.0787929426878170E-004
   1.0099999999999998E-002     3.1328384648076659E-004
   1.1199999999999988E-002     3.1846037018112296E-004
   1.2300000000000005E-002     3.2398299663327081E-004
   1.3399999999999995E-002     3.2976668444461562E-004
   1.4500000000000013E-002     3.3519274438730798E-004
   1.5600000000000003E-002     3.3980022999457440E-004
   1.6699999999999993E-002     3.4373160451650023E-004
   1.7800000000000010E-002     3.4757214598357076E-004
   1.8900000000000000E-002     3.5173416836186631E-004
   1.9999999999999990E-002     3.5603551077655830E-004
   2.1100000000000008E-002     3.5986024886369087E-004
   2.2199999999999998E-002     3.6277258186600484E-004
   2.3300000000000015E-002     3.6484099109656491E-004
   2.4400000000000005E-002     3.6649178946390119E-004
   2.5499999999999995E-002     3.6797957727684936E-004
   2.6600000000000013E-002     3.6909914342685894E-004
   2.7700000000000002E-002     3.6942141014150635E-004
   2.8799999999999992E-002     3.6872833152300964E-004
   2.9900000000000010E-002     3.6720384377985548E-004
   3.1000000000000000E-002     3.6519512650556217E-004
   3.2099999999999990E-002     3.6283920053392014E-004
   3.3200000000000007E-002     3.5994785139336559E-004
   3.4299999999999997E-002     3.5630504135041811E-004
   3.5400000000000015E-002     3.5199985723010583E-004
   3.6500000000000005E-002     3.4737813984974606E-004
   3.7599999999999995E-002     3.4268861054442216E-004
   3.8700000000000012E-002     3.3774078474379480E-004
   3.9800000000000002E-002     3.3204018836840402E-004
   4.0899999999999992E-002     3.2519063097424225E-004
   4.2000000000000010E-002     3.1717272941022542E-004
   4.3099999999999999E-002     3.0825057183391793E-004
   4.4200000000000017E-002     2.9860730865038395E-004
   4.5300000000000007E-002     2.8810510411858038E-004
   4.6399999999999997E-002     2.7656945167108866E-004
   4.7500000000000014E-002     2.6409831480122620E-004
   4.8600000000000004E-002     2.5123378145508007E-004
   4.9699999999999994E-002     2.3849454009905016E-004
   5.0800000000000012E-002     2.2592331515624702E-004
   5.1900000000000002E-002     2.1297585044521445E-004
   5.2999999999999992E-002     1.9901439372915406E-004
   5.4099999999999981E-002     1.8382303824182250E-004
   5.5200000000000027E-002     1.6774096002336266E-004
   5.6300000000000017E-002     1.5120017633307422E-004
   5.7400000000000007E-002     1.3427906378637723E-004
   5.8499999999999996E-002     1.1665151396300401E-004
   5.9599999999999986E-002     9.8066047939935475E-005
   6.0700000000000032E-002     7.8781711636109406E-005
   6.1800000000000022E-002     5.9495221648829518E-005
   6.2900000000000011E-002     4.0718325180931802E-005
   6.4000000000000001E-002     2.2325135432765067E-005
   6.5099999999999991E-002     3.6463923152037082E-006
   6.6199999999999981E-002    -1.5849715055083043E-005
   6.7300000000000026E-002    -3.6115288821747337E-005
   6.8400000000000016E-002    -5.6607586884637780E-005
   6.9500000000000006E-002    -7.6982905738986161E-005
   7.0599999999999996E-002    -9.7418866062069941E-005
   7.1699999999999986E-002    -1.1843981337733404E-004
   7.2800000000000031E-002    -1.4023167022969373E-004
   7.3900000000000021E-002    -1.6228934691753003E-004
   7.5000000000000011E-002    -1.8378470849711177E-004
   7.6100000000000001E-002    -2.0428870629984574E-004
   7.7199999999999991E-002    -2.2402472677640267E-004
   7.8299999999999981E-002    -2.4353897606487932E-004
   7.9400000000000026E-002    -2.6308177621103406E-004
   8.0500000000000016E-002    -2.8232985641806868E-004
   8.1600000000000006E-002    -3.0079513089730859E-004
   8.2699999999999996E-002    -3.1847751233726230E-004
   8.3799999999999986E-002    -3.3602589974179322E-004
   8.4900000000000031E-002    -3.5409245174377577E-004
   8.6000000000000021E-002    -3.7259285454637695E-004
   8.7100000000000011E-002    -3.9068225305526809E-004
   8.8200000000000001E-002    -4.0748316678217877E-004
   8.9299999999999990E-002    -4.2278581531717669E-004
   9.0399999999999980E-002    -4.3719669338314993E-004
   9.1500000000000026E-002    -4.5133373350835583E-004
   9.2600000000000016E-002    -4.6513168490491032E-004
   9.3700000000000006E-002    -4.7779959277249081E-004
   9.4799999999999995E-002    -4.8871169565244696E-004
   9.5899999999999985E-002    -4.9815874081104159E-004
   9.7000000000000031E-002    -5.0721096340566006E-004
   9.8100000000000021E-002    -5.1668274682014302E-004
   9.9200000000000010E-002    -5.2636198233812158E-004
  0.10030000000000000         -5.3516996558754725E-004
  0.10139999999999999         -5.4214143892749212E-004
  0.10249999999999998         -5.4732616990803740E-004
  0.10360000000000003         -5.5160245392470598E-004
  0.10470000000000002         -5.5551575496791850E-004
  0.10580000000000001         -5.5878335842861760E-004
  0.10690000000000000         -5.6045991368590820E-004
  0.10799999999999998         -5.5999186588450301E-004
  0.10910000000000003         -5.5791973136364438E-004
  0.11020000000000002         -5.5543513735755302E-004
  0.11130000000000001         -5.5352831259368885E-004
  0.11240000000000000         -5.5188609985633720E-004
  0.11349999999999999         -5.4953910876064528E-004
  0.11460000000000004         -5.4564187303184509E-004
  0.11570000000000003         -5.4030359024181008E-004
  0.11680000000000001         -5.3420633776112448E-004
  0.11790000000000000         -5.2771129412575613E-004
  0.11899999999999999         -5.2034464897586974E-004
  0.12009999999999998         -5.1125418394803101E-004
  0.12120000000000003         -5.0033716252072767E-004
  0.12230000000000002         -4.8839068040250865E-004
  0.12340000000000001         -4.7657039249315012E-004
  0.12450000000000000         -4.6529294922947049E-004
  0.12559999999999999         -4.5397572102955655E-004
  0.12670000000000003         -4.4180083204991313E-004
  0.12780000000000002         -4.2852089973165804E-004
  0.12890000000000001         -4.1481101652606563E-004
  0.13000000000000000         -4.0143897058441498E-004
  0.13109999999999999         -3.8833817234262114E-004
  0.13219999999999998         -3.7466478534042152E-004
  0.13330000000000003         -3.5956248757428770E-004
  0.13440000000000002         -3.4314149525015923E-004
  0.13550000000000001         -3.2653429661876857E-004
  0.13660000000000000         -3.1066269730217180E-004
  0.13769999999999999         -2.9547794838435400E-004
  0.13880000000000003         -2.8012314578517746E-004
  0.13990000000000002         -2.6383533258921899E-004
  0.14100000000000001         -2.4687976110726129E-004
  0.14210000000000000         -2.3034217883832308E-004
  0.14319999999999999         -2.1504670439753261E-004
  0.14429999999999998         -2.0070685422978902E-004
  0.14540000000000003         -1.8612906569614643E-004
  0.14650000000000002         -1.7042623949236832E-004
  0.14760000000000001         -1.5385921869892323E-004
  0.14870000000000000         -1.3758917339145861E-004
  0.14979999999999999         -1.2252351734786982E-004
  0.15090000000000003         -1.0851641854969568E-004
  0.15200000000000002         -9.4592796813229051E-005
  0.15310000000000001         -8.0237419751936725E-005
  0.15420000000000000         -6.5883861680047931E-005
  0.15529999999999999         -5.2486408094408505E-005
  0.15639999999999998         -4.0553288272348012E-005
  0.15750000000000003         -2.9608921977341192E-005
  0.15860000000000002         -1.8605418517835709E-005
  0.15970000000000001         -7.0277797021840841E-006
  0.16080000000000000          4.6340237531696142E-006
  0.16189999999999999          1.5454032109118930E-005
  0.16300000000000003          2.5169210857711472E-005
  0.16410000000000002          3.4310607588849542E-005
  0.16520000000000001          4.3709176679839756E-005
  0.16630000000000000          5.3462830692296163E-005
  0.16739999999999999          6.2648949096909829E-005
  0.16850000000000004          7.0358328230212412E-005
  0.16960000000000003          7.6495431130750870E-005
  0.17070000000000002          8.1974452768916921E-005
  0.17180000000000001          8.7769098172428648E-005
  0.17290000000000000          9.3867252871858423E-005
  0.17399999999999999          9.9450146080924516E-005
  0.17510000000000003          1.0374278645030987E-004
  0.17620000000000002          1.0695807577576307E-004
  0.17730000000000001          1.1009035370079609E-004
  0.17840000000000000          1.1395767796784443E-004
  0.17949999999999999          1.1828311835415462E-004
  0.18060000000000004          1.2181025522295185E-004
  0.18170000000000003          1.2362778943497487E-004
  0.18280000000000002          1.2397815589792820E-004
  0.18390000000000001          1.2415106175467166E-004
  0.18500000000000000          1.2513386900536505E-004
  0.18609999999999999          1.2669658462982413E-004
  0.18720000000000003          1.2764929851982528E-004
  0.18830000000000002          1.2713395699392785E-004
  0.18940000000000001          1.2560306640807314E-004
  0.19050000000000000          1.2420976418070265E-004
  0.19159999999999999          1.2377656821626942E-004
  0.19270000000000004          1.2384935689624177E-004
  0.19380000000000003          1.2335943756624839E-004
  0.19490000000000002          1.2161638005636420E-004
  0.19600000000000001          1.1906499275937470E-004
  0.19710000000000000          1.1686918151099034E-004
  0.19819999999999999          1.1549404007382493E-004
  0.19930000000000003          1.1427950084907739E-004
  0.20040000000000002          1.1216245911782415E-004
  0.20150000000000001          1.0862432827707189E-004
  0.20260000000000000          1.0441833001095611E-004
  0.20369999999999999          1.0080396168632244E-004
  0.20480000000000004          9.8328455351291217E-005
  0.20590000000000003          9.6348019724244271E-005
  0.20700000000000002          9.3845213996244668E-005
  0.20810000000000001          9.0475703473201163E-005
  0.20920000000000000          8.6952328274490562E-005
  0.21029999999999999          8.4245170000939043E-005
  0.21140000000000003          8.2523067248983748E-005
  0.21250000000000002          8.0790050560607151E-005
  0.21360000000000001          7.7983837400096085E-005
  0.21470000000000000          7.3937495471908341E-005
  0.21579999999999999          6.9562993303405669E-005
  0.21690000000000004          6.5959386120083345E-005
  0.21800000000000003          6.3410967413800385E-005
  0.21910000000000002          6.1153223214204081E-005
  0.22020000000000001          5.8372355852042070E-005
  0.22130000000000000          5.5045042245182063E-005
  0.22239999999999999          5.2049323130630844E-005
  0.22350000000000003          5.0039059715344607E-005
  0.22460000000000002          4.8794470785650495E-005
  0.22570000000000001          4.7303819883381087E-005
  0.22680000000000000          4.4700838770949373E-005
  0.22789999999999999          4.1211813368135264E-005
  0.22900000000000004          3.7793317460454262E-005
  0.23010000000000003          3.5271114029455232E-005
  0.23120000000000002          3.3501048164907152E-005
  0.23230000000000001          3.1710686016594280E-005
  0.23340000000000000          2.9382885259109769E-005
  0.23450000000000004          2.6899760996456518E-005
  0.23560000000000003          2.5247314624720588E-005
  0.23670000000000002          2.4804459826554595E-005
  0.23780000000000001          2.4953757019829499E-005
  0.23890000000000000          2.4474898964399079E-005
  0.23999999999999999          2.2726317183696299E-005
  0.24110000000000004          2.0172348740743128E-005
  0.24220000000000003          1.7991405911743299E-005
  0.24330000000000002          1.6760674043325348E-005
  0.24440000000000001          1.6052923456299643E-005
  0.24550000000000000          1.4925797586328841E-005
  0.24660000000000004          1.3016090633754647E-005
  0.24770000000000003          1.1006402928614601E-005
  0.24880000000000002          1.0026215932157041E-005
  0.24990000000000001          1.0559329894021829E-005
  0.25100000000000000          1.1830603398266020E-005
  0.25209999999999999          1.2647237781493237E-005
  0.25320000000000004          1.2399536899465390E-005
  0.25430000000000003          1.1425142474763375E-005
  0.25540000000000002          1.0609963283059021E-005
  0.25650000000000001          1.0444173312862238E-005
  0.25760000000000000          1.0549380021984489E-005
  0.25870000000000004          1.0274505257257022E-005
  0.25980000000000003          9.3840662884756177E-006
  0.26090000000000002          8.5946521721777742E-006
  0.26200000000000001          8.7330627138723991E-006
  0.26310000000000000          9.9925800896014560E-006
  0.26419999999999999          1.1718791938619465E-005
  0.26530000000000004          1.3042892533121424E-005
  0.26640000000000003          1.3628387023345400E-005
  0.26750000000000002          1.3774194485449567E-005
  0.26860000000000001          1.4106613889452886E-005
  0.26970000000000000          1.4715233191964076E-005
  0.27080000000000004          1.5282770618796159E-005
  0.27190000000000003          1.5598358004353713E-005
  0.27300000000000002          1.5821111446711922E-005
  0.27410000000000001          1.6558644347241829E-005
  0.27520000000000000          1.8145983631256704E-005
  0.27629999999999999          2.0396812033140737E-005
  0.27740000000000004          2.2602887838729342E-005
  0.27850000000000003          2.4450178898404989E-005
  0.27960000000000002          2.5983021259889704E-005
  0.28070000000000001          2.7658536055241532E-005
  0.28179999999999999          2.9577806344604892E-005
  0.28290000000000004          3.1402967579196949E-005
  0.28400000000000003          3.2552674383623295E-005
  0.28510000000000002          3.2974687201203514E-005
  0.28620000000000001          3.3327614801237082E-005
  0.28730000000000000          3.4484077332308225E-005
  0.28840000000000005          3.6806592106586010E-005
  0.28950000000000004          3.9833907067076855E-005
  0.29060000000000002          4.2774368921527219E-005
  0.29170000000000001          4.5229193347040144E-005
  0.29280000000000000          4.7443183575523658E-005
  0.29389999999999999          4.9924656195798604E-005
  0.29500000000000004          5.2809635235462087E-005
  0.29610000000000003          5.5670752772129828E-005
  0.29720000000000002          5.7903987908502763E-005
  0.29830000000000001          5.9476507885846936E-005
  0.29940000000000000          6.0928497987333333E-005
  0.30050000000000004          6.3062296248972023E-005
  0.30160000000000003          6.6128290200139866E-005
  0.30270000000000002          6.9668341893702217E-005
  0.30380000000000001          7.2876820922828682E-005
  0.30490000000000000          7.5388605182524296E-005
  0.30599999999999999          7.7460579632315378E-005
  0.30709999999999998          7.9579542216378857E-005
  0.30819999999999997          8.2046477473340576E-005
  0.30930000000000007          8.4738741861655929E-005
  0.31040000000000006          8.7429369159508103E-005
  0.31150000000000005          9.0084409748669321E-005
  0.31260000000000004          9.3080030637792863E-005
  0.31370000000000003          9.6590323664713271E-005
  0.31480000000000002          1.0041744826594326E-004
  0.31590000000000001          1.0401631152490105E-004
  0.31700000000000000          1.0690597264328919E-004
  0.31809999999999999          1.0915213351836374E-004
  0.31919999999999998          1.1123439617222122E-004
  0.32029999999999997          1.1357458424754391E-004
  0.32140000000000007          1.1622955207712902E-004
  0.32250000000000006          1.1891162284882697E-004
  0.32360000000000005          1.2147446250310131E-004
  0.32470000000000004          1.2413258082233334E-004
  0.32580000000000003          1.2719094229396395E-004
  0.32690000000000002          1.3067315740045117E-004
  0.32800000000000001          1.3408421364147165E-004
  0.32910000000000000          1.3676493836101088E-004
  0.33019999999999999          1.3853369455318838E-004
  0.33129999999999998          1.3994693290442177E-004
  0.33239999999999997          1.4172228111419781E-004
  0.33350000000000007          1.4424230903387026E-004
  0.33460000000000006          1.4720195031259168E-004
  0.33570000000000005          1.4997797552496151E-004
  0.33680000000000004          1.5227458789013286E-004
  0.33790000000000003          1.5437213005498014E-004
  0.33900000000000002          1.5669490676373205E-004
  0.34010000000000001          1.5938862634357027E-004
  0.34120000000000000          1.6202352708205535E-004
  0.34229999999999999          1.6397290164604737E-004
  0.34339999999999998          1.6511796275153713E-004
  0.34449999999999997          1.6603177937213294E-004
  0.34560000000000007          1.6742663865443278E-004
  0.34670000000000006          1.6947335097938735E-004
  0.34780000000000005          1.7166444740723775E-004
  0.34890000000000004          1.7330021364614324E-004
