 -0.20000000000000001          0.0000000000000000
 -0.19890000000000002          0.0000000000000000
 -0.19780000000000000          0.0000000000000000
 -0.19670000000000001          0.0000000000000000
 -0.19560000000000002          0.0000000000000000
 -0.19450000000000001          0.0000000000000000
 -0.19340000000000002          0.0000000000000000
 -0.19230000000000000          0.0000000000000000
 -0.19120000000000001          0.0000000000000000
 -0.19010000000000002          0.0000000000000000
 -0.18900000000000000          8.5534040885976756E-048
 -0.18790000000000001          7.3511163569173959E-035
 -0.18680000000000002          4.6065520575955373E-034
 -0.18570000000000000          2.3539818041380928E-033
 -0.18460000000000001          8.7326747985515232E-033
 -0.18350000000000000         -9.0990521431226061E-033
 -0.18240000000000001         -2.2434521274432224E-031
 -0.18130000000000002         -7.7472793664137839E-031
 -0.18020000000000000         -2.9823549459371044E-031
 -0.17910000000000001          5.1036473964686872E-030
 -0.17800000000000002          1.2756231477049561E-029
 -0.17690000000000000         -8.4358943955054488E-030
 -0.17580000000000001         -9.7663245441475387E-029
 -0.17470000000000002         -1.4511085277450623E-028
 -0.17360000000000000          2.5539622177417117E-028
 -0.17250000000000001          1.2642890379448798E-027
 -0.17140000000000000          1.2330876246953277E-027
 -0.17030000000000001         -3.3700865872557252E-027
 -0.16920000000000002         -1.1367528014695853E-026
 -0.16810000000000000         -6.0434649356474355E-027
 -0.16700000000000001          3.5655674751277667E-026
 -0.16589999999999999          8.5694748995083524E-026
 -0.16480000000000000          6.1195703685458512E-027
 -0.16370000000000001         -3.3342379589763820E-025
 -0.16260000000000002         -6.4165379036916993E-025
 -0.16150000000000000          8.3509579635454041E-026
 -0.16040000000000001          2.6134468751907306E-024
 -0.15930000000000000          4.8558336965194311E-024
 -0.15820000000000001          3.0797442819170792E-025
 -0.15710000000000002         -1.6233911770558105E-023
 -0.15600000000000000         -3.3633668451173303E-023
 -0.15490000000000001         -1.4821232283273469E-023
 -0.15379999999999999          7.5901413199087846E-023
 -0.15270000000000000          1.9619982979162426E-022
 -0.15160000000000001          1.6492871455464927E-022
 -0.15050000000000002         -2.3676739942844183E-022
 -0.14940000000000001         -9.2249964760757889E-022
 -0.14830000000000002         -1.1534202624422343E-021
 -0.14720000000000000          2.0441403013809415E-022
 -0.14610000000000001          3.3596520170725785E-021
 -0.14500000000000002          5.8950621745893857E-021
 -0.14390000000000000          2.9310838044274623E-021
 -0.14280000000000001         -8.6148251624169118E-021
 -0.14169999999999999         -2.2985433136509513E-020
 -0.14060000000000000         -2.2934782864277875E-020
 -0.13950000000000001          9.3348955791629489E-021
 -0.13840000000000002          6.7655839008446248E-020
 -0.13730000000000001          1.0316871249575336E-019
 -0.13619999999999999          4.3541785780787821E-020
 -0.13510000000000000         -1.3612009196928588E-019
 -0.13400000000000001         -3.3239929798018651E-019
 -0.13290000000000002         -3.1819288454992940E-019
 -0.13180000000000000          9.2142698660732957E-020
 -0.13070000000000001          7.7729764080938479E-019
 -0.12959999999999999          1.1813581543451470E-018
 -0.12850000000000000          5.9631605455330886E-019
 -0.12740000000000001         -1.1426883912862556E-018
 -0.12630000000000002         -3.0340211454573512E-018
 -0.12520000000000001         -3.1319682221754950E-018
 -0.12410000000000000          7.7064814907601042E-021
 -0.12300000000000001          5.3960957687870070E-018
 -0.12190000000000001          8.9854305564119823E-018
 -0.12080000000000000          5.9043738533739925E-018
 -0.11970000000000000         -4.9952068208154537E-018
 -0.11860000000000001         -1.7656067604548672E-017
 -0.11750000000000001         -2.0681824802097706E-017
 -0.11640000000000000         -5.7184298555279733E-018
 -0.11530000000000000          2.2589053486097020E-017
 -0.11420000000000001          4.4300769436022246E-017
 -0.11310000000000001          3.5819200233318411E-017
 -0.11200000000000000         -9.1547081056826388E-018
 -0.11090000000000001         -6.5527679792008910E-017
 -0.10980000000000001         -8.6563015118135552E-017
 -0.10870000000000000         -3.8667606598815398E-017
 -0.10760000000000000          6.1587659715737050E-017
 -0.10650000000000001          1.4289649637483244E-016
 -0.10540000000000001          1.2463418809935076E-016
 -0.10430000000000000         -1.1400685448493315E-017
 -0.10320000000000000         -1.8109273244721204E-016
 -0.10210000000000001         -2.3973179106423428E-016
 -0.10100000000000001         -9.5728368211135478E-017
  -9.9900000000000003E-002     1.8517622534636089E-016
  -9.8799999999999999E-002     3.8660632473628602E-016
  -9.7700000000000009E-002     2.9131194179663756E-016
  -9.6600000000000005E-002    -1.1698649967213234E-016
  -9.5500000000000002E-002    -5.6953171884400056E-016
  -9.4400000000000012E-002    -6.6251862521669291E-016
  -9.3300000000000008E-002    -1.7941176909365282E-016
  -9.2200000000000004E-002     6.5237889968417733E-016
  -9.1100000000000000E-002     1.2209555359406356E-015
  -9.0000000000000011E-002     9.4632172581506021E-016
  -8.8900000000000007E-002    -2.1023850088744967E-016
  -8.7800000000000003E-002    -1.5606840398209355E-015
  -8.6699999999999999E-002    -2.0720774288687313E-015
  -8.5600000000000009E-002    -1.1311464324883683E-015
  -8.4500000000000006E-002     8.6267743403174751E-016
  -8.3400000000000002E-002     2.6077442410858182E-015
  -8.2299999999999998E-002     2.7663049971636722E-015
  -8.1200000000000008E-002     1.0163320694001357E-015
  -8.0100000000000005E-002    -1.5436113496150927E-015
  -7.9000000000000001E-002    -3.0803147220290663E-015
  -7.7899999999999997E-002    -2.4132913109011990E-015
  -7.6800000000000007E-002    -5.9150620195116927E-017
  -7.5700000000000003E-002     2.0031482169616755E-015
  -7.4600000000000000E-002     1.8638957886748684E-015
  -7.3500000000000010E-002    -5.7343389375291575E-016
  -7.2399999999999992E-002    -3.1130110408262145E-015
  -7.1300000000000002E-002    -2.7484150260431150E-015
  -7.0200000000000012E-002     1.7269231495653693E-015
  -6.9099999999999995E-002     7.9651759634596589E-015
  -6.8000000000000005E-002     1.0898396002660170E-014
  -6.6900000000000015E-002     6.1583852302652390E-015
  -6.5799999999999997E-002    -6.0381662675764291E-015
  -6.4700000000000008E-002    -1.9537163905994782E-014
  -6.3599999999999990E-002    -2.5118441872373164E-014
  -6.2500000000000000E-002    -1.6388717030063559E-014
  -6.1400000000000010E-002     5.0398862702267137E-015
  -6.0299999999999992E-002     2.8984037663426662E-014
  -5.9200000000000003E-002     4.1899572326238859E-014
  -5.8100000000000013E-002     3.5018053046047751E-014
  -5.6999999999999995E-002     1.0116675224870980E-014
  -5.5900000000000005E-002    -2.1188281841944292E-014
  -5.4800000000000015E-002    -4.4390804644329629E-014
  -5.3699999999999998E-002    -5.0533900929896757E-014
  -5.2600000000000008E-002    -4.0177168097446875E-014
  -5.1499999999999990E-002    -2.0300941984864738E-014
  -5.0400000000000000E-002     2.7941302412367492E-015
  -4.9300000000000010E-002     2.8055445607744461E-014
  -4.8199999999999993E-002     5.7088414670468681E-014
  -4.7100000000000003E-002     8.6157406350375318E-014
  -4.6000000000000013E-002     1.0044326752712577E-013
  -4.4899999999999995E-002     7.8304638435286824E-014
  -4.3800000000000006E-002     6.2349739493625291E-015
  -4.2699999999999988E-002    -1.0439445938562424E-013
  -4.1599999999999998E-002    -2.1222773701183980E-013
  -4.0500000000000008E-002    -2.6047799984649461E-013
  -3.9399999999999991E-002    -2.0627248552892969E-013
  -3.8300000000000001E-002    -4.8299987056793475E-014
  -3.7200000000000011E-002     1.6509958276812733E-013
  -3.6099999999999993E-002     3.5424663419672158E-013
  -3.5000000000000003E-002     4.4328904154171299E-013
  -3.3900000000000013E-002     3.9238349982401217E-013
  -3.2799999999999996E-002     2.1020580838037567E-013
  -3.1700000000000006E-002    -5.5871621348552856E-014
  -3.0599999999999988E-002    -3.4049344832357957E-013
  -2.9499999999999998E-002    -5.7696523340227527E-013
  -2.8400000000000009E-002    -7.0389457066873616E-013
  -2.7299999999999991E-002    -6.6888736303254718E-013
  -2.6200000000000001E-002    -4.4098660270316382E-013
  -2.5100000000000011E-002    -3.4205463846555266E-014
  -2.3999999999999994E-002     4.7199370063408756E-013
  -2.2900000000000004E-002     9.3814344313826000E-013
  -2.1800000000000014E-002     1.2087030595159367E-012
  -2.0699999999999996E-002     1.1807663137172778E-012
  -1.9600000000000006E-002     8.5933587719645179E-013
  -1.8499999999999989E-002     3.5907382752922745E-013
  -1.7399999999999999E-002    -1.5927356818426688E-013
  -1.6300000000000009E-002    -5.8564069392597017E-013
  -1.5199999999999991E-002    -9.2862718383000263E-013
  -1.4100000000000001E-002    -1.3019732861274923E-012
  -1.3000000000000012E-002    -1.8254887618889557E-012
  -1.1899999999999994E-002    -2.4956820464381406E-012
  -1.0800000000000004E-002    -3.1100738304142857E-012
  -9.6999999999999864E-003    -3.3026784432284391E-012
  -8.5999999999999965E-003    -2.6789564490366348E-012
  -7.5000000000000067E-003    -9.7199331916512277E-013
  -6.3999999999999890E-003     1.8740660065464455E-012
  -5.2999999999999992E-003     5.7370349790250256E-012
  -4.2000000000000093E-003     1.0426537237761287E-011
  -3.0999999999999917E-003     1.5775568351637761E-011
  -2.0000000000000018E-003     2.1635833749587149E-011
  -9.0000000000001190E-004     2.7781322381456673E-011
   2.0000000000000573E-004     3.3812650596095729E-011
   1.2999999999999956E-003     3.9178178062867215E-011
   2.4000000000000132E-003     4.3358854701077158E-011
   3.5000000000000031E-003     4.6143349557988140E-011
   4.5999999999999930E-003     4.7833001448612007E-011
   5.7000000000000106E-003     4.9231684701163301E-011
   6.8000000000000005E-003     5.1394111189035842E-011
   7.8999999999999904E-003     5.5252909886278139E-011
   9.0000000000000080E-003     6.1322100175503801E-011
   1.0099999999999998E-002     6.9627283105771299E-011
   1.1199999999999988E-002     7.9871338709562290E-011
   1.2300000000000005E-002     9.1703318549898873E-011
   1.3399999999999995E-002     1.0491088553442763E-010
   1.4500000000000013E-002     1.1943170064031591E-010
   1.5600000000000003E-002     1.3521976593987465E-010
   1.6699999999999993E-002     1.5210961656907138E-010
   1.7800000000000010E-002     1.6981943629089272E-010
   1.8900000000000000E-002     1.8812747193395760E-010
   1.9999999999999990E-002     2.0712068171666980E-010
   2.1100000000000008E-002     2.2734669702371340E-010
   2.2199999999999998E-002     2.4974919354823193E-010
   2.3300000000000015E-002     2.7540161817715985E-010
   2.4400000000000005E-002     3.0518212956739990E-010
   2.5499999999999995E-002     3.3956876199778000E-010
   2.6600000000000013E-002     3.7865391377952463E-010
   2.7700000000000002E-002     4.2233824770750535E-010
   2.8799999999999992E-002     4.7056430974019782E-010
   2.9900000000000010E-002     5.2345039414087594E-010
   3.1000000000000000E-002     5.8128163393783901E-010
   3.2099999999999990E-002     6.4442368108424735E-010
   3.3200000000000007E-002     7.1326816675203735E-010
   3.4299999999999997E-002     7.8826689620108014E-010
   3.5400000000000015E-002     8.7001789106359004E-010
   3.6500000000000005E-002     9.5931484977987149E-010
   3.7599999999999995E-002     1.0571027386773343E-009
   3.8700000000000012E-002     1.1643725983389096E-009
   3.9800000000000002E-002     1.2820920991528611E-009
   4.0899999999999992E-002     1.4112397916930930E-009
   4.2000000000000010E-002     1.5529175723115457E-009
   4.3099999999999999E-002     1.7084278436384068E-009
   4.4200000000000017E-002     1.8792116751596395E-009
   4.5300000000000007E-002     2.0666512945409025E-009
   4.6399999999999997E-002     2.2718691372600918E-009
   4.7500000000000014E-002     2.4956916533367376E-009
   4.8600000000000004E-002     2.7388542545023524E-009
   4.9699999999999994E-002     3.0023543651222585E-009
   5.0800000000000012E-002     3.2877431888064623E-009
   5.1900000000000002E-002     3.5971805534270696E-009
   5.2999999999999992E-002     3.9332230805651867E-009
   5.4099999999999981E-002     4.2985028869675946E-009
   5.5200000000000027E-002     4.6955164201274658E-009
   5.6300000000000017E-002     5.1266608735995700E-009
   5.7400000000000007E-002     5.5944706645045217E-009
   5.8499999999999996E-002     6.1018621266834053E-009
   5.9599999999999986E-002     6.6521832486892813E-009
   6.0700000000000032E-002     7.2489920732714676E-009
   6.1800000000000022E-002     7.8957000937400315E-009
   6.2900000000000011E-002     8.5953155704024982E-009
   6.4000000000000001E-002     9.3504990417150785E-009
   6.5099999999999991E-002     1.0163957675501019E-008
   6.6199999999999981E-002     1.1038990166411084E-008
   6.7300000000000026E-002     1.1979881087141906E-008
   6.8400000000000016E-002     1.2991923092896481E-008
   6.9500000000000006E-002     1.4081067867265216E-008
   7.0599999999999996E-002     1.5253414531456192E-008
   7.1699999999999986E-002     1.6514853484748858E-008
   7.2800000000000031E-002     1.7871048640925645E-008
   7.3900000000000021E-002     1.9327728750793618E-008
   7.5000000000000011E-002     2.0891061325299170E-008
   7.6100000000000001E-002     2.2567864021991920E-008
   7.7199999999999991E-002     2.4365526485323775E-008
   7.8299999999999981E-002     2.6291763433048250E-008
   7.9400000000000026E-002     2.8354364189906107E-008
   8.0500000000000016E-002     3.0561093211642377E-008
   8.1600000000000006E-002     3.2919743375711490E-008
   8.2699999999999996E-002     3.5438276313467655E-008
   8.3799999999999986E-002     3.8124966295068786E-008
   8.4900000000000031E-002     4.0988563654305774E-008
   8.6000000000000021E-002     4.4038522162277909E-008
   8.7100000000000011E-002     4.7285222848354631E-008
   8.8200000000000001E-002     5.0740126766863764E-008
   8.9299999999999990E-002     5.4415668415681104E-008
   9.0399999999999980E-002     5.8324893359435199E-008
   9.1500000000000026E-002     6.2480957296878660E-008
   9.2600000000000016E-002     6.6896710393387697E-008
   9.3700000000000006E-002     7.1584608463120184E-008
   9.4799999999999995E-002     7.6556965211686842E-008
   9.5899999999999985E-002     8.1826456721493632E-008
   9.7000000000000031E-002     8.7406640147938845E-008
   9.8100000000000021E-002     9.3312124249669733E-008
   9.9200000000000010E-002     9.9558469912599416E-008
  0.10030000000000000          1.0616174961341080E-007
  0.10139999999999999          1.1313808556677827E-007
  0.10249999999999998          1.2050337261370078E-007
  0.10360000000000003          1.2827324269436508E-007
  0.10470000000000002          1.3646344143579557E-007
  0.10580000000000001          1.4509036816433360E-007
  0.10690000000000000          1.5417138854444116E-007
  0.10799999999999998          1.6372489142211974E-007
  0.10910000000000003          1.7377010408379894E-007
  0.11020000000000002          1.8432666593069522E-007
  0.11130000000000001          1.9541431584000798E-007
  0.11240000000000000          2.0705276426722721E-007
  0.11349999999999999          2.1926172166784288E-007
  0.11460000000000004          2.3206091270819970E-007
  0.11570000000000003          2.4547003363293293E-007
  0.11680000000000001          2.5950865278898541E-007
  0.11790000000000000          2.7419608272791511E-007
  0.11899999999999999          2.8955153652529697E-007
  0.12009999999999998          3.0559434094354361E-007
  0.12120000000000003          3.2234416380558093E-007
  0.12230000000000002          3.3982112768168565E-007
  0.12340000000000001          3.5804563935922881E-007
  0.12450000000000000          3.7703816246900029E-007
  0.12559999999999999          3.9681881958127676E-007
  0.12670000000000003          4.1740725009727465E-007
  0.12780000000000002          4.3882241129718412E-007
  0.12890000000000001          4.6108266360529707E-007
  0.13000000000000000          4.8420599796368305E-007
  0.13109999999999999          5.0821034847099268E-007
  0.13219999999999998          5.3311384817784237E-007
  0.13330000000000003          5.5893480066510550E-007
  0.13440000000000002          5.8569082739262882E-007
  0.13550000000000001          6.1339829926504423E-007
  0.13660000000000000          6.4207233663176882E-007
  0.13769999999999999          6.7172697981726100E-007
  0.13880000000000003          7.0237581439862872E-007
  0.13990000000000002          7.3403231226614187E-007
  0.14100000000000001          7.6671005899690819E-007
  0.14210000000000000          8.0042207173384680E-007
  0.14319999999999999          8.3518011706466191E-007
  0.14429999999999998          8.7099408574423527E-007
  0.14540000000000003          9.0787227691172058E-007
  0.14650000000000002          9.4582151177738123E-007
  0.14760000000000001          9.8484758836994092E-007
  0.14870000000000000          1.0249557362839346E-006
  0.14979999999999999          1.0661500482455209E-006
  0.15090000000000003          1.1084342759203438E-006
  0.15200000000000002          1.1518112614793472E-006
  0.15310000000000001          1.1962832786592849E-006
  0.15420000000000000          1.2418512369548588E-006
  0.15529999999999999          1.2885146816187182E-006
  0.15639999999999998          1.3362704294194067E-006
  0.15750000000000003          1.3851134781360647E-006
  0.15860000000000002          1.4350367791847535E-006
  0.15970000000000001          1.4860323744868324E-006
  0.16080000000000000          1.5380913964689590E-006
  0.16189999999999999          1.5912047501841159E-006
  0.16300000000000003          1.6453622038169082E-006
  0.16410000000000002          1.7005525023704011E-006
  0.16520000000000001          1.7567632539792832E-006
  0.16630000000000000          1.8139802477888392E-006
  0.16739999999999999          1.8721877950154636E-006
  0.16850000000000004          1.9313681605124718E-006
  0.16960000000000003          1.9915014490832625E-006
  0.17070000000000002          2.0525671970970458E-006
  0.17180000000000001          2.1145438040546543E-006
  0.17290000000000000          2.1774089873358954E-006
  0.17399999999999999          2.2411400095732238E-006
  0.17510000000000003          2.3057132239043940E-006
  0.17620000000000002          2.3711038465987827E-006
  0.17730000000000001          2.4372857296837137E-006
  0.17840000000000000          2.5042320430654845E-006
  0.17949999999999999          2.5719143650346655E-006
  0.18060000000000004          2.6403047286291762E-006
  0.18170000000000003          2.7093735752712096E-006
  0.18280000000000002          2.7790908916356071E-006
  0.18390000000000001          2.8494259822761838E-006
  0.18500000000000000          2.9203470148783773E-006
  0.18609999999999999          2.9918219297539509E-006
  0.18720000000000003          3.0638175303462892E-006
  0.18830000000000002          3.1363003927251026E-006
  0.18940000000000001          3.2092375477074513E-006
  0.19050000000000000          3.2825951166156945E-006
  0.19159999999999999          3.3563410397615947E-006
  0.19270000000000004          3.4304430300832390E-006
  0.19380000000000003          3.5048672089029864E-006
  0.19490000000000002          3.5795810617852485E-006
  0.19600000000000001          3.6545509374260596E-006
  0.19710000000000000          3.7297436392688047E-006
  0.19819999999999999          3.8051268802515716E-006
  0.19930000000000003          3.8806688280597979E-006
  0.20040000000000002          3.9563374230052461E-006
  0.20150000000000001          4.0321010601470296E-006
  0.20260000000000000          4.1079260881811819E-006
  0.20369999999999999          4.1837820390351953E-006
  0.20480000000000004          4.2596398088786123E-006
  0.20590000000000003          4.3354725676177305E-006
  0.20700000000000002          4.4112534851588468E-006
  0.20810000000000001          4.4869534576715061E-006
  0.20920000000000000          4.5625424718305492E-006
  0.21029999999999999          4.6379927880475719E-006
  0.21140000000000003          4.7132771214815210E-006
  0.21250000000000002          4.7883731895122032E-006
  0.21360000000000001          4.8632587095194249E-006
  0.21470000000000000          4.9379113988829919E-006
  0.21579999999999999          5.0123080654880106E-006
  0.21690000000000004          5.0864259719669360E-006
  0.21800000000000003          5.1602446546889780E-006
  0.21910000000000002          5.2337459237601013E-006
  0.22020000000000001          5.3069111345389204E-006
  0.22130000000000000          5.3797248256155034E-006
  0.22239999999999999          5.4521683523484647E-006
  0.22350000000000003          5.5242248890858218E-006
  0.22460000000000002          5.5958785196702934E-006
  0.22570000000000001          5.6671146921866520E-006
  0.22680000000000000          5.7379183999723168E-006
  0.22789999999999999          5.8082782743435164E-006
  0.22900000000000004          5.8781815823744269E-006
  0.23010000000000003          5.9476146816445199E-006
  0.23120000000000002          6.0165666582173759E-006
  0.23230000000000001          6.0850275076512736E-006
  0.23340000000000000          6.1529885897465480E-006
  0.23450000000000004          6.2204399000614786E-006
  0.23560000000000003          6.2873718889016960E-006
  0.23670000000000002          6.3537745518254825E-006
  0.23780000000000001          6.4196374296437667E-006
  0.23890000000000000          6.4849527916515836E-006
  0.23999999999999999          6.5497124523966173E-006
  0.24110000000000004          6.6139091359212535E-006
  0.24220000000000003          6.6775360210152289E-006
  0.24330000000000002          6.7405831032368242E-006
  0.24440000000000001          6.8030417423863732E-006
  0.24550000000000000          6.8649042077589092E-006
  0.24660000000000004          6.9261636781441697E-006
  0.24770000000000003          6.9868128775845414E-006
  0.24880000000000002          7.0468422563856541E-006
  0.24990000000000001          7.1062413553584390E-006
  0.25100000000000000          7.1649983510717721E-006
  0.25209999999999999          7.2231023295892315E-006
  0.25320000000000004          7.2805455602058537E-006
  0.25430000000000003          7.3373194027219710E-006
  0.25540000000000002          7.3934129432011621E-006
  0.25650000000000001          7.4488143582123041E-006
  0.25760000000000000          7.5035086410928176E-006
  0.25870000000000004          7.5574839684115796E-006
  0.25980000000000003          7.6107276072427661E-006
  0.26090000000000002          7.6632295531446551E-006
  0.26200000000000001          7.7149770731914260E-006
  0.26310000000000000          7.7659533417310918E-006
  0.26419999999999999          7.8161410783643205E-006
  0.26530000000000004          7.8655211837023764E-006
  0.26640000000000003          7.9140800153247298E-006
  0.26750000000000002          7.9618039308108555E-006
  0.26860000000000001          8.0086774687508253E-006
  0.26970000000000000          8.0546806202611967E-006
  0.27080000000000004          8.0997924669638324E-006
  0.27190000000000003          8.1439902714911862E-006
  0.27300000000000002          8.1872549344545193E-006
  0.27410000000000001          8.2295728134333085E-006
  0.27520000000000000          8.2709284470176219E-006
  0.27629999999999999          8.3112990978399153E-006
  0.27740000000000004          8.3506620285326442E-006
  0.27850000000000003          8.3889935922335610E-006
  0.27960000000000002          8.4262765085433369E-006
  0.28070000000000001          8.4624916780732298E-006
  0.28179999999999999          8.4976209109292057E-006
  0.28290000000000004          8.5316441982278258E-006
  0.28400000000000003          8.5645397120962475E-006
  0.28510000000000002          8.5962856246616281E-006
  0.28620000000000001          8.6268637460299341E-006
  0.28730000000000000          8.6562558863071264E-006
  0.28840000000000005          8.6844438555991731E-006
  0.28950000000000004          8.7114085545173335E-006
  0.29060000000000002          8.7371317931675755E-006
  0.29170000000000001          8.7615990196346691E-006
  0.29280000000000000          8.7847947725086825E-006
  0.29389999999999999          8.8067063188637942E-006
  0.29500000000000004          8.8273154688059670E-006
  0.29610000000000003          8.8466076704199727E-006
  0.29720000000000002          8.8645692812852846E-006
  0.29830000000000001          8.8811912064548849E-006
  0.29940000000000000          8.8964698079499683E-006
  0.30050000000000004          8.9104005382970226E-006
  0.30160000000000003          8.9229724835596281E-006
  0.30270000000000002          8.9341747298013652E-006
  0.30380000000000001          8.9439990915699147E-006
  0.30490000000000000          8.9524446593705781E-006
  0.30599999999999999          8.9595168901715627E-006
  0.30709999999999998          8.9652239694251878E-006
  0.30819999999999997          8.9695649876367500E-006
  0.30930000000000007          8.9725344878380386E-006
  0.31040000000000006          8.9741306510396501E-006
  0.31150000000000005          8.9743589342097951E-006
  0.31260000000000004          8.9732366177478073E-006
  0.31370000000000003          8.9707828010424240E-006
  0.31480000000000002          8.9670120360088734E-006
  0.31590000000000001          8.9619288701206645E-006
  0.31700000000000000          8.9555423983248167E-006
  0.31809999999999999          8.9478653535471514E-006
  0.31919999999999998          8.9389241111340235E-006
  0.32029999999999997          8.9287468654211844E-006
  0.32140000000000007          8.9173618107443926E-006
  0.32250000000000006          8.9047871369976818E-006
  0.32360000000000005          8.8910373960962786E-006
  0.32470000000000004          8.8761325969236256E-006
  0.32580000000000003          8.8601054812889847E-006
  0.32690000000000002          8.8429987954433394E-006
  0.32800000000000001          8.8248461906906552E-006
  0.32910000000000000          8.8056767708613889E-006
  0.33019999999999999          8.7855132733230848E-006
  0.33129999999999998          8.7643838924114978E-006
  0.33239999999999997          8.7423286458935060E-006
  0.33350000000000007          8.7193930085041997E-006
  0.33460000000000006          8.6956188169998570E-006
  0.33570000000000005          8.6710406321791471E-006
  0.33680000000000004          8.6456875578725284E-006
  0.33790000000000003          8.6195977928574718E-006
  0.33900000000000002          8.5928149928796643E-006
  0.34010000000000001          8.5653882706530033E-006
  0.34120000000000000          8.5373649199019775E-006
  0.34229999999999999          8.5087795014252578E-006
  0.34339999999999998          8.4796665760215081E-006
  0.34449999999999997          8.4500607044893991E-006
  0.34560000000000007          8.4200073615640178E-006
  0.34670000000000006          8.3895592979380654E-006
  0.34780000000000005          8.3587656263254410E-006
  0.34890000000000004          8.3276618170195120E-006
