 -0.20000000000000001          0.0000000000000000
 -0.19890000000000002          0.0000000000000000
 -0.19780000000000000          0.0000000000000000
 -0.19670000000000001          0.0000000000000000
 -0.19560000000000002          0.0000000000000000
 -0.19450000000000001          0.0000000000000000
 -0.19340000000000002          0.0000000000000000
 -0.19230000000000000          0.0000000000000000
 -0.19120000000000001          0.0000000000000000
 -0.19010000000000002          1.1500649062819906E-026
 -0.18900000000000000         -4.4108744596065977E-026
 -0.18790000000000001         -8.3684307395826353E-025
 -0.18680000000000002         -2.7461378153988593E-024
 -0.18570000000000000          2.6427810623827676E-024
 -0.18460000000000001          4.3267834204573484E-023
 -0.18350000000000000          1.2186831921365853E-022
 -0.18240000000000001          4.0881488945491734E-023
 -0.18130000000000002         -7.1731069100299415E-022
 -0.18020000000000000         -2.3150321574980660E-021
 -0.17910000000000001         -2.5359483499799328E-021
 -0.17800000000000002          4.4883369336758771E-021
 -0.17690000000000000          2.2678313253530159E-020
 -0.17580000000000001          3.7843516255475513E-020
 -0.17470000000000002          5.2870105112474783E-021
 -0.17360000000000000         -1.2070130317964851E-019
 -0.17250000000000001         -2.9102416317997341E-019
 -0.17140000000000000         -2.6805950972516624E-019
 -0.17030000000000001          2.7701436024155985E-019
 -0.16920000000000002          1.3309125124922731E-018
 -0.16810000000000000          2.0066328393692076E-018
 -0.16700000000000001          6.7638031360810613E-019
 -0.16589999999999999         -3.5192055881117450E-018
 -0.16480000000000000         -8.3667714229354325E-018
 -0.16370000000000001         -8.0219504312444239E-018
 -0.16260000000000002          2.9539351729117946E-018
 -0.16150000000000000          2.1755223995783076E-017
 -0.16040000000000001          3.2763856439618530E-017
 -0.15930000000000000          1.5678379675968695E-017
 -0.15820000000000001         -3.2915376075505269E-017
 -0.15710000000000002         -8.1301306006797113E-017
 -0.15600000000000000         -7.4238784997259173E-017
 -0.15490000000000001          1.6899438880802371E-017
 -0.15379999999999999          1.4034615957999559E-016
 -0.15270000000000000          1.7252507359509019E-016
 -0.15160000000000001          2.3010336572084224E-017
 -0.15050000000000002         -2.2978233030753741E-016
 -0.14940000000000001         -3.2397541159710627E-016
 -0.14830000000000002         -2.4193077462235976E-017
 -0.14720000000000000          5.5431175439165976E-016
 -0.14610000000000001          8.3821120498773543E-016
 -0.14500000000000002          1.9049601577158144E-016
 -0.14390000000000000         -1.3366666951617347E-015
 -0.14280000000000001         -2.5641366556204763E-015
 -0.14169999999999999         -1.7912256557561864E-015
 -0.14060000000000000          1.5993481292479850E-015
 -0.13950000000000001          5.7563215600924452E-015
 -0.13840000000000002          6.8651402040907677E-015
 -0.13730000000000001          2.0379676238403870E-015
 -0.13619999999999999         -7.2492425406172440E-015
 -0.13510000000000000         -1.4501959610383100E-014
 -0.13400000000000001         -1.2295095734441208E-014
 -0.13290000000000002          9.8933839992173051E-016
 -0.13180000000000000          1.7458204546189835E-014
 -0.13070000000000001          2.3874821322951472E-014
 -0.12959999999999999          1.2388785201704381E-014
 -0.12850000000000000         -1.0550554299575106E-014
 -0.12740000000000001         -2.6496064728119662E-014
 -0.12630000000000002         -1.9721933979046405E-014
 -0.12520000000000001          6.5637790104668318E-015
 -0.12410000000000000          2.8367473910792473E-014
 -0.12300000000000001          1.9659319609519870E-014
 -0.12190000000000001         -2.0974658438576654E-014
 -0.12080000000000000         -6.0383650662091970E-014
 -0.11970000000000000         -5.2937692342773794E-014
 -0.11860000000000001          1.7398177015282536E-014
 -0.11750000000000001          1.1040874567683769E-013
 -0.11640000000000000          1.4892553607414709E-013
 -0.11530000000000000          7.8742134340654280E-014
 -0.11420000000000001         -7.6133245758087330E-014
 -0.11310000000000001         -2.1479332527018139E-013
 -0.11200000000000000         -2.2862579342716889E-013
 -0.11090000000000001         -9.0116377359441645E-014
 -0.10980000000000001          1.1356531898690825E-013
 -0.10870000000000000          2.3979727708722795E-013
 -0.10760000000000000          2.0275601130773959E-013
 -0.10650000000000001          4.6377401837472175E-014
 -0.10540000000000001         -9.0005158545419339E-014
 -0.10430000000000000         -9.2284835914608305E-014
 -0.10320000000000000          2.2811117347751373E-014
 -0.10210000000000001          1.1500276100341686E-013
 -0.10100000000000001          4.5192412908730171E-014
  -9.9900000000000003E-002    -1.8500522294677440E-013
  -9.8799999999999999E-002    -4.0602834679499157E-013
  -9.7700000000000009E-002    -4.0397516603591903E-013
  -9.6600000000000005E-002    -1.0224610600456787E-013
  -9.5500000000000002E-002     3.5120016161728101E-013
  -9.4400000000000012E-002     6.7336360012179884E-013
  -9.3300000000000008E-002     6.4966966268470725E-013
  -9.2200000000000004E-002     2.9148081517872369E-013
  -9.1100000000000000E-002    -1.7666999861757245E-013
  -9.0000000000000011E-002    -4.8598787754509299E-013
  -8.8900000000000007E-002    -5.1115193891786644E-013
  -8.7800000000000003E-002    -3.3359968433497401E-013
  -8.6699999999999999E-002    -1.4610148757030861E-013
  -8.5600000000000009E-002    -8.9701168584923792E-014
  -8.4500000000000006E-002    -1.5296544955170141E-013
  -8.3400000000000002E-002    -1.9735488200272020E-013
  -8.2299999999999998E-002    -7.1606525505190005E-014
  -8.1200000000000008E-002     2.7349132615704835E-013
  -8.0100000000000005E-002     7.3729130439788306E-013
  -7.9000000000000001E-002     1.1033805162943782E-012
  -7.7899999999999997E-002     1.1349876117075551E-012
  -7.6800000000000007E-002     6.9784819199321335E-013
  -7.5700000000000003E-002    -1.3803313960591193E-013
  -7.4600000000000000E-002    -1.0834176437935581E-012
  -7.3500000000000010E-002    -1.7483801949616881E-012
  -7.2399999999999992E-002    -1.8582247286041508E-012
  -7.1300000000000002E-002    -1.4288705852195692E-012
  -7.0200000000000012E-002    -7.4737264987829115E-013
  -6.9099999999999995E-002    -1.3283655859282298E-013
  -6.8000000000000005E-002     3.4801935638898411E-013
  -6.6900000000000015E-002     9.4926638164606481E-013
  -6.5799999999999997E-002     1.9839444757167107E-012
  -6.4700000000000008E-002     3.4148896817931857E-012
  -6.3599999999999990E-002     4.6696756704481974E-012
  -6.2500000000000000E-002     4.9219048975360239E-012
  -6.1400000000000010E-002     3.6944687760436146E-012
  -6.0299999999999992E-002     1.3178396091395266E-012
  -5.9200000000000003E-002    -1.1694058265133693E-012
  -5.8100000000000013E-002    -2.6587005166883336E-012
  -5.6999999999999995E-002    -2.6709641443015436E-012
  -5.5900000000000005E-002    -1.5668382390136880E-012
  -5.4800000000000015E-002    -1.1961173154342801E-013
  -5.3699999999999998E-002     1.1565072901076153E-012
  -5.2600000000000008E-002     2.3302870050248609E-012
  -5.1499999999999990E-002     3.7627106291837335E-012
  -5.0400000000000000E-002     5.4968907030316796E-012
  -4.9300000000000010E-002     6.9167319441389868E-012
  -4.8199999999999993E-002     7.0251252731740546E-012
  -4.7100000000000003E-002     5.1462952822821775E-012
  -4.6000000000000013E-002     1.4931339584886056E-012
  -4.4899999999999995E-002    -2.8352929812981571E-012
  -4.3800000000000006E-002    -6.3940233316345711E-012
  -4.2699999999999988E-002    -8.0590221995797520E-012
  -4.1599999999999998E-002    -7.4152706544536217E-012
  -4.0500000000000008E-002    -4.7628984090053442E-012
  -3.9399999999999991E-002    -9.0356671797500112E-013
  -3.8300000000000001E-002     3.1161924169541253E-012
  -3.7200000000000011E-002     6.2684978735507297E-012
  -3.6099999999999993E-002     7.8306571296694693E-012
  -3.5000000000000003E-002     7.5996691578641527E-012
  -3.3900000000000013E-002     5.8520866104410231E-012
  -3.2799999999999996E-002     3.0118195264157472E-012
  -3.1700000000000006E-002    -7.0628854327593279E-013
  -3.0599999999999988E-002    -5.2851846163438757E-012
  -2.9499999999999998E-002    -1.0434391198299630E-011
  -2.8400000000000009E-002    -1.5091828828306323E-011
  -2.7299999999999991E-002    -1.7547978695131331E-011
  -2.6200000000000001E-002    -1.6405158481668917E-011
  -2.5100000000000011E-002    -1.1777676056645223E-011
  -2.3999999999999994E-002    -5.7094572125657118E-012
  -2.2900000000000004E-002    -1.2541122654254491E-012
  -2.1800000000000014E-002    -7.4109089091217539E-013
  -2.0699999999999996E-002    -4.5058895850615039E-012
  -1.9600000000000006E-002    -1.1050676866632069E-011
  -1.8499999999999989E-002    -1.8421184716511444E-011
  -1.7399999999999999E-002    -2.5570746908787401E-011
  -1.6300000000000009E-002    -3.2571115943235301E-011
  -1.5199999999999991E-002    -3.9657960942960825E-011
  -1.4100000000000001E-002    -4.6218587984590034E-011
  -1.3000000000000012E-002    -5.0873166790308462E-011
  -1.1899999999999994E-002    -5.2714142079189171E-011
  -1.0800000000000004E-002    -5.2580620413243637E-011
  -9.6999999999999864E-003    -5.3101377461838242E-011
  -8.5999999999999965E-003    -5.7299495009875908E-011
  -7.5000000000000067E-003    -6.6826849609567682E-011
  -6.3999999999999890E-003    -8.1204619417627489E-011
  -5.2999999999999992E-003    -9.8535221648706925E-011
  -4.2000000000000093E-003    -1.1691468626561903E-010
  -3.0999999999999917E-003    -1.3535776666184202E-010
  -2.0000000000000018E-003    -1.5373130546336005E-010
  -9.0000000000001190E-004    -1.7219016490432063E-010
   2.0000000000000573E-004    -1.9091359049204951E-010
   1.2999999999999956E-003    -2.1035585773264769E-010
   2.4000000000000132E-003    -2.3149948624733274E-010
   3.5000000000000031E-003    -2.5558030691817815E-010
   4.5999999999999930E-003    -2.8344093738751082E-010
   5.7000000000000106E-003    -3.1523336718740184E-010
   6.8000000000000005E-003    -3.5090497174648398E-010
   7.8999999999999904E-003    -3.9100106485887744E-010
   9.0000000000000080E-003    -4.3680506434104911E-010
   1.0099999999999998E-002    -4.8941217745121609E-010
   1.1199999999999988E-002    -5.4852622444198407E-010
   1.2300000000000005E-002    -6.1231664183477535E-010
   1.3399999999999995E-002    -6.7884997623220493E-010
   1.4500000000000013E-002    -7.4805361904846251E-010
   1.5600000000000003E-002    -8.2243389876163920E-010
   1.6699999999999993E-002    -9.0572843669528711E-010
   1.7800000000000010E-002    -1.0005546391411111E-009
   1.8900000000000000E-002    -1.1071250582971759E-009
   1.9999999999999990E-002    -1.2241646585308500E-009
   2.1100000000000008E-002    -1.3510823571038231E-009
   2.2199999999999998E-002    -1.4892322930392302E-009
   2.3300000000000015E-002    -1.6409789083126154E-009
   2.4400000000000005E-002    -1.8074964858171250E-009
   2.5499999999999995E-002    -1.9875956436264782E-009
   2.6600000000000013E-002    -2.1789903215106695E-009
   2.7700000000000002E-002    -2.3810464711003350E-009
   2.8799999999999992E-002    -2.5965039007756451E-009
   2.9900000000000010E-002    -2.8304705246282950E-009
   3.1000000000000000E-002    -3.0875022538621359E-009
   3.2099999999999990E-002    -3.3693590140158030E-009
   3.3200000000000007E-002    -3.6753908805306817E-009
   3.4299999999999997E-002    -4.0050323057980270E-009
   3.5400000000000015E-002    -4.3599368559907153E-009
   3.6500000000000005E-002    -4.7437711536698736E-009
   3.7599999999999995E-002    -5.1600497208422553E-009
   3.8700000000000012E-002    -5.6102953394084363E-009
   3.9800000000000002E-002    -6.0944249646861745E-009
   4.0899999999999992E-002    -6.6129737241733394E-009
   4.2000000000000010E-002    -7.1689263414493323E-009
   4.3099999999999999E-002    -7.7673227849567425E-009
   4.4200000000000017E-002    -8.4130258315434265E-009
   4.5300000000000007E-002    -9.1088852016689946E-009
   4.6399999999999997E-002    -9.8560795080963839E-009
   4.7500000000000014E-002    -1.0656218130122094E-008
   4.8600000000000004E-002    -1.1513010100826792E-008
   4.9699999999999994E-002    -1.2431768503517121E-008
   5.0800000000000012E-002    -1.3417197131103818E-008
   5.1900000000000002E-002    -1.4471686071714292E-008
   5.2999999999999992E-002    -1.5595869484740208E-008
   5.4099999999999981E-002    -1.6791005919002286E-008
   5.5200000000000027E-002    -1.8060966056053574E-008
   5.6300000000000017E-002    -1.9411986684757205E-008
   5.7400000000000007E-002    -2.0850590587427461E-008
   5.8499999999999996E-002    -2.2381703601579994E-008
   5.9599999999999986E-002    -2.4008784293981119E-008
   6.0700000000000032E-002    -2.5735623410126112E-008
   6.1800000000000022E-002    -2.7567853777552716E-008
   6.2900000000000011E-002    -2.9512568389120652E-008
   6.4000000000000001E-002    -3.1576426806620834E-008
   6.5099999999999991E-002    -3.3764219864449120E-008
   6.6199999999999981E-002    -3.6079420340226543E-008
   6.7300000000000026E-002    -3.8526231094235116E-008
   6.8400000000000016E-002    -4.1111064774665077E-008
   6.9500000000000006E-002    -4.3841890118297972E-008
   7.0599999999999996E-002    -4.6726029268025819E-008
   7.1699999999999986E-002    -4.9768448917571565E-008
   7.2800000000000031E-002    -5.2972392694523969E-008
   7.3900000000000021E-002    -5.6341850296344311E-008
   7.5000000000000011E-002    -5.9883682013146368E-008
   7.6100000000000001E-002    -6.3607451750153451E-008
   7.7199999999999991E-002    -6.7523039604106318E-008
   7.8299999999999981E-002    -7.1638162069115335E-008
   7.9400000000000026E-002    -7.5957800049758143E-008
   8.0500000000000016E-002    -8.0485911269072964E-008
   8.1600000000000006E-002    -8.5227540580483669E-008
   8.2699999999999996E-002    -9.0189402612843204E-008
   8.3799999999999986E-002    -9.5378581477227083E-008
   8.4900000000000031E-002    -1.0080080414808555E-007
   8.6000000000000021E-002    -1.0646029124926900E-007
   8.7100000000000011E-002    -1.1236153341086745E-007
   8.8200000000000001E-002    -1.1851144421369984E-007
   8.9299999999999990E-002    -1.2491973677696400E-007
   9.0399999999999980E-002    -1.3159660738891813E-007
   9.1500000000000026E-002    -1.3854960911884329E-007
   9.2600000000000016E-002    -1.4578196783075990E-007
   9.3700000000000006E-002    -1.5329403879603577E-007
   9.4799999999999995E-002    -1.6108683098535574E-007
   9.5899999999999985E-002    -1.6916449396829663E-007
   9.7000000000000031E-002    -1.7753376368999343E-007
   9.8100000000000021E-002    -1.8620086450481141E-007
   9.9200000000000010E-002    -1.9516843963172760E-007
  0.10030000000000000         -2.0443565063031379E-007
  0.10139999999999999         -2.1400119010193619E-007
  0.10249999999999998         -2.2386657860804933E-007
  0.10360000000000003         -2.3403654836327337E-007
  0.10470000000000002         -2.4451580316051903E-007
  0.10580000000000001         -2.5530513880765038E-007
  0.10690000000000000         -2.6640051942192832E-007
  0.10799999999999998         -2.7779577749240640E-007
  0.10910000000000003         -2.8948690555805498E-007
  0.11020000000000002         -3.0147322149784769E-007
  0.11130000000000001         -3.1375438425127135E-007
  0.11240000000000000         -3.2632542001917571E-007
  0.11349999999999999         -3.3917550013026777E-007
  0.11460000000000004         -3.5229166428504722E-007
  0.11570000000000003         -3.6566453331940208E-007
  0.11680000000000001         -3.7929078189332894E-007
  0.11790000000000000         -3.9316873312597146E-007
  0.11899999999999999         -4.0729116790313431E-007
  0.12009999999999998         -4.2164160163334781E-007
  0.12120000000000003         -4.3619752432274313E-007
  0.12230000000000002         -4.5093838707540204E-007
  0.12340000000000001         -4.6585023483199426E-007
  0.12450000000000000         -4.8092294946396256E-007
  0.12559999999999999         -4.9614232011659175E-007
  0.12670000000000003         -5.1148464308421687E-007
  0.12780000000000002         -5.2692024610219246E-007
  0.12890000000000001         -5.4242144642553354E-007
  0.13000000000000000         -5.5796846254447632E-007
  0.13109999999999999         -5.7354600357934746E-007
  0.13219999999999998         -5.8913394695987002E-007
  0.13330000000000003         -6.0470051721490102E-007
  0.13440000000000002         -6.2020586710781883E-007
  0.13550000000000001         -6.3561230945191894E-007
  0.13660000000000000         -6.5089153622460856E-007
  0.13769999999999999         -6.6602194692672048E-007
  0.13880000000000003         -6.8097705252506577E-007
  0.13990000000000002         -6.9571717631327949E-007
  0.14100000000000001         -7.1019206870908878E-007
  0.14210000000000000         -7.2435273068543542E-007
  0.14319999999999999         -7.3816187295954693E-007
  0.14429999999999998         -7.5159118750883052E-007
  0.14540000000000003         -7.6460923992265616E-007
  0.14650000000000002         -7.7717152180405595E-007
  0.14760000000000001         -7.8922278134989719E-007
  0.14870000000000000         -8.0070913099909960E-007
  0.14979999999999999         -8.1158850662170642E-007
  0.15090000000000003         -8.2182776850452178E-007
  0.15200000000000002         -8.3138900208716542E-007
  0.15310000000000001         -8.4021939983351576E-007
  0.15420000000000000         -8.4825478552367884E-007
  0.15529999999999999         -8.5543484829024356E-007
  0.15639999999999998         -8.6171462498889079E-007
  0.15750000000000003         -8.6706103274984356E-007
  0.15860000000000002         -8.7143735072451799E-007
  0.15970000000000001         -8.7479116928072421E-007
  0.16080000000000000         -8.7705842588540618E-007
  0.16189999999999999         -8.7817903704482805E-007
  0.16300000000000003         -8.7811002913433103E-007
  0.16410000000000002         -8.7682082039456801E-007
  0.16520000000000001         -8.7427656580977731E-007
  0.16630000000000000         -8.7042474206093166E-007
  0.16739999999999999         -8.6519992237292206E-007
  0.16850000000000004         -8.5854230746910703E-007
  0.16960000000000003         -8.5041216379970298E-007
  0.17070000000000002         -8.4078567397220713E-007
  0.17180000000000001         -8.2963646264026806E-007
  0.17290000000000000         -8.1692110143187622E-007
  0.17399999999999999         -8.0258399748338563E-007
  0.17510000000000003         -7.8657677704534575E-007
  0.17620000000000002         -7.6887255318063552E-007
  0.17730000000000001         -7.4946103723044102E-007
  0.17840000000000000         -7.2832739306243959E-007
  0.17949999999999999         -7.0543745778189599E-007
  0.18060000000000004         -6.8074319869987283E-007
  0.18170000000000003         -6.5420471173632972E-007
  0.18280000000000002         -6.2580699022868741E-007
  0.18390000000000001         -5.9555543430173778E-007
  0.18500000000000000         -5.6345430721189539E-007
  0.18609999999999999         -5.2948973916495810E-007
  0.18720000000000003         -4.9363484322380484E-007
  0.18830000000000002         -4.5587086106021151E-007
  0.18940000000000001         -4.1620364754632077E-007
  0.19050000000000000         -3.7465832747326909E-007
  0.19159999999999999         -3.3125715503954052E-007
  0.19270000000000004         -2.8600339874171947E-007
  0.19380000000000003         -2.3888699729466768E-007
  0.19490000000000002         -1.8990721173393987E-007
  0.19600000000000001         -1.3908957896545931E-007
  0.19710000000000000         -8.6480419270170187E-008
  0.19819999999999999         -3.2124610527263094E-008
  0.19930000000000003          2.3951375993641219E-008
  0.20040000000000002          8.1734263801525080E-008
  0.20150000000000001          1.4120138303040407E-007
  0.20260000000000000          2.0230413610986586E-007
  0.20369999999999999          2.6497355065655026E-007
  0.20480000000000004          3.2914283565329577E-007
  0.20590000000000003          3.9476404367629336E-007
  0.20700000000000002          4.6180281287884168E-007
  0.20810000000000001          5.3021653911850445E-007
  0.20920000000000000          5.9993868717350529E-007
  0.21029999999999999          6.7088399191555279E-007
  0.21140000000000003          7.4296934826627254E-007
  0.21250000000000002          8.1612915892029929E-007
  0.21360000000000001          8.9030930894287733E-007
  0.21470000000000000          9.6544704319958465E-007
  0.21579999999999999          1.0414573807792238E-006
  0.21690000000000004          1.1182389698659666E-006
  0.21800000000000003          1.1956950629609116E-006
  0.21910000000000002          1.2737468750855178E-006
  0.22020000000000001          1.3523271036318541E-006
  0.22130000000000000          1.4313609426606996E-006
  0.22239999999999999          1.5107542594704207E-006
  0.22350000000000003          1.5904007568677480E-006
  0.22460000000000002          1.6702000493749730E-006
  0.22570000000000001          1.7500682361058573E-006
  0.22680000000000000          1.8299311932422063E-006
  0.22789999999999999          1.9097062704529968E-006
  0.22900000000000004          1.9892938780683841E-006
  0.23010000000000003          2.0685849904109935E-006
  0.23120000000000002          2.1474791083162789E-006
  0.23230000000000001          2.2258932403927042E-006
  0.23340000000000000          2.3037534901957492E-006
  0.23450000000000004          2.3809793674443081E-006
  0.23560000000000003          2.4574774215577728E-006
  0.23670000000000002          2.5331482902399754E-006
  0.23780000000000001          2.6079032977574927E-006
  0.23890000000000000          2.6816699119078583E-006
  0.23999999999999999          2.7543842406882730E-006
  0.24110000000000004          2.8259751161383227E-006
  0.24220000000000003          2.8963606837348478E-006
  0.24330000000000002          2.9654547688548554E-006
  0.24440000000000001          3.0331825655591245E-006
  0.24550000000000000          3.0994840471973387E-006
  0.24660000000000004          3.1643071451978211E-006
  0.24770000000000003          3.2275961530100883E-006
  0.24880000000000002          3.2892867238839892E-006
  0.24990000000000001          3.3493147384430501E-006
  0.25100000000000000          3.4076283554892685E-006
  0.25209999999999999          3.4641909678608990E-006
  0.25320000000000004          3.5189723348591073E-006
  0.25430000000000003          3.5719374409378755E-006
  0.25540000000000002          3.6230449040882724E-006
  0.25650000000000001          3.6722540244223938E-006
  0.25760000000000000          3.7195331969993535E-006
  0.25870000000000004          3.7648626403093874E-006
  0.25980000000000003          3.8082293940529958E-006
  0.26090000000000002          3.8496204979306780E-006
  0.26200000000000001          3.8890211726535305E-006
  0.26310000000000000          3.9264200495377799E-006
  0.26419999999999999          3.9618125811099200E-006
  0.26530000000000004          3.9952024053487553E-006
  0.26640000000000003          4.0265972529592524E-006
  0.26750000000000002          4.0560039451516731E-006
  0.26860000000000001          4.0834302126309841E-006
  0.26970000000000000          4.1088874240809567E-006
  0.27080000000000004          4.1323937693956273E-006
  0.27190000000000003          4.1539733501845918E-006
  0.27300000000000002          4.1736493585627448E-006
  0.27410000000000001          4.1914468056343867E-006
  0.27520000000000000          4.2073916119985179E-006
  0.27629999999999999          4.2215160647170498E-006
  0.27740000000000004          4.2338583625674585E-006
  0.27850000000000003          4.2444589780639711E-006
  0.27960000000000002          4.2533547457420113E-006
  0.28070000000000001          4.2605815906422990E-006
  0.28179999999999999          4.2661831685105176E-006
  0.28290000000000004          4.2702117752920199E-006
  0.28400000000000003          4.2727251639003694E-006
  0.28510000000000002          4.2737747207862154E-006
  0.28620000000000001          4.2734054659372956E-006
  0.28730000000000000          4.2716574171204880E-006
  0.28840000000000005          4.2685774133129340E-006
  0.28950000000000004          4.2642241169228987E-006
  0.29060000000000002          4.2586639210636099E-006
  0.29170000000000001          4.2519591261221407E-006
  0.29280000000000000          4.2441620280438423E-006
  0.29389999999999999          4.2353199205532067E-006
  0.29500000000000004          4.2254846448482351E-006
  0.29610000000000003          4.2147198655580516E-006
  0.29720000000000002          4.2030933400379382E-006
  0.29830000000000001          4.1906673686749664E-006
  0.29940000000000000          4.1774937926671381E-006
  0.30050000000000004          4.1636162677601368E-006
  0.30160000000000003          4.1490843614152106E-006
  0.30270000000000002          4.1339576455353241E-006
  0.30380000000000001          4.1183020584863575E-006
  0.30490000000000000          4.1021808101500823E-006
  0.30599999999999999          4.0856430132403960E-006
  0.30709999999999998          4.0687309592609301E-006
  0.30819999999999997          4.0514878492100188E-006
  0.30930000000000007          4.0339673432750668E-006
  0.31040000000000006          4.0162312870957946E-006
  0.31150000000000005          3.9983369788384140E-006
  0.31260000000000004          3.9803298932380126E-006
  0.31370000000000003          3.9622459553353123E-006
  0.31480000000000002          3.9441197259289795E-006
  0.31590000000000001          3.9259944060173485E-006
  0.31700000000000000          3.9079191083143150E-006
  0.31809999999999999          3.8899406717970204E-006
  0.31919999999999998          3.8720950215061846E-006
  0.32029999999999997          3.8544108065249134E-006
  0.32140000000000007          3.8369175854310146E-006
  0.32250000000000006          3.8196544664966644E-006
  0.32360000000000005          3.8026639685991701E-006
  0.32470000000000004          3.7859854273843844E-006
  0.32580000000000003          3.7696468098143863E-006
  0.32690000000000002          3.7536660784095355E-006
  0.32800000000000001          3.7380607409428414E-006
  0.32910000000000000          3.7228542169028752E-006
  0.33019999999999999          3.7080772017358208E-006
  0.33129999999999998          3.6937592540194863E-006
  0.33239999999999997          3.6799215195056879E-006
  0.33350000000000007          3.6665767311202505E-006
  0.33460000000000006          3.6537348933048934E-006
  0.33570000000000005          3.6414114674695470E-006
  0.33680000000000004          3.6296271446186760E-006
  0.33790000000000003          3.6184032978777730E-006
  0.33900000000000002          3.6077535696673637E-006
  0.34010000000000001          3.5976831895819843E-006
  0.34120000000000000          3.5881948861057390E-006
  0.34229999999999999          3.5792947983278654E-006
  0.34339999999999998          3.5709958865478638E-006
  0.34449999999999997          3.5633113384389093E-006
  0.34560000000000007          3.5562482025849416E-006
  0.34670000000000006          3.5498035231281790E-006
  0.34780000000000005          3.5439693419899820E-006
  0.34890000000000004          3.5387427033125688E-006
