 -0.20000000000000001          3.3660145959402143E-007
 -0.19890000000000002          7.5955773581881658E-007
 -0.19780000000000000          6.4530996723988210E-007
 -0.19670000000000001          1.9711985999038006E-007
 -0.19560000000000002         -8.5853919529199629E-008
 -0.19450000000000001          6.6625041483803216E-008
 -0.19340000000000002          4.3002992811125296E-007
 -0.19230000000000000          5.5042016811057692E-007
 -0.19120000000000001          2.5164541739286506E-007
 -0.19010000000000002         -1.5813060372238397E-007
 -0.18900000000000000         -2.0287666302465368E-007
 -0.18790000000000001          2.5438731654503499E-007
 -0.18680000000000002          8.5086082890484249E-007
 -0.18570000000000000          1.0842559277079999E-006
 -0.18460000000000001          8.2166201309519238E-007
 -0.18350000000000000          4.2732537508527457E-007
 -0.18240000000000001          3.7783669881719106E-007
 -0.18130000000000002          7.6859674891238683E-007
 -0.18020000000000000          1.2266059457033407E-006
 -0.17910000000000001          1.3163938774596318E-006
 -0.17800000000000002          1.0089419220093987E-006
 -0.17690000000000000          7.1976251092564780E-007
 -0.17580000000000001          8.7661368297631270E-007
 -0.17470000000000002          1.4712107940795249E-006
 -0.17360000000000000          2.0650056740123546E-006
 -0.17250000000000001          2.2424244434660068E-006
 -0.17140000000000000          2.0373772713355720E-006
 -0.17030000000000001          1.8895484572567511E-006
 -0.16920000000000002          2.1807375105709070E-006
 -0.16810000000000000          2.8389160888764309E-006
 -0.16700000000000001          3.4221773148601642E-006
 -0.16589999999999999          3.5896703138860175E-006
 -0.16480000000000000          3.4634888379514450E-006
 -0.16370000000000001          3.5044492960878415E-006
 -0.16260000000000002          4.0359818740398623E-006
 -0.16150000000000000          4.9157551984535530E-006
 -0.16040000000000001          5.6943999879877083E-006
 -0.15930000000000000          6.0884817685291637E-006
 -0.15820000000000001          6.2702638388145715E-006
 -0.15710000000000002          6.6762795540853404E-006
 -0.15600000000000000          7.5443053901835810E-006
 -0.15490000000000001          8.6688096416764893E-006
 -0.15379999999999999          9.6281546575482935E-006
 -0.15270000000000000          1.0238079084956553E-005
 -0.15160000000000001          1.0751773515949026E-005
 -0.15050000000000002          1.1599039680731948E-005
 -0.14940000000000001          1.2943384717800654E-005
 -0.14830000000000002          1.4523425306833815E-005
 -0.14720000000000000          1.5940728189889342E-005
 -0.14610000000000001          1.7085849322029389E-005
 -0.14500000000000002          1.8253702364745550E-005
 -0.14390000000000000          1.9832057660096325E-005
 -0.14280000000000001          2.1896948965149932E-005
 -0.14169999999999999          2.4142391339410096E-005
 -0.14060000000000000          2.6214784156763926E-005
 -0.13950000000000001          2.8095581001252867E-005
 -0.13840000000000002          3.0129021979519166E-005
 -0.13730000000000001          3.2669235224602744E-005
 -0.13619999999999999          3.5721841413760558E-005
 -0.13510000000000000          3.8956757634878159E-005
 -0.13400000000000001          4.2074574594153091E-005
 -0.13290000000000002          4.5137239794712514E-005
 -0.13180000000000000          4.8514939408050850E-005
 -0.13070000000000001          5.2508319640764967E-005
 -0.12959999999999999          5.7045701396418735E-005
 -0.12850000000000000          6.1773011111654341E-005
 -0.12740000000000001          6.6439650254324079E-005
 -0.12630000000000002          7.1174137701746076E-005
 -0.12520000000000001          7.6362841355148703E-005
 -0.12410000000000000          8.2263723015785217E-005
 -0.12300000000000001          8.8761793449521065E-005
 -0.12190000000000001          9.5519033493474126E-005
 -0.12080000000000000          1.0235602530883625E-004
 -0.11970000000000000          1.0946175461867824E-004
 -0.11860000000000001          1.1721455666702241E-004
 -0.11750000000000001          1.2580677866935730E-004
 -0.11640000000000000          1.3506790855899453E-004
 -0.11530000000000000          1.4466892753262073E-004
 -0.11420000000000001          1.5448877820745111E-004
 -0.11310000000000001          1.6476027667522430E-004
 -0.11200000000000000          1.7584745364729315E-004
 -0.11090000000000001          1.8789243767969310E-004
 -0.10980000000000001          2.0070288155693561E-004
 -0.10870000000000000          2.1399087563622743E-004
 -0.10760000000000000          2.2770633222535253E-004
 -0.10650000000000001          2.4211470736190677E-004
 -0.10540000000000001          2.5754398666322231E-004
 -0.10430000000000000          2.7407161542214453E-004
 -0.10320000000000000          2.9147879104129970E-004
 -0.10210000000000001          3.0951516237109900E-004
 -0.10100000000000001          3.2819010084494948E-004
  -9.9900000000000003E-002     3.4778649569489062E-004
  -9.8799999999999999E-002     3.6858965177088976E-004
  -9.7700000000000009E-002     3.9062014548107982E-004
  -9.6600000000000005E-002     4.1364948265254498E-004
  -9.5500000000000002E-002     4.3747675954364240E-004
  -9.4400000000000012E-002     4.6216856571845710E-004
  -9.3300000000000008E-002     4.8801442608237267E-004
  -9.2200000000000004E-002     5.1525142043828964E-004
  -9.1100000000000000E-002     5.4384768009185791E-004
  -9.0000000000000011E-002     5.7357142213732004E-004
  -8.8900000000000007E-002     6.0426647542044520E-004
  -8.7800000000000003E-002     6.3603935996070504E-004
  -8.6699999999999999E-002     6.6916662035509944E-004
  -8.5600000000000009E-002     7.0382544072344899E-004
  -8.4500000000000006E-002     7.3993077967315912E-004
  -8.3400000000000002E-002     7.7725003939121962E-004
  -8.2299999999999998E-002     8.1567070446908474E-004
  -8.1200000000000008E-002     8.5532991215586662E-004
  -8.0100000000000005E-002     8.9648534776642919E-004
  -7.9000000000000001E-002     9.3926145927980542E-004
  -7.7899999999999997E-002     9.8353519570082426E-004
  -7.6800000000000007E-002     1.0290838545188308E-003
  -7.5700000000000003E-002     1.0758256539702415E-003
  -7.4600000000000000E-002     1.1239063460379839E-003
  -7.3500000000000010E-002     1.1735456064343452E-003
  -7.2399999999999992E-002     1.2248045532032847E-003
  -7.1300000000000002E-002     1.2775220675393939E-003
  -7.0200000000000012E-002     1.3314828975126147E-003
  -6.9099999999999995E-002     1.3866312801837921E-003
  -6.8000000000000005E-002     1.4431052841246128E-003
  -6.6900000000000015E-002     1.5010742936283350E-003
  -6.5799999999999997E-002     1.5605471562594175E-003
  -6.4700000000000008E-002     1.6213424969464540E-003
  -6.3599999999999990E-002     1.6832610126584768E-003
  -6.2500000000000000E-002     1.7462660325691104E-003
  -6.1400000000000010E-002     1.8104808405041695E-003
  -6.0299999999999992E-002     1.8760167295113206E-003
  -5.9200000000000003E-002     1.9428186351433396E-003
  -5.8100000000000013E-002     2.0106884185224771E-003
  -5.6999999999999995E-002     2.0794384181499481E-003
  -5.5900000000000005E-002     2.1490296348929405E-003
  -5.4800000000000015E-002     2.2195430938154459E-003
  -5.3699999999999998E-002     2.2910288535058498E-003
  -5.2600000000000008E-002     2.3633977398276329E-003
  -5.1499999999999990E-002     2.4364534765481949E-003
  -5.0400000000000000E-002     2.5100286584347486E-003
  -4.9300000000000010E-002     2.5840825401246548E-003
  -4.8199999999999993E-002     2.6586537715047598E-003
  -4.7100000000000003E-002     2.7337383944541216E-003
  -4.6000000000000013E-002     2.8092223219573498E-003
  -4.4899999999999995E-002     2.8849001973867416E-003
  -4.3800000000000006E-002     2.9605948366224766E-003
  -4.2699999999999988E-002     3.0362559482455254E-003
  -4.1599999999999998E-002     3.1118935439735651E-003
  -4.0500000000000008E-002     3.1874568667262793E-003
  -3.9399999999999991E-002     3.2628064509481192E-003
  -3.8300000000000001E-002     3.3377511426806450E-003
  -3.7200000000000011E-002     3.4121326170861721E-003
  -3.6099999999999993E-002     3.4858814906328917E-003
  -3.5000000000000003E-002     3.5589865874499083E-003
  -3.3900000000000013E-002     3.6313778255134821E-003
  -3.2799999999999996E-002     3.7028940860182047E-003
  -3.1700000000000006E-002     3.7733560893684626E-003
  -3.0599999999999988E-002     3.8426234386861324E-003
  -2.9499999999999998E-002     3.9106300100684166E-003
  -2.8400000000000009E-002     3.9773257449269295E-003
  -2.7299999999999991E-002     4.0426095947623253E-003
  -2.6200000000000001E-002     4.1063157841563225E-003
  -2.5100000000000011E-002     4.1682887822389603E-003
  -2.3999999999999994E-002     4.2284475639462471E-003
  -2.2900000000000004E-002     4.2867329902946949E-003
  -2.1800000000000014E-002     4.3430733494460583E-003
  -2.0699999999999996E-002     4.3973471038043499E-003
  -1.9600000000000006E-002     4.4494206085801125E-003
  -1.8499999999999989E-002     4.4991993345320225E-003
  -1.7399999999999999E-002     4.5466194860637188E-003
  -1.6300000000000009E-002     4.5916186645627022E-003
  -1.5199999999999991E-002     4.6340967528522015E-003
  -1.4100000000000001E-002     4.6739410609006882E-003
  -1.3000000000000012E-002     4.7110621817409992E-003
  -1.1899999999999994E-002     4.7454107552766800E-003
  -1.0800000000000004E-002     4.7769518569111824E-003
  -9.6999999999999864E-003     4.8056393861770630E-003
  -8.5999999999999965E-003     4.8314039595425129E-003
  -7.5000000000000067E-003     4.8541799187660217E-003
  -6.3999999999999890E-003     4.8739206977188587E-003
  -5.2999999999999992E-003     4.8905857838690281E-003
  -4.2000000000000093E-003     4.9041667953133583E-003
  -3.0999999999999917E-003     4.9146637320518494E-003
  -2.0000000000000018E-003     4.9220421351492405E-003
  -9.0000000000001190E-004     4.9262265674769878E-003
   2.0000000000000573E-004     4.9271923489868641E-003
   1.2999999999999956E-003     4.9250065349042416E-003
   2.4000000000000132E-003     4.9196919426321983E-003
   3.5000000000000031E-003     4.9112304113805294E-003
   4.5999999999999930E-003     4.8996256664395332E-003
   5.7000000000000106E-003     4.8848735168576241E-003
   6.8000000000000005E-003     4.8670270480215549E-003
   7.8999999999999904E-003     4.8461696133017540E-003
   9.0000000000000080E-003     4.8223361372947693E-003
   1.0099999999999998E-002     4.7955410555005074E-003
   1.1199999999999988E-002     4.7657941468060017E-003
   1.2300000000000005E-002     4.7331606037914753E-003
   1.3399999999999995E-002     4.6977507881820202E-003
   1.4500000000000013E-002     4.6596624888479710E-003
   1.5600000000000003E-002     4.6189241111278534E-003
   1.6699999999999993E-002     4.5755230821669102E-003
   1.7800000000000010E-002     4.5295692980289459E-003
   1.8900000000000000E-002     4.4812425039708614E-003
   1.9999999999999990E-002     4.4306465424597263E-003
   2.1100000000000008E-002     4.3778303079307079E-003
   2.2199999999999998E-002     4.3228366412222385E-003
   2.3300000000000015E-002     4.2657405138015747E-003
   2.4400000000000005E-002     4.2066620662808418E-003
   2.5499999999999995E-002     4.1457503102719784E-003
   2.6600000000000013E-002     4.0831603109836578E-003
   2.7700000000000002E-002     4.0190061554312706E-003
   2.8799999999999992E-002     3.9532873779535294E-003
   2.9900000000000010E-002     3.8860570639371872E-003
   3.1000000000000000E-002     3.8174497894942760E-003
   3.2099999999999990E-002     3.7476527504622936E-003
   3.3200000000000007E-002     3.6768778227269650E-003
   3.4299999999999997E-002     3.6051699426025152E-003
   3.5400000000000015E-002     3.5325535573065281E-003
   3.6500000000000005E-002     3.4591264557093382E-003
   3.7599999999999995E-002     3.3850150648504496E-003
   3.8700000000000012E-002     3.3103781752288342E-003
   3.9800000000000002E-002     3.2353377901017666E-003
   4.0899999999999992E-002     3.1599998474121094E-003
   4.2000000000000010E-002     3.0844663269817829E-003
   4.3099999999999999E-002     3.0087577179074287E-003
   4.4200000000000017E-002     2.9329555109143257E-003
   4.5300000000000007E-002     2.8571980074048042E-003
   4.6399999999999997E-002     2.7816442307084799E-003
   4.7500000000000014E-002     2.7064408641308546E-003
   4.8600000000000004E-002     2.6315960567444563E-003
   4.9699999999999994E-002     2.5571342557668686E-003
   5.0800000000000012E-002     2.4831246118992567E-003
   5.1900000000000002E-002     2.4096772540360689E-003
   5.2999999999999992E-002     2.3369672708213329E-003
   5.4099999999999981E-002     2.2650680039077997E-003
   5.5200000000000027E-002     2.1939305588603020E-003
   5.6300000000000017E-002     2.1235754247754812E-003
   5.7400000000000007E-002     2.0541492849588394E-003
   5.8499999999999996E-002     1.9857620354741812E-003
   5.9599999999999986E-002     1.9184380071237683E-003
   6.0700000000000032E-002     1.8522425089031458E-003
   6.1800000000000022E-002     1.7871672753244638E-003
   6.2900000000000011E-002     1.7232042737305164E-003
   6.4000000000000001E-002     1.6604757402092218E-003
   6.5099999999999991E-002     1.5990427928045392E-003
   6.6199999999999981E-002     1.5389258041977882E-003
   6.7300000000000026E-002     1.4801165089011192E-003
   6.8400000000000016E-002     1.4225865015760064E-003
   6.9500000000000006E-002     1.3663520803675056E-003
   7.0599999999999996E-002     1.3114660978317261E-003
   7.1699999999999986E-002     1.2580346083268523E-003
   7.2800000000000031E-002     1.2061350280418992E-003
   7.3900000000000021E-002     1.1556653771549463E-003
   7.5000000000000011E-002     1.1064750142395496E-003
   7.6100000000000001E-002     1.0585720883682370E-003
   7.7199999999999991E-002     1.0120950173586607E-003
   7.8299999999999981E-002     9.6717831911519170E-004
   7.9400000000000026E-002     9.2376908287405968E-004
   8.0500000000000016E-002     8.8174908887594938E-004
   8.1600000000000006E-002     8.4098387742415071E-004
   8.2699999999999996E-002     8.0142053775489330E-004
   8.3799999999999986E-002     7.6323020039126277E-004
   8.4900000000000031E-002     7.2655949043110013E-004
   8.6000000000000021E-002     6.9130654446780682E-004
   8.7100000000000011E-002     6.5730436472222209E-004
   8.8200000000000001E-002     6.2446732772514224E-004
   8.9299999999999990E-002     5.9277913533151150E-004
   9.0399999999999980E-002     5.6235393276438117E-004
   9.1500000000000026E-002     5.3328135982155800E-004
   9.2600000000000016E-002     5.0548807485029101E-004
   9.3700000000000006E-002     4.7881921636871994E-004
   9.4799999999999995E-002     4.5312810107134283E-004
   9.5899999999999985E-002     4.2846772703342140E-004
   9.7000000000000031E-002     4.0494810673408210E-004
   9.8100000000000021E-002     3.8253664388321340E-004
   9.9200000000000010E-002     3.6120889126323164E-004
  0.10030000000000000          3.4080186742357910E-004
  0.10139999999999999          3.2120963442139328E-004
  0.10249999999999998          3.0251371208578348E-004
  0.10360000000000003          2.8479151660576463E-004
  0.10470000000000002          2.6807154063135386E-004
  0.10580000000000001          2.5223562261089683E-004
  0.10690000000000000          2.3705969215370715E-004
  0.10799999999999998          2.2250301844906062E-004
  0.10910000000000003          2.0872041932307184E-004
  0.11020000000000002          1.9578523642849177E-004
  0.11130000000000001          1.8362820264883339E-004
  0.11240000000000000          1.7209042562171817E-004
  0.11349999999999999          1.6106190741993487E-004
  0.11460000000000004          1.5056709526106715E-004
  0.11570000000000003          1.4068746531847864E-004
  0.11680000000000001          1.3147598656360060E-004
  0.11790000000000000          1.2286340643186122E-004
  0.11899999999999999          1.1471933248685673E-004
  0.12009999999999998          1.0694599768612534E-004
  0.12120000000000003          9.9588214652612805E-005
  0.12230000000000002          9.2727474111597985E-005
  0.12340000000000001          8.6359701526816934E-005
  0.12450000000000000          8.0415629781782627E-005
  0.12559999999999999          7.4773037340492010E-005
  0.12670000000000003          6.9387111579999328E-005
  0.12780000000000002          6.4323037804570049E-005
  0.12890000000000001          5.9625632275128737E-005
  0.13000000000000000          5.5303040426224470E-005
  0.13109999999999999          5.1334893214516342E-005
  0.13219999999999998          4.7603043640265241E-005
  0.13330000000000003          4.4013784645358101E-005
  0.13440000000000002          4.0603783418191597E-005
  0.13550000000000001          3.7487116060219705E-005
  0.13660000000000000          3.4704524296103045E-005
  0.13769999999999999          3.2125637517310679E-005
  0.13880000000000003          2.9620083296322264E-005
  0.13990000000000002          2.7187861633137800E-005
  0.14100000000000001          2.4947121346485801E-005
  0.14210000000000000          2.3011934899841435E-005
  0.14319999999999999          2.1296749764587730E-005
  0.14429999999999998          1.9658973542391323E-005
  0.14540000000000003          1.8004900994128548E-005
  0.14650000000000002          1.6407864677603357E-005
  0.14760000000000001          1.5014531527413055E-005
  0.14870000000000000          1.3861568731954321E-005
  0.14979999999999999          1.2826753845729399E-005
  0.15090000000000003          1.1767494470404927E-005
  0.15200000000000002          1.0679716979211662E-005
  0.15310000000000001          9.6326803031843156E-006
  0.15420000000000000          8.7567541413591243E-006
  0.15529999999999999          8.0967538451659493E-006
  0.15639999999999998          7.5182351793046109E-006
  0.15750000000000003          6.8989756982773542E-006
  0.15860000000000002          6.2349013205675874E-006
  0.15970000000000001          5.5667528613412287E-006
  0.16080000000000000          5.0126786845794413E-006
  0.16189999999999999          4.6378640945476945E-006
  0.16300000000000003          4.3200866457482334E-006
  0.16410000000000002          3.9493461372330785E-006
  0.16520000000000001          3.5052721614192706E-006
  0.16630000000000000          3.0815685931884218E-006
  0.16739999999999999          2.8045317321812036E-006
  0.16850000000000004          2.6334207632316975E-006
  0.16960000000000003          2.4297171421494568E-006
  0.17070000000000002          2.1445318907353794E-006
  0.17180000000000001          1.8511984762881184E-006
  0.17290000000000000          1.6597169860688155E-006
  0.17399999999999999          1.6149022030731430E-006
  0.17510000000000003          1.5823096646272461E-006
  0.17620000000000002          1.4152726635074941E-006
  0.17730000000000001          1.1097171181972953E-006
  0.17840000000000000          8.4490233120959601E-007
  0.17949999999999999          8.1638381743687205E-007
  0.18060000000000004          9.5082822326730820E-007
  0.18170000000000003          9.8342081855662400E-007
  0.18280000000000002          8.0008754821392358E-007
  0.18390000000000001          5.3119873655305128E-007
  0.18500000000000000          3.6823578852818173E-007
  0.18609999999999999          4.0490243691237993E-007
  0.18720000000000003          5.6786535651554004E-007
  0.18830000000000002          6.2897646557757980E-007
  0.18940000000000001          4.7416165216418449E-007
  0.19050000000000000          2.3379129743261728E-007
  0.19159999999999999          1.3193945846978750E-007
  0.19270000000000004          2.5416167659386701E-007
  0.19380000000000003          4.1305054310214473E-007
  0.19490000000000002          3.8453202932942077E-007
  0.19600000000000001          2.0934687938733987E-007
  0.19710000000000000          7.8976526651786116E-008
  0.19819999999999999          1.0342096601334561E-007
  0.19930000000000003          2.2564317703199777E-007
  0.20040000000000002          2.7045797423852491E-007
  0.20150000000000001          1.8490241870949831E-007
  0.20260000000000000          5.0457991562780080E-008
  0.20369999999999999         -6.5790377590246862E-009
  0.20480000000000004          7.0828363618602452E-008
  0.20590000000000003          2.2971724433773488E-007
  0.20700000000000002          3.0305056952784071E-007
  0.20810000000000001          1.7268021679228696E-007
  0.20920000000000000         -2.6949390274921825E-008
  0.21029999999999999         -6.7690123728425533E-008
  0.21140000000000003          9.9346891602181131E-008
  0.21250000000000002          3.0305056952784071E-007
  0.21360000000000001          2.9897648801124888E-007
  0.21470000000000000          8.3050593957523233E-008
  0.21579999999999999         -1.0843086073464292E-007
  0.21690000000000004         -8.8060488678820548E-008
  0.21800000000000003          1.5230983763103723E-007
  0.21910000000000002          3.7638386629623710E-007
  0.22020000000000001          3.6823570326305344E-007
  0.22130000000000000          1.4008757887040701E-007
  0.22239999999999999         -8.8060545522239408E-008
  0.22350000000000003         -2.6949445341983846E-008
  0.22460000000000002          2.7860605200658028E-007
  0.22570000000000001          5.0268010909348959E-007
  0.22680000000000000          4.5379121615951590E-007
  0.22789999999999999          1.6860606422142155E-007
  0.22900000000000004         -7.1764283404718299E-008
  0.23010000000000003          3.0087544899970453E-008
  0.23120000000000002          3.5193934877497668E-007
  0.23230000000000001          5.5156897360575385E-007
  0.23340000000000000          4.7416159532076563E-007
  0.23450000000000004          2.3379125480005314E-007
  0.23560000000000003          1.2786534853148623E-007
  0.23670000000000002          3.0712456577930425E-007
  0.23780000000000001          6.0453191963460995E-007
  0.23890000000000000          7.0230964865913847E-007
  0.23999999999999999          5.3527259069596766E-007
  0.24110000000000004          3.1934669664224202E-007
  0.24220000000000003          3.0712448051417596E-007
  0.24330000000000002          5.4749483524574316E-007
  0.24440000000000001          8.1638364690661547E-007
  0.24550000000000000          8.7342067445206339E-007
  0.24660000000000004          6.7379107804299565E-007
  0.24770000000000003          4.6193923708415241E-007
  0.24880000000000002          5.1082810159641667E-007
  0.24990000000000001          8.2045767157978844E-007
  0.25100000000000000          1.0974947599606821E-006
  0.25209999999999999          1.1137910860270495E-006
  0.25320000000000004          9.3045775884093018E-007
  0.25430000000000003          7.5934667620458640E-007
  0.25540000000000002          8.5305038055594196E-007
  0.25650000000000001          1.1789762766056811E-006
  0.25760000000000000          1.4600873328163289E-006
  0.25870000000000004          1.4763835451958585E-006
  0.25980000000000003          1.2645316473935964E-006
  0.26090000000000002          1.1015687277904362E-006
  0.26200000000000001          1.2319391089476994E-006
  0.26310000000000000          1.6067538126662839E-006
  0.26419999999999999          1.9000871134267072E-006
  0.26530000000000004          1.8960130319101154E-006
  0.26640000000000003          1.7004574601742206E-006
  0.26750000000000002          1.6271241065624054E-006
  0.26860000000000001          1.8267536461280542E-006
  0.26970000000000000          2.1526795990212122E-006
  0.27080000000000004          2.3523093659605365E-006
  0.27190000000000003          2.3197169412014773E-006
  0.27300000000000002          2.1974947230773978E-006
  0.27410000000000001          2.2382353108696407E-006
  0.27520000000000000          2.5193462533934508E-006
  0.27629999999999999          2.8330498480499955E-006
  0.27740000000000004          2.9837906367902178E-006
  0.27850000000000003          2.9837906367902178E-006
  0.27960000000000002          2.9593461476906668E-006
  0.28070000000000001          3.0611979582317872E-006
  0.28179999999999999          3.3300868835794972E-006
  0.28290000000000004          3.6111980534769827E-006
  0.28400000000000003          3.7456425161508378E-006
  0.28510000000000002          3.7497165976674296E-006
  0.28620000000000001          3.7700870052503888E-006
  0.28730000000000000          3.9452720557164866E-006
  0.28840000000000005          4.2508272599661723E-006
  0.28950000000000004          4.5360120566328987E-006
  0.29060000000000002          4.6704562919330783E-006
  0.29170000000000001          4.7071230255824048E-006
  0.29280000000000000          4.8130491450137924E-006
  0.29389999999999999          5.0249009291292168E-006
  0.29500000000000004          5.2978634812461678E-006
  0.29610000000000003          5.5545301620441023E-006
  0.29720000000000002          5.7297156672575511E-006
  0.29830000000000001          5.8193454606225714E-006
  0.29940000000000000          5.9334197430871427E-006
  0.30050000000000004          6.1737900978187099E-006
  0.30160000000000003          6.4711971390352119E-006
  0.30270000000000002          6.7319379013497382E-006
  0.30380000000000001          6.9274938141461462E-006
  0.30490000000000000          7.0782348302600440E-006
  0.30599999999999999          7.2615684985066764E-006
  0.30709999999999998          7.5304574238543864E-006
  0.30819999999999997          7.8278644650708884E-006
  0.30930000000000007          8.0600866567692719E-006
  0.31040000000000006          8.2108272181358188E-006
  0.31150000000000005          8.3737895693047903E-006
  0.31260000000000004          8.6386044131359085E-006
  0.31370000000000003          8.9726790974964388E-006
  0.31480000000000002          9.2741611297242343E-006
  0.31590000000000001          9.4982351583894342E-006
  0.31700000000000000          9.6815683718887158E-006
  0.31809999999999999          9.8730497484211810E-006
  0.31919999999999998          1.0125641892955173E-005
  0.32029999999999997          1.0443419341754634E-005
  0.32140000000000007          1.0761196790554095E-005
  0.32250000000000006          1.1042307960451581E-005
  0.32360000000000005          1.1266381989116780E-005
  0.32470000000000004          1.1441567039582878E-005
  0.32580000000000003          1.1653419278445654E-005
  0.32690000000000002          1.1967123100475874E-005
  0.32800000000000001          1.2341937690507621E-005
  0.32910000000000000          1.2659715139307082E-005
  0.33019999999999999          1.2851196515839547E-005
  0.33129999999999998          1.2997863450436853E-005
  0.33239999999999997          1.3197492990002502E-005
  0.33350000000000007          1.3498974112735596E-005
  0.33460000000000006          1.3898233191866893E-005
  0.33570000000000005          1.4264899618865456E-005
  0.33680000000000004          1.4468602785200346E-005
  0.33790000000000003          1.4590824321203399E-005
  0.33900000000000002          1.4802675650571473E-005
  0.34010000000000001          1.5100083146535326E-005
  0.34120000000000000          1.5413786968565546E-005
  0.34229999999999999          1.5698971765232272E-005
  0.34339999999999998          1.5918971257633530E-005
  0.34449999999999997          1.6110452634165995E-005
  0.34560000000000007          1.6330452126567252E-005
  0.34670000000000006          1.6599340597167611E-005
  0.34780000000000005          1.6860081814229488E-005
  0.34890000000000004          1.7084155842894688E-005
