 -0.20000000000000001          0.0000000000000000
 -0.19890000000000002          0.0000000000000000
 -0.19780000000000000          0.0000000000000000
 -0.19670000000000001          0.0000000000000000
 -0.19560000000000002          0.0000000000000000
 -0.19450000000000001          0.0000000000000000
 -0.19340000000000002          0.0000000000000000
 -0.19230000000000000          0.0000000000000000
 -0.19120000000000001          0.0000000000000000
 -0.19010000000000002          0.0000000000000000
 -0.18900000000000000          1.8422575218117362E-033
 -0.18790000000000001         -2.9937428413288600E-032
 -0.18680000000000002          1.1923558298695785E-030
 -0.18570000000000000          5.6956716786042239E-031
 -0.18460000000000001         -1.4229021702805330E-029
 -0.18350000000000000          8.8495614276118513E-029
 -0.18240000000000001          5.4262565811675108E-028
 -0.18130000000000002         -5.9599028798080480E-028
 -0.18020000000000000         -8.0603973810175930E-027
 -0.17910000000000001         -5.6585458806549719E-027
 -0.17800000000000002          7.3208257993797126E-026
 -0.17690000000000000          1.7986182713434620E-025
 -0.17580000000000001         -2.8863173135730441E-025
 -0.17470000000000002         -1.9277827814383737E-024
 -0.17360000000000000         -1.6444097447866923E-024
 -0.17250000000000001          9.5043957679117711E-024
 -0.17140000000000000          2.8721939620779424E-023
 -0.17030000000000001          1.7937486083236294E-024
 -0.16920000000000002         -1.5227282341462771E-022
 -0.16810000000000000         -3.0975674837317507E-022
 -0.16700000000000001          1.3063570669251061E-022
 -0.16589999999999999          1.6932758724001272E-021
 -0.16480000000000000          2.7445394301660216E-021
 -0.16370000000000001         -1.8115915786152285E-021
 -0.16260000000000002         -1.4699854130661131E-020
 -0.16150000000000000         -2.1433622920312756E-020
 -0.16040000000000001          1.4054966676773745E-020
 -0.15930000000000000          1.0512710783240027E-019
 -0.15820000000000001          1.5174495212905460E-019
 -0.15710000000000002         -6.9676880351808051E-020
 -0.15600000000000000         -6.3455563199447525E-019
 -0.15490000000000001         -9.7361422504418221E-019
 -0.15379999999999999          1.5537609407240339E-019
 -0.15270000000000000          3.2540495340351121E-018
 -0.15160000000000001          5.5931905748819663E-018
 -0.15050000000000002          9.4228641370496140E-019
 -0.14940000000000001         -1.4060622847329503E-017
 -0.14830000000000002         -2.8391856177694503E-017
 -0.14720000000000000         -1.3899943013341077E-017
 -0.14610000000000001          4.9696356075140761E-017
 -0.14500000000000002          1.2584163356565227E-016
 -0.14390000000000000          1.0077810070996493E-016
 -0.14280000000000001         -1.3175204418313557E-016
 -0.14169999999999999         -4.8061438226641132E-016
 -0.14060000000000000         -5.3930084825868870E-016
 -0.13950000000000001          1.7343608399962638E-016
 -0.13840000000000002          1.5486130791687370E-015
 -0.13730000000000001          2.3240942946322696E-015
 -0.13619999999999999          6.1196245790815559E-016
 -0.13510000000000000         -4.0246592611869157E-015
 -0.13400000000000001         -8.2905729875096430E-015
 -0.13290000000000002         -5.7702916744914109E-015
 -0.13180000000000000          7.3887412437327257E-015
 -0.13070000000000001          2.4500214547027929E-014
 -0.12959999999999999          2.6791201500125580E-014
 -0.12850000000000000         -3.3949036056722627E-015
 -0.12740000000000001         -5.8387627686288385E-014
 -0.12630000000000002         -9.1698106356383202E-014
 -0.12520000000000001         -4.2208627543637023E-014
 -0.12410000000000000          1.0220906694786980E-013
 -0.12300000000000001          2.4831482356435508E-013
 -0.12190000000000001          2.2390027115334887E-013
 -0.12080000000000000         -7.9592094633790245E-014
 -0.11970000000000000         -5.2995883506254393E-013
 -0.11860000000000001         -7.2648798869062725E-013
 -0.11750000000000001         -2.6244959439210291E-013
 -0.11640000000000000          8.1994984803615556E-013
 -0.11530000000000000          1.7678115915575887E-012
 -0.11420000000000001          1.4713715272215988E-012
 -0.11310000000000001         -5.6188582432670220E-013
 -0.11200000000000000         -3.2918832590378422E-012
 -0.11090000000000001         -4.3162101497074001E-012
 -0.10980000000000001         -1.5830650592491002E-012
 -0.10870000000000000          4.2852427335760002E-012
 -0.10760000000000000          9.1525693274308040E-012
 -0.10650000000000001          7.6783345306918882E-012
 -0.10540000000000001         -1.9555101895413207E-012
 -0.10430000000000000         -1.4481075193140125E-011
 -0.10320000000000000         -1.9292808670079431E-011
 -0.10210000000000001         -8.2703054474220217E-012
 -0.10100000000000001          1.5273740605614705E-011
  -9.9900000000000003E-002     3.4779245455807128E-011
  -9.8799999999999999E-002     3.0564932529397737E-011
  -9.7700000000000009E-002    -2.9238347853954849E-012
  -9.6600000000000005E-002    -4.6387421681615137E-011
  -9.5500000000000002E-002    -6.4170842251076721E-011
  -9.4400000000000012E-002    -3.1171946968111541E-011
  -9.3300000000000008E-002     4.0393667577465209E-011
  -9.2200000000000004E-002     9.9374529438644998E-011
  -9.1100000000000000E-002     8.9285551174711486E-011
  -9.0000000000000011E-002    -2.2299594896330044E-012
  -8.8900000000000007E-002    -1.1843294400737392E-010
  -8.7800000000000003E-002    -1.6354256837658454E-010
  -8.6699999999999999E-002    -7.7211820270761677E-011
  -8.5600000000000009E-002     1.0099292235832280E-010
  -8.4500000000000006E-002     2.3841251195477753E-010
  -8.3400000000000002E-002     2.0165343006528502E-010
  -8.2299999999999998E-002    -2.4563252473686070E-011
  -8.1200000000000008E-002    -2.9126295819636994E-010
  -8.0100000000000005E-002    -3.7273020780936861E-010
  -7.9000000000000001E-002    -1.4560733174739937E-010
  -7.7899999999999997E-002     2.7484689524293060E-010
  -7.6800000000000007E-002     5.7254445628984740E-010
  -7.5700000000000003E-002     4.5382012037187280E-010
  -7.4600000000000000E-002    -9.1784468914113404E-011
  -7.3500000000000010E-002    -7.1001948764859435E-010
  -7.2399999999999992E-002    -8.9364354804999380E-010
  -7.1300000000000002E-002    -3.7609249048387028E-010
  -7.0200000000000012E-002     5.8549376458216784E-010
  -6.9099999999999995E-002     1.3028759182631688E-009
  -6.8000000000000005E-002     1.1313091574649548E-009
  -6.6900000000000015E-002     1.2548169101012085E-011
  -6.5799999999999997E-002    -1.3514881436194059E-009
  -6.4700000000000008E-002    -1.9156600750136477E-009
  -6.3599999999999990E-002    -1.0750913492785230E-009
  -6.2500000000000000E-002     7.5736761306899325E-010
  -6.1400000000000010E-002     2.2947892475144727E-009
  -6.0299999999999992E-002     2.2609154548547394E-009
  -5.9200000000000003E-002     4.2915887510375228E-010
  -5.8100000000000013E-002    -2.0085066942954199E-009
  -5.6999999999999995E-002    -3.1687206192287931E-009
  -5.5900000000000005E-002    -1.9012098562143365E-009
  -5.4800000000000015E-002     1.1369256647242310E-009
  -5.3699999999999998E-002     3.7076033354566107E-009
  -5.2600000000000008E-002     3.5680363108525626E-009
  -5.1499999999999990E-002     3.3760438888918998E-010
  -5.0400000000000000E-002    -3.8397227619668683E-009
  -4.9300000000000010E-002    -5.6096056688659246E-009
  -4.8199999999999993E-002    -2.9746283214393543E-009
  -4.7100000000000003E-002     2.7804449853618962E-009
  -4.6000000000000013E-002     7.5180954794973331E-009
  -4.4899999999999995E-002     7.1135448642678512E-009
  -4.3800000000000006E-002     8.4465257010890582E-010
  -4.2699999999999988E-002    -7.3802199906936039E-009
  -4.1599999999999998E-002    -1.1346847017534856E-008
  -4.0500000000000008E-002    -7.1415588998036128E-009
  -3.9399999999999991E-002     3.3083893402618969E-009
  -3.8300000000000001E-002     1.2804060922633198E-008
  -3.7200000000000011E-002     1.3767505357975551E-008
  -3.6099999999999993E-002     4.2121008902995527E-009
  -3.5000000000000003E-002    -9.8342818333208015E-009
  -3.3900000000000013E-002    -1.7935940732627387E-008
  -3.2799999999999996E-002    -1.2901176127400049E-008
  -3.1700000000000006E-002     3.0417750540578936E-009
  -3.0599999999999988E-002     1.8687217107071774E-008
  -2.9499999999999998E-002     2.1502259528460854E-008
  -2.8400000000000009E-002     7.4049535392362031E-009
  -2.7299999999999991E-002    -1.4813097415355969E-008
  -2.6200000000000001E-002    -2.8671742313690629E-008
  -2.5100000000000011E-002    -2.1990523180193122E-008
  -2.3999999999999994E-002     2.9015367886131571E-009
  -2.2900000000000004E-002     2.9052278804897469E-008
  -2.1800000000000014E-002     3.6294583338758457E-008
  -2.0699999999999996E-002     1.6677903502682057E-008
  -1.9600000000000006E-002    -1.7731272450305369E-008
  -1.8499999999999989E-002    -4.1820435114914289E-008
  -1.7399999999999999E-002    -3.5580999480089304E-008
  -1.6300000000000009E-002    -5.6475391030375022E-010
  -1.5199999999999991E-002     3.8555121761874034E-008
  -1.4100000000000001E-002     5.0501636650324144E-008
  -1.3000000000000012E-002     2.1371853620166803E-008
  -1.1899999999999994E-002    -3.1777641851249427E-008
  -1.0800000000000004E-002    -6.9776028510659671E-008
  -9.6999999999999864E-003    -5.8722765317043013E-008
  -8.5999999999999965E-003     2.8459903322897162E-009
  -7.5000000000000067E-003     7.7910989659812913E-008
  -6.3999999999999890E-003     1.1325123239203094E-007
  -5.2999999999999992E-003     7.6537723714409367E-008
  -4.2000000000000093E-003    -1.7864488555119351E-008
  -3.0999999999999917E-003    -1.1450077153085658E-007
  -2.0000000000000018E-003    -1.5224624405618670E-007
  -9.0000000000001190E-004    -1.0570651198804626E-007
   2.0000000000000573E-004    -2.8812632280050821E-009
   1.2999999999999956E-003     9.4481187318251614E-008
   2.4000000000000132E-003     1.3411167287813441E-007
   3.5000000000000031E-003     1.0811799455723303E-007
   4.5999999999999930E-003     5.3174833425373436E-008
   5.7000000000000106E-003     1.5968254274412175E-008
   6.8000000000000005E-003     1.1561202661880543E-008
   7.8999999999999904E-003     9.5033803049204835E-009
   9.0000000000000080E-003    -3.8120745671221812E-008
   1.0099999999999998E-002    -1.4657973679277347E-007
   1.1199999999999988E-002    -2.6736941549643234E-007
   1.2300000000000005E-002    -3.0700223874191579E-007
   1.3399999999999995E-002    -1.9003827844699117E-007
   1.4500000000000013E-002     7.6048856101351703E-008
   1.5600000000000003E-002     3.8439108607235539E-007
   1.6699999999999993E-002     5.8056377838511253E-007
   1.7800000000000010E-002     5.5388886721630115E-007
   1.8900000000000000E-002     3.0767904490858200E-007
   1.9999999999999990E-002    -4.1277012030604965E-008
   2.1100000000000008E-002    -3.3555306799826212E-007
   2.2199999999999998E-002    -4.7235161559910921E-007
   2.3300000000000015E-002    -4.5501926138058479E-007
   2.4400000000000005E-002    -3.6729917951561220E-007
   2.5499999999999995E-002    -2.9519057420657191E-007
   2.6600000000000013E-002    -2.6102347305823059E-007
   2.7700000000000002E-002    -2.2347393269228633E-007
   2.8799999999999992E-002    -1.4201300757576973E-007
   2.9900000000000010E-002    -4.7239268496923614E-008
   3.1000000000000000E-002    -4.6891603489029876E-008
   3.2099999999999990E-002    -2.4551758315283223E-007
   3.3200000000000007E-002    -6.3045240494830068E-007
   3.4299999999999997E-002    -1.0188907708652550E-006
   3.5400000000000015E-002    -1.1304897498121136E-006
   3.6500000000000005E-002    -7.6089850153948646E-007
   3.7599999999999995E-002     5.3502052566045677E-008
   3.8700000000000012E-002     1.0027824828284793E-006
   3.9800000000000002E-002     1.6472554307256360E-006
   4.0899999999999992E-002     1.6607469888185733E-006
   4.2000000000000010E-002     1.0181043990087346E-006
   4.3099999999999999E-002    -2.9123486955384692E-010
   4.4200000000000017E-002    -9.9208841675135773E-007
   4.5300000000000007E-002    -1.6769932926763431E-006
   4.6399999999999997E-002    -2.0289344320190139E-006
   4.7500000000000014E-002    -2.2051128780731233E-006
   4.8600000000000004E-002    -2.3345214685832616E-006
   4.9699999999999994E-002    -2.3415352643496590E-006
   5.0800000000000012E-002    -1.9634562704595737E-006
   5.1900000000000002E-002    -9.7705208190745907E-007
   5.2999999999999992E-002     5.2151125373711693E-007
   5.4099999999999981E-002     2.0073546238563722E-006
   5.5200000000000027E-002     2.7167395728611154E-006
   5.6300000000000017E-002     2.0603349639713997E-006
   5.7400000000000007E-002     1.1476707584279211E-008
   5.8499999999999996E-002    -2.7912119549000636E-006
   5.9599999999999986E-002    -5.3199614740151446E-006
   6.0700000000000032E-002    -6.6646416598814540E-006
   6.1800000000000022E-002    -6.4709779508120846E-006
   6.2900000000000011E-002    -5.0553248911455739E-006
   6.4000000000000001E-002    -3.1530498745269142E-006
   6.5099999999999991E-002    -1.4897703977112542E-006
   6.6199999999999981E-002    -4.6138259790495795E-007
   6.7300000000000026E-002    -1.0244867354458620E-007
   6.8400000000000016E-002    -3.0067906209296780E-007
   6.9500000000000006E-002    -1.0390392617409816E-006
   7.0599999999999996E-002    -2.4452017441944918E-006
   7.1699999999999986E-002    -4.5988754209247418E-006
   7.2800000000000031E-002    -7.2618336162122432E-006
   7.3900000000000021E-002    -9.7816055131261237E-006
   7.5000000000000011E-002    -1.1313969480397645E-005
   7.6100000000000001E-002    -1.1272551091678906E-005
   7.7199999999999991E-002    -9.7257870947942138E-006
   7.8299999999999981E-002    -7.4587192102626432E-006
   7.9400000000000026E-002    -5.6229741858260240E-006
   8.0500000000000016E-002    -5.1643769438669551E-006
   8.1600000000000006E-002    -6.3695979406475089E-006
   8.2699999999999996E-002    -8.7964117483352311E-006
   8.3799999999999986E-002    -1.1605449799390044E-005
   8.4900000000000031E-002    -1.4059930435905699E-005
   8.6000000000000021E-002    -1.5872436051722616E-005
   8.7100000000000011E-002    -1.7213131286553107E-005
   8.8200000000000001E-002    -1.8432061551720835E-005
   8.9299999999999990E-002    -1.9732709915842861E-005
   9.0399999999999980E-002    -2.1028035916970111E-005
   9.1500000000000026E-002    -2.2058222384657711E-005
   9.2600000000000016E-002    -2.2648289814242162E-005
   9.3700000000000006E-002    -2.2906169760972261E-005
   9.4799999999999995E-002    -2.3224250981002115E-005
   9.5899999999999985E-002    -2.4103588657453656E-005
   9.7000000000000031E-002    -2.5933471988537349E-005
   9.8100000000000021E-002    -2.8853421099483967E-005
   9.9200000000000010E-002    -3.2735613785916939E-005
  0.10030000000000000         -3.7240417441353202E-005
  0.10139999999999999         -4.1876752220559865E-005
  0.10249999999999998         -4.6058041334617883E-005
  0.10360000000000003         -4.9215133913094178E-005
  0.10470000000000002         -5.0991609896300361E-005
  0.10580000000000001         -5.1484523282852024E-005
  0.10690000000000000         -5.1376111514400691E-005
  0.10799999999999998         -5.1814222388202325E-005
  0.10910000000000003         -5.4004336561774835E-005
  0.11020000000000002         -5.8660505601437762E-005
  0.11130000000000001         -6.5617081418167800E-005
  0.11240000000000000         -7.3820090619847178E-005
  0.11349999999999999         -8.1751422840170562E-005
  0.11460000000000004         -8.8098924607038498E-005
  0.11570000000000003         -9.2302958364598453E-005
  0.11680000000000001         -9.4741881184745580E-005
  0.11790000000000000         -9.6469360869377851E-005
  0.11899999999999999         -9.8705342679750174E-005
  0.12009999999999998         -1.0236853267997503E-004
  0.12120000000000003         -1.0787565406644717E-004
  0.12230000000000002         -1.1519836698425934E-004
  0.12340000000000001         -1.2398080434650183E-004
  0.12450000000000000         -1.3368442887440324E-004
  0.12559999999999999         -1.4358651242218912E-004
  0.12670000000000003         -1.5282206004485488E-004
  0.12780000000000002         -1.6058624896686524E-004
  0.12890000000000001         -1.6646525182295591E-004
  0.13000000000000000         -1.7078645760193467E-004
  0.13109999999999999         -1.7462302639614791E-004
  0.13219999999999998         -1.7947306332644075E-004
  0.13330000000000003         -1.8658959015738219E-004
  0.13440000000000002         -1.9644640269689262E-004
  0.13550000000000001         -2.0849508291576058E-004
  0.13660000000000000         -2.2149573487695307E-004
  0.13769999999999999         -2.3404607782140374E-004
  0.13880000000000003         -2.4519176804460585E-004
  0.13990000000000002         -2.5466855731792748E-004
  0.14100000000000001         -2.6286972570233047E-004
  0.14210000000000000         -2.7053224039264023E-004
  0.14319999999999999         -2.7839504764415324E-004
  0.14429999999999998         -2.8704662690870464E-004
  0.14540000000000003         -2.9672074015252292E-004
  0.14650000000000002         -3.0744564719498158E-004
  0.14760000000000001         -3.1908857636153698E-004
  0.14870000000000000         -3.3139801234938204E-004
  0.14979999999999999         -3.4394967951811850E-004
  0.15090000000000003         -3.5625448799692094E-004
  0.15200000000000002         -3.6786703276447952E-004
  0.15310000000000001         -3.7850614171475172E-004
  0.15420000000000000         -3.8813881110399961E-004
  0.15529999999999999         -3.9709868724457920E-004
  0.15639999999999998         -4.0592718869447708E-004
  0.15750000000000003         -4.1525112465023994E-004
  0.15860000000000002         -4.2551945080049336E-004
  0.15970000000000001         -4.3684139382094145E-004
  0.16080000000000000         -4.4897256884723902E-004
  0.16189999999999999         -4.6114632277749479E-004
  0.16300000000000003         -4.7253540833480656E-004
  0.16410000000000002         -4.8250510008074343E-004
  0.16520000000000001         -4.9072859110310674E-004
  0.16630000000000000         -4.9751444021239877E-004
  0.16739999999999999         -5.0358421867713332E-004
  0.16850000000000004         -5.0973775796592236E-004
  0.16960000000000003         -5.1668786909431219E-004
  0.17070000000000002         -5.2460143342614174E-004
  0.17180000000000001         -5.3304521134123206E-004
  0.17290000000000000         -5.4111500503495336E-004
  0.17399999999999999         -5.4804456885904074E-004
  0.17510000000000003         -5.5331230396404862E-004
  0.17620000000000002         -5.5694690672680736E-004
  0.17730000000000001         -5.5939855519682169E-004
  0.17840000000000000         -5.6116667110472918E-004
  0.17949999999999999         -5.6273513473570347E-004
  0.18060000000000004         -5.6421500630676746E-004
  0.18170000000000003         -5.6563498219475150E-004
  0.18280000000000002         -5.6686031166464090E-004
  0.18390000000000001         -5.6763592874631286E-004
  0.18500000000000000         -5.6770484661683440E-004
  0.18609999999999999         -5.6643557036295533E-004
  0.18720000000000003         -5.6319031864404678E-004
  0.18830000000000002         -5.5789202451705933E-004
  0.18940000000000001         -5.5094878189265728E-004
  0.19050000000000000         -5.4341275244951248E-004
  0.19159999999999999         -5.3630804177373648E-004
  0.19270000000000004         -5.2991113625466824E-004
  0.19380000000000003         -5.2340328693389893E-004
  0.19490000000000002         -5.1612360402941704E-004
  0.19600000000000001         -5.0705333705991507E-004
  0.19710000000000000         -4.9659487558528781E-004
  0.19819999999999999         -4.8457091907039285E-004
  0.19930000000000003         -4.7138327499851584E-004
  0.20040000000000002         -4.5735496678389609E-004
  0.20150000000000001         -4.4242286821827292E-004
  0.20260000000000000         -4.2674757423810661E-004
  0.20369999999999999         -4.1049934225156903E-004
  0.20480000000000004         -3.9408207521773875E-004
  0.20590000000000003         -3.7798870471306145E-004
  0.20700000000000002         -3.6128982901573181E-004
  0.20810000000000001         -3.4380159922875464E-004
  0.20920000000000000         -3.2493911567144096E-004
  0.21029999999999999         -3.0492088990285993E-004
  0.21140000000000003         -2.8392544481903315E-004
  0.21250000000000002         -2.6202472508884966E-004
  0.21360000000000001         -2.3937657533679157E-004
  0.21470000000000000         -2.1590437972918153E-004
  0.21579999999999999         -1.9296849495731294E-004
  0.21690000000000004         -1.7108645988628268E-004
  0.21800000000000003         -1.5034859825391322E-004
  0.21910000000000002         -1.2928349315188825E-004
  0.22020000000000001         -1.0716162796597928E-004
  0.22130000000000000         -8.3467413787730038E-005
  0.22239999999999999         -5.9292127843946218E-005
  0.22350000000000003         -3.5295721318107098E-005
  0.22460000000000002         -1.1943524441448972E-005
  0.22570000000000001          1.1638589057838544E-005
  0.22680000000000000          3.6485602322500199E-005
  0.22789999999999999          6.1794962675776333E-005
  0.22900000000000004          8.5956904513295740E-005
  0.23010000000000003          1.0725708125391975E-004
  0.23120000000000002          1.2657370825763792E-004
  0.23230000000000001          1.4518777607008815E-004
  0.23340000000000000          1.6501196660101414E-004
  0.23450000000000004          1.8630218983162194E-004
  0.23560000000000003          2.0856247283518314E-004
  0.23670000000000002          2.3014760517980903E-004
  0.23780000000000001          2.5045708753168583E-004
  0.23890000000000000          2.6991832419298589E-004
  0.23999999999999999          2.8801604639738798E-004
  0.24110000000000004          3.0513835372403264E-004
  0.24220000000000003          3.2048736466094851E-004
  0.24330000000000002          3.3398318919353187E-004
  0.24440000000000001          3.4587044501677155E-004
  0.24550000000000000          3.5718458821065724E-004
  0.24660000000000004          3.6903109867125750E-004
  0.24770000000000003          3.8164947181940079E-004
  0.24880000000000002          3.9455230580642819E-004
  0.24990000000000001          4.0683153201825917E-004
  0.25100000000000000          4.1761738248169422E-004
  0.25209999999999999          4.2634198325686157E-004
  0.25320000000000004          4.3323836871422827E-004
  0.25430000000000003          4.3795508099719882E-004
  0.25540000000000002          4.4054785394109786E-004
  0.25650000000000001          4.4191995402798057E-004
  0.25760000000000000          4.4236268149688840E-004
  0.25870000000000004          4.4329115189611912E-004
  0.25980000000000003          4.4470009743236005E-004
  0.26090000000000002          4.4639199040830135E-004
  0.26200000000000001          4.4666262692771852E-004
  0.26310000000000000          4.4594652717933059E-004
  0.26419999999999999          4.4361231266520917E-004
  0.26530000000000004          4.4070085277780890E-004
  0.26640000000000003          4.3641700176522136E-004
  0.26750000000000002          4.2997053242288530E-004
  0.26860000000000001          4.2061752174049616E-004
  0.26970000000000000          4.1040571522898972E-004
  0.27080000000000004          4.0143524529412389E-004
  0.27190000000000003          3.9365969132632017E-004
  0.27300000000000002          3.8601059350185096E-004
  0.27410000000000001          3.7650339072570205E-004
  0.27520000000000000          3.6503272713162005E-004
  0.27629999999999999          3.5330263199284673E-004
  0.27740000000000004          3.4276052610948682E-004
  0.27850000000000003          3.3321059891022742E-004
  0.27960000000000002          3.2289788941852748E-004
  0.28070000000000001          3.0855971272103488E-004
  0.28179999999999999          2.9003154486417770E-004
  0.28290000000000004          2.7136210701428354E-004
  0.28400000000000003          2.5618146173655987E-004
  0.28510000000000002          2.4383180425502360E-004
  0.28620000000000001          2.3316209262702614E-004
  0.28730000000000000          2.2027081286069006E-004
  0.28840000000000005          2.0467904687393457E-004
  0.28950000000000004          1.8815250950865448E-004
  0.29060000000000002          1.7175830726046115E-004
  0.29170000000000001          1.5628563414793462E-004
  0.29280000000000000          1.4175075921230018E-004
  0.29389999999999999          1.2675409379880875E-004
  0.29500000000000004          1.1112567881355062E-004
  0.29610000000000003          9.6614756330382079E-005
  0.29720000000000002          8.2546350313350558E-005
  0.29830000000000001          6.8184250267222524E-005
  0.29940000000000000          5.2143328503007069E-005
  0.30050000000000004          3.5675890103448182E-005
  0.30160000000000003          2.0542929632938467E-005
  0.30270000000000002          8.4459488789434545E-006
  0.30380000000000001         -1.8403635522190598E-006
  0.30490000000000000         -1.0769221262307838E-005
  0.30599999999999999         -2.2535585230798461E-005
  0.30709999999999998         -3.7682217225665227E-005
  0.30819999999999997         -5.4971700592432171E-005
  0.30930000000000007         -7.0256457547657192E-005
  0.31040000000000006         -8.1233563832938671E-005
  0.31150000000000005         -8.7300046288874000E-005
  0.31260000000000004         -9.1847388830501586E-005
  0.31370000000000003         -9.9299933935981244E-005
  0.31480000000000002         -1.1091637134086341E-004
  0.31590000000000001         -1.2335974315647036E-004
  0.31700000000000000         -1.3298443809617311E-004
  0.31809999999999999         -1.3836970902048051E-004
  0.31919999999999998         -1.4295874279923737E-004
  0.32029999999999997         -1.4962130808271468E-004
  0.32140000000000007         -1.5829957555979490E-004
  0.32250000000000006         -1.6573049651924521E-004
  0.32360000000000005         -1.7059473611880094E-004
  0.32470000000000004         -1.7199014837387949E-004
  0.32580000000000003         -1.7435009067412466E-004
  0.32690000000000002         -1.8009706400334835E-004
  0.32800000000000001         -1.8605645163916051E-004
  0.32910000000000000         -1.8780070240609348E-004
  0.33019999999999999         -1.8406372691970319E-004
  0.33129999999999998         -1.7950676556210965E-004
  0.33239999999999997         -1.7883424879983068E-004
  0.33350000000000007         -1.8496744451113045E-004
  0.33460000000000006         -1.9312094082124531E-004
  0.33570000000000005         -1.9700264965649694E-004
  0.33680000000000004         -1.9261785200797021E-004
  0.33790000000000003         -1.8224261293653399E-004
  0.33900000000000002         -1.7274598940275609E-004
  0.34010000000000001         -1.6868015518411994E-004
  0.34120000000000000         -1.7036632925737649E-004
  0.34229999999999999         -1.7191012739203870E-004
  0.34339999999999998         -1.6979059728328139E-004
  0.34449999999999997         -1.6400477034039795E-004
  0.34560000000000007         -1.5677069313824177E-004
  0.34670000000000006         -1.4889123849570751E-004
  0.34780000000000005         -1.4114168880041689E-004
  0.34890000000000004         -1.3414277054835111E-004
