 -0.12000000000000000          0.0000000000000000
 -0.11889999999999999          0.0000000000000000
 -0.11780000000000000          0.0000000000000000
 -0.11670000000000000          0.0000000000000000
 -0.11559999999999999          0.0000000000000000
 -0.11449999999999999          0.0000000000000000
 -0.11340000000000000          0.0000000000000000
 -0.11230000000000000          0.0000000000000000
 -0.11119999999999999          0.0000000000000000
 -0.11009999999999999          0.0000000000000000
 -0.10900000000000000          0.0000000000000000
 -0.10790000000000000          0.0000000000000000
 -0.10679999999999999          0.0000000000000000
 -0.10569999999999999          4.1703682622286471E-037
 -0.10460000000000000          1.6449785723939437E-036
 -0.10349999999999999         -4.3464503422238362E-035
 -0.10239999999999999          1.1514854670278895E-035
 -0.10130000000000000          2.7408588518390567E-034
 -0.10020000000000000          5.3665693076429353E-034
  -9.9099999999999994E-002    -6.2425770852344745E-034
  -9.7999999999999990E-002     1.0551703082617366E-032
  -9.6899999999999986E-002    -2.7619838444886763E-032
  -9.5799999999999996E-002    -1.5689445351837557E-031
  -9.4699999999999993E-002    -2.2543369700323947E-031
  -9.3599999999999989E-002     1.9191018503516144E-031
  -9.2499999999999999E-002     3.6631251018940170E-031
  -9.1399999999999995E-002     1.5124810276154541E-030
  -9.0299999999999991E-002     6.5457145257177380E-030
  -8.9200000000000002E-002     7.6918828315548072E-030
  -8.8099999999999984E-002     1.6612180957685017E-029
  -8.6999999999999994E-002     9.9842201955453301E-030
  -8.5899999999999990E-002    -1.2102981919591738E-028
  -8.4799999999999986E-002    -1.2765778672890453E-028
  -8.3699999999999997E-002    -9.8996658524556543E-030
  -8.2599999999999993E-002     6.0540274095326271E-028
  -8.1499999999999989E-002     7.2316083850790366E-028
  -8.0399999999999999E-002     3.4337460348965929E-028
  -7.9299999999999995E-002     9.5867698546893697E-028
  -7.8199999999999992E-002    -4.1619784247270515E-028
  -7.7100000000000002E-002    -1.7910726704143473E-027
  -7.5999999999999984E-002    -7.1463017256048345E-027
  -7.4899999999999994E-002    -1.2501530973388316E-026
  -7.3799999999999991E-002    -1.7856760221171798E-026
  -7.2699999999999987E-002     8.6308462749654259E-027
  -7.1599999999999997E-002     5.1039873724550913E-026
  -7.0499999999999993E-002    -2.0796066354046988E-027
  -6.9399999999999989E-002    -1.8257043035622912E-025
  -6.8300000000000000E-002    -2.9937559780405869E-025
  -6.7199999999999996E-002    -9.7752407812681212E-026
  -6.6099999999999992E-002     1.5049556042150139E-024
  -6.5000000000000002E-002     1.0697221101428564E-024
  -6.3899999999999985E-002    -1.0213389042429361E-024
  -6.2799999999999995E-002    -3.6218852412276532E-024
  -6.1699999999999991E-002    -1.1275779577926706E-024
  -6.0599999999999994E-002     6.4615829460620117E-024
  -5.9499999999999990E-002     9.4653747632350138E-024
  -5.8399999999999994E-002     6.3553423147904667E-024
  -5.7299999999999990E-002    -1.1020281138576235E-023
  -5.6199999999999986E-002    -3.2471786778303882E-023
  -5.5099999999999996E-002    -1.5202405139500083E-023
  -5.3999999999999992E-002     3.8240436277372020E-023
  -5.2899999999999989E-002     1.3651799633814127E-022
  -5.1799999999999985E-002     1.6958142879536091E-022
  -5.0699999999999995E-002     6.4064826684402250E-023
  -4.9599999999999991E-002    -1.8818357673403931E-022
  -4.8499999999999988E-002    -4.2412847822830787E-022
  -4.7399999999999998E-002    -3.3400274801571565E-022
  -4.6299999999999994E-002     4.9586584811842383E-023
  -4.5199999999999990E-002     4.6578300984016781E-022
  -4.4099999999999986E-002     6.2112287396719687E-022
  -4.2999999999999997E-002     5.9107359698729258E-023
  -4.1899999999999993E-002    -8.9419294543458496E-022
  -4.0799999999999989E-002    -1.6518508046483779E-021
  -3.9699999999999985E-002    -8.7697654211645399E-022
  -3.8599999999999995E-002     1.9847498037290573E-021
  -3.7499999999999992E-002     4.5856195129426254E-021
  -3.6399999999999988E-002     5.6213506140548843E-021
  -3.5299999999999984E-002     2.0268786616260085E-021
  -3.4199999999999994E-002    -7.3064362674797428E-021
  -3.3099999999999991E-002    -1.6639752610224236E-020
  -3.1999999999999987E-002    -1.0843390288716165E-020
  -3.0899999999999997E-002     1.0767398724492824E-020
  -2.9799999999999993E-002     3.4465042446344493E-020
  -2.8699999999999989E-002     3.7294164931163504E-020
  -2.7599999999999986E-002     4.6467989704256550E-021
  -2.6499999999999996E-002    -5.3042791990075243E-020
  -2.5399999999999992E-002    -8.1516452168598783E-020
  -2.4299999999999988E-002    -3.2776592332713303E-020
  -2.3199999999999985E-002     8.6916248433253735E-020
  -2.2099999999999995E-002     1.8991428384182201E-019
  -2.0999999999999991E-002     1.8022228615272061E-019
  -1.9899999999999987E-002     3.5821205868418749E-021
  -1.8799999999999983E-002    -2.7740065358758085E-019
  -1.7699999999999994E-002    -4.3317228216445237E-019
  -1.6599999999999990E-002    -2.8426351263599190E-019
  -1.5499999999999986E-002     1.4324003616714922E-019
  -1.4399999999999996E-002     5.6239616936689389E-019
  -1.3299999999999992E-002     5.9757150792782855E-019
  -1.2199999999999989E-002     1.6529198628886817E-019
  -1.1099999999999985E-002    -5.5914684882442074E-019
  -9.9999999999999950E-003    -1.0749005264973456E-018
  -8.8999999999999913E-003    -8.5608230315563046E-019
  -7.7999999999999875E-003     3.6442496541304639E-019
  -6.6999999999999837E-003     1.8353545469872520E-018
  -5.5999999999999939E-003     2.3296373559940793E-018
  -4.4999999999999901E-003     6.8698352829021669E-019
  -3.3999999999999864E-003    -2.7587106221812076E-018
  -2.2999999999999826E-003    -5.6701708978182950E-018
  -1.1999999999999927E-003    -4.9588555416171012E-018
  -9.9999999999988987E-005     1.0280220298348576E-018
   1.0000000000000148E-003     1.0220304504654063E-017
   2.1000000000000185E-003     1.5138713809449465E-017
   3.2000000000000084E-003     8.1704128075853643E-018
   4.3000000000000121E-003    -1.0584427755938681E-017
   5.4000000000000159E-003    -2.9606385618771413E-017
   6.5000000000000058E-003    -3.0330823781800454E-017
   7.6000000000000234E-003    -1.9395009288058940E-018
   8.7000000000000133E-003     4.3013084141569569E-017
   9.8000000000000032E-003     6.6863417662604981E-017
   1.0900000000000021E-002     3.6221868446782658E-017
   1.2000000000000011E-002    -4.4904809806531391E-017
   1.3100000000000001E-002    -1.1775085426281800E-016
   1.4200000000000018E-002    -1.0137979850498091E-016
   1.5300000000000008E-002     2.8916682424024698E-017
   1.6400000000000026E-002     1.8645910968454285E-016
   1.7500000000000016E-002     2.1097721949664742E-016
   1.8600000000000005E-002     1.5925107800358728E-017
   1.9700000000000023E-002    -2.9291889564645281E-016
   2.0800000000000013E-002    -4.3241066368045515E-016
   2.1900000000000003E-002    -1.6695297323068078E-016
   2.3000000000000020E-002     4.1583981402618445E-016
   2.4100000000000010E-002     8.3889656052121234E-016
   2.5200000000000000E-002     5.6744897070581078E-016
   2.6300000000000018E-002    -4.4551561333323886E-016
   2.7400000000000008E-002    -1.4990820864242129E-015
   2.8500000000000025E-002    -1.4959334532010319E-015
   2.9600000000000015E-002     3.5993076906795391E-017
   3.0700000000000005E-002     2.1951106585232265E-015
   3.1800000000000023E-002     3.0464226044688188E-015
   3.2900000000000013E-002     1.1752776960731286E-015
   3.4000000000000002E-002    -2.6383424592724310E-015
   3.5100000000000020E-002    -5.3022907245403594E-015
   3.6200000000000010E-002    -3.6667226194350352E-015
   3.7300000000000028E-002     2.2555401065627164E-015
   3.8400000000000017E-002     8.1136947204310528E-015
   3.9500000000000007E-002     7.9638528979958725E-015
   4.0600000000000025E-002    -2.5506147275297110E-016
   4.1700000000000015E-002    -1.1230624347429320E-014
   4.2800000000000005E-002    -1.4923505885374409E-014
   4.3900000000000022E-002    -5.0853067179586989E-015
   4.5000000000000012E-002     1.3166011622676565E-014
   4.6100000000000002E-002     2.4493655123884392E-014
   4.7200000000000020E-002     1.5306706978844044E-014
   4.8300000000000010E-002    -1.1924532372544882E-014
   4.9400000000000027E-002    -3.6052940960342589E-014
   5.0500000000000017E-002    -3.2268685743212441E-014
   5.1600000000000007E-002     4.3389169549477337E-015
   5.2700000000000025E-002     4.7981316321369163E-014
   5.3800000000000014E-002     5.8099453525105316E-014
   5.4900000000000004E-002     1.4657412179060365E-014
   5.6000000000000022E-002    -5.6218620253858931E-014
   5.7100000000000012E-002    -9.4549110836623929E-014
   5.8200000000000002E-002    -5.4548047665175375E-014
   5.9300000000000019E-002     4.8056709029938374E-014
   6.0400000000000009E-002     1.3514089478548763E-013
   6.1500000000000027E-002     1.2324218251827390E-013
   6.2600000000000017E-002    -1.6235578131879687E-015
   6.3700000000000007E-002    -1.5445751502893984E-013
   6.4800000000000024E-002    -2.0659903367074850E-013
   6.5900000000000014E-002    -9.1461153971586495E-014
   6.7000000000000004E-002     1.2375202858988521E-013
   6.8100000000000022E-002     2.6840354483241569E-013
   6.9200000000000012E-002     1.9961785588211434E-013
   7.0300000000000029E-002    -6.0355285222760124E-014
   7.1400000000000019E-002    -3.0938730852421437E-013
   7.2500000000000009E-002    -3.1791995251662097E-013
   7.3600000000000027E-002    -2.9401340303353285E-014
   7.4700000000000016E-002     3.5444176348271850E-013
   7.5800000000000006E-002     4.9518700771800095E-013
   7.6900000000000024E-002     2.1169046062526758E-013
   7.8000000000000014E-002    -3.3555534110878138E-013
   7.9100000000000004E-002    -7.1526535779312117E-013
   8.0200000000000021E-002    -5.7855478220736334E-013
   8.1300000000000011E-002     2.9717886680137584E-014
   8.2400000000000029E-002     7.1020191680717937E-013
   8.3500000000000019E-002     9.6890594505905092E-013
   8.4600000000000009E-002     5.3503740066879191E-013
   8.5700000000000026E-002    -3.6601676008628237E-013
   8.6800000000000016E-002    -1.0931072670292141E-012
   8.7900000000000006E-002    -1.0630725900268034E-012
   8.9000000000000024E-002    -1.4024289271118845E-013
   9.0100000000000013E-002     1.0561147225848777E-012
   9.1200000000000003E-002     1.5566174651343578E-012
   9.2300000000000021E-002     7.9232719560687337E-013
   9.3400000000000011E-002    -7.6409982941588739E-013
   9.4500000000000028E-002    -2.1892336034279314E-012
   9.5600000000000018E-002    -2.0738582292428864E-012
   9.6700000000000008E-002     1.2470553019047759E-013
   9.7800000000000026E-002     2.9797362494088375E-012
   9.8900000000000016E-002     3.4014629220896486E-012
  0.10000000000000001          1.3373680418302114E-012
  0.10110000000000002         -1.7595680771795297E-012
  0.10220000000000001         -2.6507754324889277E-012
  0.10330000000000003          1.2546022163870130E-012
  0.10440000000000002          6.8755465730541143E-012
  0.10550000000000001          8.5751961087510153E-012
  0.10660000000000003          2.1521612617037000E-012
  0.10770000000000002         -8.1221461847857945E-012
  0.10880000000000001         -1.1674232761049730E-011
  0.10990000000000003         -4.7928722622658793E-012
  0.11100000000000002          5.8697378554906088E-012
  0.11210000000000001          1.1630728498357445E-011
  0.11320000000000002          1.0529451442697901E-011
  0.11430000000000001          5.5068779397648981E-012
  0.11540000000000003          1.3245822624505244E-012
  0.11650000000000002          2.4640450270452252E-012
  0.11760000000000001          9.7655442760080646E-012
  0.11870000000000003          2.9671209933468390E-011
  0.11980000000000002          2.9130118456288656E-011
  0.12090000000000001         -8.9433720845688569E-012
  0.12200000000000003         -5.5419641098453098E-011
  0.12310000000000001         -6.1002397577780698E-011
  0.12420000000000003          1.0160206877218858E-011
  0.12530000000000002          1.0541077039016855E-010
  0.12640000000000001          1.0879099010541182E-010
  0.12750000000000003          2.7023073015386423E-011
  0.12860000000000002         -1.0068001987662001E-010
  0.12970000000000001         -2.0261459177106644E-010
  0.13080000000000003         -1.9139177742655278E-010
  0.13190000000000002         -7.9335635283506178E-011
  0.13300000000000001          8.2016796132400316E-011
  0.13410000000000000          1.6046183826112781E-010
  0.13520000000000004          5.0684692554092692E-011
  0.13630000000000003         -1.1062948473972156E-010
  0.13740000000000002         -8.8202965764505592E-011
  0.13850000000000001          1.7174203725822679E-010
  0.13960000000000000          4.8546483499833926E-010
  0.14070000000000005          4.9220616471501444E-010
  0.14180000000000004          1.1802162025453811E-010
  0.14290000000000003         -3.5027403200160734E-010
  0.14400000000000002         -5.0486603786481510E-010
  0.14510000000000001         -1.2168034635440250E-010
  0.14620000000000000          3.8250530520755888E-010
  0.14730000000000004          6.6709837653888826E-010
  0.14840000000000003          3.2876562583439295E-010
  0.14950000000000002         -1.3056708492165114E-010
  0.15060000000000001         -4.5545536786484320E-010
  0.15170000000000000         -3.5460295810807452E-010
  0.15280000000000005          6.1753501617856088E-012
  0.15390000000000004          3.0869440337255583E-010
  0.15500000000000003          1.8547277602642964E-010
  0.15610000000000002          2.1917811315885771E-011
  0.15720000000000001          1.8551093994290113E-010
  0.15830000000000000          7.6140027616133921E-010
  0.15940000000000004          1.2476599753341588E-009
  0.16050000000000003          9.4966057240242208E-010
  0.16160000000000002         -1.7069060054275553E-010
  0.16270000000000001         -9.6837515783931849E-010
  0.16380000000000000         -9.2802282525283886E-010
  0.16490000000000005          2.5431327183023100E-011
  0.16600000000000004          4.6575593382058855E-010
  0.16710000000000003         -6.7224092958895199E-010
  0.16820000000000002         -2.5659274704992185E-009
  0.16930000000000001         -3.0154569952145494E-009
  0.17040000000000000         -1.2175239705314311E-009
  0.17150000000000004          1.5304830736084796E-009
  0.17260000000000003          3.4673421911435298E-009
  0.17370000000000002          3.4368308199361763E-009
  0.17480000000000001          1.9229495773487315E-009
  0.17590000000000000          1.1978088521047425E-009
  0.17700000000000005          2.3548900607295309E-009
  0.17810000000000004          3.8077492270360835E-009
  0.17920000000000003          3.7100158500891212E-009
  0.18030000000000002          1.5687273702269522E-009
  0.18140000000000001         -1.2358201129103463E-009
  0.18250000000000000         -2.9827380565450312E-009
  0.18360000000000004         -2.9460265338343561E-009
  0.18470000000000003         -1.6903523025746381E-009
  0.18580000000000002         -6.1393723438385450E-010
  0.18690000000000001         -2.3663318526878641E-010
  0.18800000000000000         -3.8588392897720425E-011
  0.18910000000000005          7.1515998678606252E-010
  0.19020000000000004          1.7198713564425816E-009
  0.19130000000000003          2.0254715682455071E-009
  0.19240000000000002          1.1300350655218949E-009
  0.19350000000000001         -8.7680868121609024E-010
  0.19460000000000005         -2.3817263716807702E-009
  0.19570000000000004         -2.4704962520161189E-009
  0.19680000000000003         -1.0355627466651640E-009
  0.19790000000000002          2.3803745086148353E-010
  0.19900000000000001          1.8511936428211584E-010
  0.20010000000000000         -6.2965049840713050E-010
  0.20120000000000005         -1.0500500469134977E-009
  0.20230000000000004         -1.4393131131384962E-010
  0.20340000000000003          1.8467056772664137E-009
  0.20450000000000002          3.1964908497883471E-009
  0.20560000000000000          2.9508691046231661E-009
  0.20670000000000005          8.3198820055585543E-010
  0.20780000000000004         -2.1495778490532302E-009
  0.20890000000000003         -3.8315142170119998E-009
