 -0.12000000000000000          0.0000000000000000
 -0.11889999999999999          0.0000000000000000
 -0.11780000000000000          0.0000000000000000
 -0.11670000000000000          0.0000000000000000
 -0.11559999999999999          1.1833400997722298E-016
 -0.11449999999999999         -3.7041624286157410E-016
 -0.11340000000000000         -2.0702522846255487E-015
 -0.11230000000000000          2.3666796701488676E-016
 -0.11119999999999999          9.4643488941672897E-015
 -0.11009999999999999          3.6363408181664444E-015
 -0.10900000000000000         -1.9311443178078591E-014
 -0.10790000000000000         -2.0889860276166773E-014
 -0.10679999999999999          1.2135523197508245E-014
 -0.10569999999999999          5.4874256993821952E-014
 -0.10460000000000000          7.4300950862835752E-014
 -0.10349999999999999          2.7676881172631305E-014
 -0.10239999999999999         -3.4488545645663254E-014
 -0.10130000000000000         -5.0029902773753368E-014
 -0.10020000000000000         -6.5571259901843482E-014
  -9.9099999999999994E-002     5.0988927029161843E-014
  -9.7999999999999990E-002     2.4525588265995879E-013
  -9.6899999999999986E-002     2.7633857658734828E-013
  -9.5799999999999996E-002    -2.0544350454784061E-013
  -9.4699999999999993E-002    -8.5040985755083232E-013
  -9.3599999999999989E-002    -6.2506017072319620E-013
  -9.2499999999999999E-002     7.8920333809739951E-013
  -9.1399999999999995E-002     1.6595193101653916E-012
  -9.0299999999999991E-002     3.2296260392590537E-013
  -8.9200000000000002E-002    -1.5497708368353291E-012
  -8.8099999999999984E-002    -2.1422850472740951E-012
  -8.6999999999999994E-002    -1.6779870678704234E-012
  -8.5899999999999990E-002    -3.4920100123146669E-013
  -8.4799999999999986E-002     1.7022582345441184E-012
  -8.3699999999999997E-002     4.8726951293320830E-012
  -8.2599999999999993E-002     9.5351027420975676E-012
  -8.1499999999999989E-002     8.1052976830253698E-012
  -8.0399999999999999E-002    -5.8197587374242410E-012
  -7.9299999999999995E-002    -2.4282889934945651E-011
  -7.8199999999999992E-002    -2.4158560568698917E-011
  -7.7100000000000002E-002     2.1374156784770282E-012
  -7.5999999999999984E-002     3.8379861788673253E-011
  -7.4899999999999994E-002     5.2553579543701545E-011
  -7.3799999999999991E-002     6.4889955388169884E-012
  -7.2699999999999987E-002    -7.7869495573867908E-011
  -7.1599999999999997E-002    -1.1914734476814459E-010
  -7.0499999999999993E-002    -6.6431062040184230E-011
  -6.9399999999999989E-002     6.8343587733554756E-011
  -6.8300000000000000E-002     2.2450315217970029E-010
  -6.7199999999999996E-002     2.7622476528321727E-010
  -6.6099999999999992E-002     9.6593913423426159E-012
  -6.5000000000000002E-002    -4.5782461155496890E-010
  -6.3899999999999985E-002    -6.4581284764386737E-010
  -6.2799999999999995E-002    -2.7978278027696035E-010
  -6.1699999999999991E-002     5.6964566397255112E-010
  -6.0599999999999994E-002     1.1903052987705109E-009
  -5.9499999999999990E-002     7.6459644171578134E-010
  -5.8399999999999994E-002    -4.2897976837430463E-010
  -5.7299999999999990E-002    -1.5628772720432949E-009
  -5.6199999999999986E-002    -1.0735109468029691E-009
  -5.5099999999999996E-002     8.0836093374614393E-010
  -5.3999999999999992E-002     1.9701085207657343E-009
  -5.2899999999999989E-002     8.4018964008336638E-010
  -5.1799999999999985E-002    -2.0403077005681780E-009
  -5.0699999999999995E-002    -4.1887449064859084E-009
  -4.9599999999999991E-002    -3.2497982083157240E-009
  -4.8499999999999988E-002     6.9696037829913848E-010
  -4.7399999999999998E-002     4.8187769330354513E-009
  -4.6299999999999994E-002     7.3969013136832018E-009
  -4.5199999999999990E-002     1.0898058455666160E-008
  -4.4099999999999986E-002     9.1474801067192857E-009
  -4.2999999999999997E-002    -5.7801803343693337E-009
  -4.1899999999999993E-002    -2.3158651885069048E-008
  -4.0799999999999989E-002    -2.6405178488175807E-008
  -3.9699999999999985E-002    -5.5255515718499737E-009
  -3.8599999999999995E-002     2.3311249819357727E-008
  -3.7499999999999992E-002     2.5220971977546469E-008
  -3.6399999999999988E-002    -5.8438383021552909E-009
  -3.5299999999999984E-002    -3.4616981281487824E-008
  -3.4199999999999994E-002    -2.3031335061318714E-008
  -3.3099999999999991E-002     1.9109862137156597E-008
  -3.1999999999999987E-002     5.5267264542635530E-008
  -3.0899999999999997E-002     6.5961707207407017E-008
  -2.9799999999999993E-002     2.3947828609038879E-008
  -2.8699999999999989E-002    -5.0913271820718364E-008
  -2.7599999999999986E-002    -8.6561414036623319E-008
  -2.6499999999999996E-002    -6.1098454295915872E-008
  -2.5399999999999992E-002    -1.0058699428938667E-009
  -2.4299999999999988E-002     3.0058942002142430E-008
  -2.3199999999999985E-002     1.2649134344122626E-011
  -2.2099999999999995E-002    -4.5311420393545632E-008
  -2.0999999999999991E-002    -6.6700309275802283E-008
  -1.9899999999999987E-002    -3.1052163507183650E-008
  -1.8799999999999983E-002     9.8299665296508465E-008
  -1.7699999999999994E-002     1.8181816585638444E-007
  -1.6599999999999990E-002     1.3700335443900258E-007
  -1.5499999999999986E-002     1.5404162390098008E-009
  -1.4399999999999996E-002    -1.1966326951551309E-007
  -1.3299999999999992E-002    -1.1457068183062802E-007
  -1.2199999999999989E-002    -1.6855216244948679E-007
  -1.1099999999999985E-002    -3.3457064319009078E-007
  -9.9999999999999950E-003    -3.4679285931815684E-007
  -8.8999999999999913E-003    -1.2068177568380634E-007
  -7.7999999999999875E-003     1.6450337625428801E-007
  -6.6999999999999837E-003     3.0505890435961192E-007
  -5.5999999999999939E-003     3.3357741813233588E-007
  -4.4999999999999901E-003     3.3968854040722363E-007
  -3.3999999999999864E-003     1.1154043022543192E-007
  -2.2999999999999826E-003    -1.7670026863925159E-007
  -1.1999999999999927E-003    -8.0959530635027477E-008
  -9.9999999999988987E-005     5.0876263912869035E-007
   1.0000000000000148E-003     1.1320959174554446E-006
   2.1000000000000185E-003     6.6561460698721930E-007
   3.2000000000000084E-003    -7.2466292522221920E-007
   4.3000000000000121E-003    -1.2626952639038791E-006
   5.4000000000000159E-003    -5.4362129731089226E-007
   6.5000000000000058E-003     1.2783694103291054E-007
   7.6000000000000234E-003    -7.2811175755305158E-008
   8.7000000000000133E-003    -6.3197774125001160E-007
   9.8000000000000032E-003    -8.3160733765907935E-007
   1.0900000000000021E-002    -3.9364445569844975E-007
   1.2000000000000011E-002     1.7265176666114712E-007
   1.3100000000000001E-002     2.5820730797931901E-007
   1.4200000000000018E-002    -1.0031116914888116E-007
   1.5300000000000008E-002    -5.3216297146718716E-007
   1.6400000000000026E-002     7.0799927698317333E-008
   1.7500000000000016E-002     1.6433923519798554E-006
   1.8600000000000005E-002     2.6537625217315508E-006
   1.9700000000000023E-002     1.7574662933839136E-006
   2.0800000000000013E-002    -1.2817926062780316E-006
   2.1900000000000003E-002    -3.3921628528332803E-006
   2.3000000000000020E-002    -2.0151260287093464E-006
   2.4100000000000010E-002     1.2115402796553099E-006
   2.5200000000000000E-002     2.3767254333506571E-006
   2.6300000000000018E-002    -2.5335449294061618E-009
   2.7400000000000008E-002    -3.0825331123196520E-006
   2.8500000000000025E-002    -3.2780887977423845E-006
   2.9600000000000015E-002     9.4265146799443755E-007
   3.0700000000000005E-002     5.9619101193675306E-006
   3.1800000000000023E-002     5.6685771596676204E-006
   3.2900000000000013E-002    -4.4253312125874800E-007
   3.4000000000000002E-002    -6.1625319176528137E-006
   3.5100000000000020E-002    -5.3966064115229528E-006
   3.6200000000000010E-002     9.4265186589836958E-007
   3.7300000000000028E-002     6.4019104684120975E-006
   3.8400000000000017E-002     5.5707987485220656E-006
   3.9500000000000007E-002    -9.5586722181906225E-007
   4.0600000000000025E-002    -6.8632739385066088E-006
   4.1700000000000015E-002    -6.3499410316580907E-006
   4.2800000000000005E-002     1.0339152112237571E-007
   4.3900000000000022E-002     5.9211688494542614E-006
   4.5000000000000012E-002     4.7967241698643193E-006
   4.6100000000000002E-002    -2.3288303054869175E-006
   4.7200000000000020E-002    -7.6078113124822266E-006
   4.8300000000000010E-002    -4.5079500523570459E-006
   4.9400000000000027E-002     4.6958912207628600E-006
   5.0500000000000017E-002     1.1424222975620069E-005
   5.1600000000000007E-002     8.7271855591097847E-006
   5.2700000000000025E-002    -1.5883688320172951E-006
   5.3800000000000014E-002    -9.8994787549600005E-006
   5.4900000000000004E-002    -9.0846642706310377E-006
   5.6000000000000022E-002    -7.2466588107999996E-007
   5.7100000000000012E-002     6.0708885030180681E-006
   5.8200000000000002E-002     4.1968146433646325E-006
   5.9300000000000019E-002    -3.8209623198781628E-006
   6.0400000000000009E-002    -7.8624434536322951E-006
   6.1500000000000027E-002    -5.2911099146513152E-007
   6.2600000000000017E-002     1.2035331565130036E-005
   6.3700000000000007E-002     1.6076812244136818E-005
   6.4800000000000024E-002     5.7449619816907216E-006
   6.5900000000000014E-002    -1.0975035365845542E-005
   6.7000000000000004E-002    -1.9905404769815505E-005
   6.8100000000000022E-002    -1.3484665032592602E-005
   6.9200000000000012E-002     1.6057030052252230E-006
   7.0300000000000029E-002     1.1513850040500984E-005
   7.1400000000000019E-002     7.5049624683742877E-006
   7.2500000000000009E-002    -4.9128134378406685E-006
   7.3600000000000027E-002    -1.0942442713712808E-005
   7.4700000000000016E-002    -2.5172591904265573E-006
   7.5800000000000006E-002     1.3241256965557113E-005
   7.6900000000000024E-002     2.0036812202306464E-005
   7.8000000000000014E-002     8.7108883235487156E-006
   7.9100000000000004E-002    -1.1708368219842669E-005
   8.0200000000000021E-002    -2.1681700673070736E-005
   8.1300000000000011E-002    -1.1545405868673697E-005
   8.2400000000000029E-002     9.1916281235171482E-006
   8.3500000000000019E-002     2.0851626686635427E-005
   8.4600000000000009E-002     1.3534590834751725E-005
   8.5700000000000026E-002    -3.7761474231956527E-006
   8.6800000000000016E-002    -1.4050960999156814E-005
   8.7900000000000006E-002    -8.7098505900939927E-006
   8.9000000000000024E-002     3.8820926420157775E-006
   9.0100000000000013E-002     7.8655184552189894E-006
   9.1200000000000003E-002    -1.6922580243772245E-006
   9.2300000000000021E-002    -1.4187440683599561E-005
   9.3400000000000011E-002    -1.5140773029997945E-005
   9.4500000000000028E-002    -1.6311445278915926E-006
   9.5600000000000018E-002     1.4347371688927524E-005
   9.6700000000000008E-002     1.7533297068439424E-005
   9.7800000000000026E-002     4.4636699385591783E-006
   9.8900000000000016E-002    -1.2337808584561571E-005
  0.10000000000000001         -1.6542253433726728E-005
  0.10110000000000002         -4.4178109419590328E-006
  0.10220000000000001          1.1536260899447370E-005
  0.10330000000000003          1.5512556274188682E-005
  0.10440000000000002          4.2355213736300357E-006
  0.10550000000000001         -1.0317068699805532E-005
  0.10660000000000003         -1.3429660612018779E-005
  0.10770000000000002         -2.5763285975699546E-006
  0.10880000000000001          1.0998484867741354E-005
  0.10990000000000003          1.3622187907458283E-005
  0.11100000000000002          2.7851519917021506E-006
  0.11210000000000001         -1.0594105333439074E-005
  0.11320000000000002         -1.3413364285952412E-005
  0.11430000000000001         -2.8044773898727726E-006
  0.11540000000000003          1.1063668353017420E-005
  0.11650000000000002          1.5447372788912617E-005
  0.11760000000000001          7.0466330726048909E-006
  0.11870000000000003         -5.6889211919042282E-006
  0.11980000000000002         -1.1091143278463278E-005
  0.12090000000000001         -5.6563294492661953E-006
  0.12200000000000003          3.4370025332464138E-006
  0.12310000000000001          6.5618169173831120E-006
  0.12420000000000003          1.2573731282827794E-006
  0.12530000000000002         -6.0759593907278031E-006
  0.12640000000000001         -7.4244776442355942E-006
  0.12750000000000003         -1.2115154959246865E-006
  0.12860000000000002          6.7492242123989854E-006
  0.12970000000000001          8.7475573309347965E-006
  0.13080000000000003          2.8177435069665080E-006
  0.13190000000000002         -5.5554960454173852E-006
  0.13300000000000001         -9.4589677246403880E-006
  0.13410000000000000         -7.0104497353895567E-006
  0.13520000000000004         -1.8599296254251385E-006
  0.13630000000000003          1.4450351955019869E-006
  0.13740000000000002          1.8687388774196734E-006
  0.13850000000000001          2.4599887638032669E-006
  0.13960000000000000          5.5522104958072305E-006
  0.14070000000000005          8.8196175056509674E-006
  0.14180000000000004          7.4690624387585558E-006
  0.14290000000000003         -4.3529357895977228E-008
  0.14400000000000002         -8.9127870523952879E-006
  0.14510000000000001         -1.2089545634808019E-005
  0.14620000000000000         -6.7576024775917176E-006
  0.14730000000000004          2.5842480226856424E-006
  0.14840000000000003          7.9212841228581965E-006
  0.14950000000000002          5.3098033276910428E-006
  0.15060000000000001         -1.2973254115422606E-006
  0.15170000000000000         -3.9566771192767192E-006
  0.15280000000000005          9.6785913683561375E-007
  0.15390000000000004          8.8562837845529430E-006
  0.15500000000000003          1.0874987310671713E-005
  0.15610000000000002          2.7910068638448138E-006
  0.15720000000000001         -1.0136029231944121E-005
  0.15830000000000000         -1.7240194210899062E-005
  0.15940000000000004         -1.1721861483238172E-005
  0.16050000000000003          2.6494328722037608E-006
  0.16160000000000002          1.4043597730051260E-005
  0.16270000000000001          1.2826468264393043E-005
  0.16380000000000000          4.5656275915462174E-007
  0.16490000000000005         -1.1667880244203843E-005
  0.16600000000000004         -1.2407324902596883E-005
  0.16710000000000003         -9.6019709872052772E-007
  0.16820000000000002          1.2219939890201204E-005
  0.16930000000000001          1.4903226656315383E-005
  0.17040000000000000          4.1929965846065897E-006
  0.17150000000000004         -1.0687556823540945E-005
  0.17260000000000003         -1.6642325135762803E-005
  0.17370000000000002         -8.6474647105205804E-006
  0.17480000000000001          5.8287369029130787E-006
  0.17590000000000000          1.3845495232089888E-005
  0.17700000000000005          8.8629039964871481E-006
  0.17810000000000004         -3.6745484521816252E-006
  0.17920000000000003         -1.1918945347133558E-005
  0.18030000000000002         -8.7765611169743352E-006
  0.18140000000000001          1.8506599417378311E-006
  0.18250000000000000          9.6107514764298685E-006
  0.18360000000000004          7.9276496762759052E-006
  0.18470000000000003         -6.1863438816089911E-008
  0.18580000000000002         -5.2896639317623340E-006
  0.18690000000000001         -2.2911460746399825E-006
  0.18800000000000000          5.2884129218000453E-006
  0.18910000000000005          8.6744776126579382E-006
  0.19020000000000004          3.2638531592965592E-006
  0.19130000000000003         -6.3947568378353026E-006
  0.19240000000000002         -1.1079177966166753E-005
  0.19350000000000001         -6.2636231632495765E-006
  0.19460000000000005          3.2581235700490652E-006
  0.19570000000000004          8.3159593486925587E-006
  0.19680000000000003          4.6289233068819158E-006
  0.19790000000000002         -3.0720304948772537E-006
  0.19900000000000001         -6.2662315940542612E-006
  0.20010000000000000         -1.8633677427715156E-006
  0.20120000000000005          4.4856074055132922E-006
  0.20230000000000004          4.6583827497670427E-006
  0.20340000000000003         -2.7800160751212388E-006
  0.20450000000000002         -1.0343851499783341E-005
  0.20560000000000000         -9.1675265139201656E-006
  0.20670000000000005          1.3039883697274490E-006
  0.20780000000000004          1.1717447705450468E-005
  0.20890000000000003          1.1808350791397970E-005
