 -0.12000000000000000          0.0000000000000000
 -0.11889999999999999          0.0000000000000000
 -0.11780000000000000          0.0000000000000000
 -0.11670000000000000          0.0000000000000000
 -0.11559999999999999          0.0000000000000000
 -0.11449999999999999          0.0000000000000000
 -0.11340000000000000          0.0000000000000000
 -0.11230000000000000          0.0000000000000000
 -0.11119999999999999         -2.4806525942036726E-024
 -0.11009999999999999          7.1536667898609624E-024
 -0.10900000000000000         -8.2601585942646885E-024
 -0.10790000000000000         -6.7398054309774146E-022
 -0.10679999999999999         -2.1706521840518147E-021
 -0.10569999999999999          3.8676069503042072E-021
 -0.10460000000000000          3.3418119365362193E-020
 -0.10349999999999999          3.7359282786182181E-020
 -0.10239999999999999         -1.9932114978883697E-019
 -0.10130000000000000         -7.1992671996817700E-019
 -0.10020000000000000         -2.2471904548833291E-019
  -9.9099999999999994E-002     4.0028820805089546E-018
  -9.7999999999999990E-002     1.0180792568334243E-017
  -9.6899999999999986E-002     1.4361268878792260E-018
  -9.5799999999999996E-002    -4.6265207585548352E-017
  -9.4699999999999993E-002    -1.0585737348284475E-016
  -9.3599999999999989E-002    -2.8316291574376559E-017
  -9.2499999999999999E-002     3.6339026338277729E-016
  -9.1399999999999995E-002     8.5708553427231438E-016
  -9.0299999999999991E-002     4.4141586798940964E-016
  -8.9200000000000002E-002    -2.0495262354391832E-015
  -8.8099999999999984E-002    -5.5323245442238933E-015
  -8.6999999999999994E-002    -4.4507117514581453E-015
  -8.5899999999999990E-002     8.0779702588476554E-015
  -8.4799999999999986E-002     2.8609486470414919E-014
  -8.3699999999999997E-002     3.1974870342600659E-014
  -8.2599999999999993E-002    -1.7435163555956645E-014
  -8.1499999999999989E-002    -1.1735279631733264E-013
  -8.0399999999999999E-002    -1.7407683096642285E-013
  -7.9299999999999995E-002    -2.9387110149839413E-014
  -7.8199999999999992E-002     3.6809601590762075E-013
  -7.7100000000000002E-002     7.3938153776625937E-013
  -7.5999999999999984E-002     4.8919971806088425E-013
  -7.4899999999999994E-002    -7.8074439274766760E-013
  -7.3799999999999991E-002    -2.4596422988631961E-012
  -7.2699999999999987E-002    -2.6770055356478695E-012
  -7.1599999999999997E-002     4.3914443479189935E-013
  -7.0499999999999993E-002     6.2262868472107158E-012
  -6.9399999999999989E-002     9.8859722491573265E-012
  -6.8300000000000000E-002     4.8112412491529977E-012
  -6.7199999999999996E-002    -1.0688895081545358E-011
  -6.6099999999999992E-002    -2.7075149414135247E-011
  -6.5000000000000002E-002    -2.5880592807725478E-011
  -6.3899999999999985E-002     5.4312179753601697E-012
  -6.2799999999999995E-002     5.4439636826275617E-011
  -6.1699999999999991E-002     7.9968719146616962E-011
  -6.0599999999999994E-002     3.8388816431256245E-011
  -5.9499999999999990E-002    -7.0066751012287654E-011
  -5.8399999999999994E-002    -1.7417406406039504E-010
  -5.7299999999999990E-002    -1.6518339474025368E-010
  -5.6199999999999986E-002     1.0672781235177009E-011
  -5.5099999999999996E-002     2.6731195035267774E-010
  -5.3999999999999992E-002     3.9520461903030935E-010
  -5.2899999999999989E-002     2.1223564572458997E-010
  -5.1799999999999985E-002    -2.4314089630550484E-010
  -5.0699999999999995E-002    -6.5491201350909023E-010
  -4.9599999999999991E-002    -6.2483834772919522E-010
  -4.8499999999999988E-002    -2.6540261308105606E-011
  -4.7399999999999998E-002     7.7419537447553921E-010
  -4.6299999999999994E-002     1.1022971424523575E-009
  -4.5199999999999990E-002     5.2193005473100129E-010
  -4.4099999999999986E-002    -6.6746141946794069E-010
  -4.2999999999999997E-002    -1.4967672656851505E-009
  -4.1899999999999993E-002    -1.0719545251447471E-009
  -4.0799999999999989E-002     5.2411031070676017E-010
  -3.9699999999999985E-002     2.0173016590518955E-009
  -3.8599999999999995E-002     1.8408419233395534E-009
  -3.7499999999999992E-002    -3.9780337357520068E-010
  -3.6399999999999988E-002    -3.1490228202812887E-009
  -3.5299999999999984E-002    -3.8102214716673188E-009
  -3.4199999999999994E-002    -9.0268065244814011E-010
  -3.3099999999999991E-002     4.1666288197461654E-009
  -3.1999999999999987E-002     7.5225718987326218E-009
  -3.0899999999999997E-002     5.6026805417275227E-009
  -2.9799999999999993E-002    -1.6338347341715576E-009
  -2.8699999999999989E-002    -9.8139025794807822E-009
  -2.7599999999999986E-002    -1.2817303662870927E-008
  -2.6499999999999996E-002    -7.3660633148620036E-009
  -2.5399999999999992E-002     4.0040712967481795E-009
  -2.4299999999999988E-002     1.4230495004596833E-008
  -2.3199999999999985E-002     1.6633064703341915E-008
  -2.2099999999999995E-002     9.7495744810771612E-009
  -2.0999999999999991E-002    -1.7668252416669361E-009
  -1.9899999999999987E-002    -1.0949126938442078E-008
  -1.8799999999999983E-002    -1.3864749348613259E-008
  -1.7699999999999994E-002    -1.1983576797547357E-008
  -1.6599999999999990E-002    -9.5470156225019309E-009
  -1.5499999999999986E-002    -8.3460838240512203E-009
  -1.4399999999999996E-002    -4.9027089055186934E-009
  -1.3299999999999992E-002     6.6212102467488876E-009
  -1.2199999999999989E-002     2.7340341546278069E-008
  -1.1099999999999985E-002     4.8212559278226763E-008
  -9.9999999999999950E-003     5.2105864511986510E-008
  -8.8999999999999913E-003     2.4372267759531496E-008
  -7.7999999999999875E-003    -3.3778004393525407E-008
  -6.6999999999999837E-003    -9.8701910644649615E-008
  -5.5999999999999939E-003    -1.3188237346639653E-007
  -4.4999999999999901E-003    -1.0081988932597596E-007
  -3.3999999999999864E-003    -2.7049908979392967E-009
  -2.2999999999999826E-003     1.2471662103052950E-007
  -1.1999999999999927E-003     2.1615181822198792E-007
  -9.9999999999988987E-005     2.1305396558091161E-007
   1.0000000000000148E-003     1.0105451053732395E-007
   2.1000000000000185E-003    -7.4125999560692435E-008
   3.2000000000000084E-003    -2.2701274815517536E-007
   4.3000000000000121E-003    -2.8065281298950140E-007
   5.4000000000000159E-003    -2.1307668873760122E-007
   6.5000000000000058E-003    -6.9383787604238023E-008
   7.6000000000000234E-003     7.1437938231611042E-008
   8.7000000000000133E-003     1.5264782859958359E-007
   9.8000000000000032E-003     1.7661655249412433E-007
   1.0900000000000021E-002     1.9166867559761158E-007
   1.2000000000000011E-002     2.3610921573435917E-007
   1.3100000000000001E-002     2.8367873028400936E-007
   1.4200000000000018E-002     2.4052596359069867E-007
   1.5300000000000008E-002     9.6660555115590796E-009
   1.6400000000000026E-002    -4.1325395727653813E-007
   1.7500000000000016E-002    -8.8134999032263295E-007
   1.8600000000000005E-002    -1.1301216318315710E-006
   1.9700000000000023E-002    -9.0480358494460233E-007
   2.0800000000000013E-002    -1.2212626643304247E-007
   2.1900000000000003E-002     1.0235640957034775E-006
   2.3000000000000020E-002     2.0820448298763949E-006
   2.4100000000000010E-002     2.5111237391683972E-006
   2.5200000000000000E-002     1.9261219676991459E-006
   2.6300000000000018E-002     3.2600263466520119E-007
   2.7400000000000008E-002    -1.8212584791399422E-006
   2.8500000000000025E-002    -3.7043532756797504E-006
   2.9600000000000015E-002    -4.4827161218563560E-006
   3.0700000000000005E-002    -3.6641010865423596E-006
   3.1800000000000023E-002    -1.3642899148180732E-006
   3.2900000000000013E-002     1.6980360442175879E-006
   3.4000000000000002E-002     4.4931771299161483E-006
   3.5100000000000020E-002     6.1251780607562978E-006
   3.6200000000000010E-002     6.2009939938434400E-006
   3.7300000000000028E-002     4.9276973186351825E-006
   3.8400000000000017E-002     2.8903884867759189E-006
   3.9500000000000007E-002     6.4390548004666925E-007
   4.0600000000000025E-002    -1.6450417206215207E-006
   4.1700000000000015E-002    -4.3037075556640048E-006
   4.2800000000000005E-002    -7.9570017987862229E-006
   4.3900000000000022E-002    -1.3158211913832929E-005
   4.5000000000000012E-002    -2.0082119590369985E-005
   4.6100000000000002E-002    -2.8489497708505951E-005
   4.7200000000000020E-002    -3.8021193176973611E-005
   4.8300000000000010E-002    -4.8677527956897393E-005
   4.9400000000000027E-002    -6.1193786677904427E-005
   5.0500000000000017E-002    -7.7033510024193674E-005
   5.1600000000000007E-002    -9.7918011306319386E-005
   5.2700000000000025E-002    -1.2511169188655913E-004
   5.3800000000000014E-002    -1.5890898066572845E-004
   5.4900000000000004E-002    -1.9874417921528220E-004
   5.6000000000000022E-002    -2.4402416602242738E-004
   5.7100000000000012E-002    -2.9532628832384944E-004
   5.8200000000000002E-002    -3.5530599416233599E-004
   5.9300000000000019E-002    -4.2875096551142633E-004
   6.0400000000000009E-002    -5.2168953698128462E-004
   6.1500000000000027E-002    -6.4003234729170799E-004
   6.2600000000000017E-002    -7.8851979924365878E-004
   6.3700000000000007E-002    -9.7056990489363670E-004
   6.4800000000000024E-002    -1.1890837922692299E-003
   6.5900000000000014E-002    -1.4477276708930731E-003
   6.7000000000000004E-002    -1.7520154360681772E-003
   6.8100000000000022E-002    -2.1097385324537754E-003
   6.9200000000000012E-002    -2.5307561736553907E-003
   7.0300000000000029E-002    -3.0265452805906534E-003
   7.1400000000000019E-002    -3.6099639255553484E-003
   7.2500000000000009E-002    -4.2954320088028908E-003
   7.3600000000000027E-002    -5.0993571057915688E-003
   7.4700000000000016E-002    -6.0403859242796898E-003
   7.5800000000000006E-002    -7.1391286328434944E-003
   7.6900000000000024E-002    -8.4173539653420448E-003
   7.8000000000000014E-002    -9.8971156403422356E-003
   7.9100000000000004E-002    -1.1600494384765625E-002
   8.0200000000000021E-002    -1.3550437986850739E-002
   8.1300000000000011E-002    -1.5772568061947823E-002
   8.2400000000000029E-002    -1.8297087401151657E-002
   8.3500000000000019E-002    -2.1159600466489792E-002
   8.4600000000000009E-002    -2.4400006979703903E-002
   8.5700000000000026E-002    -2.8059670701622963E-002
   8.6800000000000016E-002    -3.2178189605474472E-002
   8.7900000000000006E-002    -3.6791373044252396E-002
   8.9000000000000024E-002    -4.1931524872779846E-002
   9.0100000000000013E-002    -4.7629721462726593E-002
   9.1200000000000003E-002    -5.3918473422527313E-002
   9.2300000000000021E-002    -6.0832906514406204E-002
   9.3400000000000011E-002    -6.8409562110900879E-002
   9.4500000000000028E-002    -7.6682992279529572E-002
   9.5600000000000018E-002    -8.5681200027465820E-002
   9.6700000000000008E-002    -9.5421686768531799E-002
   9.7800000000000026E-002   -0.10590951144695282
   9.8900000000000016E-002   -0.11713733524084091
  0.10000000000000001        -0.12908680737018585
  0.10110000000000002        -0.14173012971878052
  0.10220000000000001        -0.15503056347370148
  0.10330000000000003        -0.16894075274467468
  0.10440000000000002        -0.18339893221855164
  0.10550000000000001        -0.19832439720630646
  0.10660000000000003        -0.21361373364925385
  0.10770000000000002        -0.22913941740989685
  0.10880000000000001        -0.24475103616714478
  0.10990000000000003        -0.26027742028236389
  0.11100000000000002        -0.27552819252014160
  0.11210000000000001        -0.29029500484466553
  0.11320000000000002        -0.30435243248939514
  0.11430000000000001        -0.31745874881744385
  0.11540000000000003        -0.32935672998428345
  0.11650000000000002        -0.33977404236793518
  0.11760000000000001        -0.34842431545257568
  0.11870000000000003        -0.35500943660736084
  0.11980000000000002        -0.35922363400459290
  0.12090000000000001        -0.36076086759567261
  0.12200000000000003        -0.35932284593582153
  0.12310000000000001        -0.35462549328804016
  0.12420000000000003        -0.34640550613403320
  0.12530000000000002        -0.33442547917366028
  0.12640000000000001        -0.31847816705703735
  0.12750000000000003        -0.29839068651199341
  0.12860000000000002        -0.27402827143669128
  0.12970000000000001        -0.24530081450939178
  0.13080000000000003        -0.21216760575771332
  0.13190000000000002        -0.17464455962181091
  0.13300000000000001        -0.13281576335430145
  0.13410000000000000         -8.6836285889148712E-002
  0.13520000000000004         -3.6933295428752899E-002
  0.13630000000000003          1.6590956598520279E-002
  0.13740000000000002          7.3360197246074677E-002
  0.13850000000000001         0.13292764127254486
  0.13960000000000000         0.19478167593479156
  0.14070000000000005         0.25834980607032776
  0.14180000000000004         0.32300043106079102
  0.14290000000000003         0.38804692029953003
  0.14400000000000002         0.45275491476058960
  0.14510000000000001         0.51635020971298218
  0.14620000000000000         0.57802921533584595
  0.14730000000000004         0.63697230815887451
  0.14840000000000003         0.69235599040985107
  0.14950000000000002         0.74336498975753784
  0.15060000000000001         0.78920763731002808
  0.15170000000000000         0.82913255691528320
  0.15280000000000005         0.86244267225265503
  0.15390000000000004         0.88850724697113037
  0.15500000000000003         0.90677106380462646
  0.15610000000000002         0.91676360368728638
  0.15720000000000001         0.91810959577560425
  0.15830000000000000         0.91053968667984009
  0.15940000000000004         0.89390045404434204
  0.16050000000000003         0.86816054582595825
  0.16160000000000002         0.83341324329376221
  0.16270000000000001         0.78987795114517212
  0.16380000000000000         0.73790085315704346
  0.16490000000000005         0.67795431613922119
  0.16600000000000004         0.61063092947006226
  0.16710000000000003         0.53663402795791626
  0.16820000000000002         0.45676767826080322
  0.16930000000000001         0.37192460894584656
  0.17040000000000000         0.28307664394378662
  0.17150000000000004         0.19126372039318085
  0.17260000000000003          9.7576208412647247E-002
  0.17370000000000002          3.1380972359329462E-003
  0.17480000000000001         -9.0908505022525787E-002
  0.17590000000000000        -0.18342009186744690
  0.17700000000000005        -0.27326777577400208
  0.17810000000000004        -0.35935303568840027
  0.17920000000000003        -0.44062629342079163
  0.18030000000000002        -0.51610505580902100
  0.18140000000000001        -0.58489066362380981
  0.18250000000000000        -0.64617872238159180
  0.18360000000000004        -0.69926667213439941
  0.18470000000000003        -0.74356281757354736
  0.18580000000000002        -0.77859497070312500
  0.18690000000000001        -0.80402088165283203
  0.18800000000000000        -0.81963264942169189
  0.18910000000000005        -0.82535576820373535
  0.19020000000000004        -0.82124674320220947
  0.19130000000000003        -0.80749082565307617
  0.19240000000000002        -0.78440082073211670
  0.19350000000000001        -0.75241440534591675
  0.19460000000000005        -0.71208691596984863
  0.19570000000000004        -0.66407960653305054
  0.19680000000000003        -0.60914647579193115
  0.19790000000000002        -0.54812204837799072
  0.19900000000000001        -0.48191142082214355
  0.20010000000000000        -0.41147759556770325
  0.20120000000000005        -0.33782577514648438
  0.20230000000000004        -0.26198631525039673
  0.20340000000000003        -0.18499763309955597
  0.20450000000000002        -0.10789316892623901
  0.20560000000000000         -3.1692150980234146E-002
  0.20670000000000005          4.2609483003616333E-002
  0.20780000000000004         0.11405318230390549
  0.20890000000000003         0.18173541128635406
