 -0.12000000000000000          0.0000000000000000
 -0.11889999999999999          0.0000000000000000
 -0.11780000000000000          0.0000000000000000
 -0.11670000000000000          0.0000000000000000
 -0.11559999999999999          0.0000000000000000
 -0.11449999999999999          0.0000000000000000
 -0.11340000000000000          0.0000000000000000
 -0.11230000000000000          0.0000000000000000
 -0.11119999999999999          0.0000000000000000
 -0.11009999999999999          0.0000000000000000
 -0.10900000000000000         -4.0460151729964581E-041
 -0.10790000000000000         -1.3057523355697119E-028
 -0.10679999999999999         -6.2898305681925226E-028
 -0.10569999999999999          3.0531245481388993E-027
 -0.10460000000000000          3.1705718776329305E-026
 -0.10349999999999999          6.8582975454134671E-026
 -0.10239999999999999         -2.2987266262305184E-025
 -0.10130000000000000         -1.6834674314949187E-024
 -0.10020000000000000         -3.3394300442361651E-024
  -9.9099999999999994E-002     3.9897685522290903E-024
  -9.7999999999999990E-002     3.6858727469206042E-023
  -9.6899999999999986E-002     7.6621725247044703E-023
  -9.5799999999999996E-002    -1.8825610145090841E-023
  -9.4699999999999993E-002    -4.7895893071055140E-022
  -9.3599999999999989E-002    -1.1078928150600002E-021
  -9.2499999999999999E-002    -3.8080350524980200E-022
  -9.1399999999999995E-002     4.1800833124251414E-021
  -9.0299999999999991E-002     1.1503010281673659E-020
  -8.9200000000000002E-002     9.3669245940895190E-021
  -8.8099999999999984E-002    -2.3888053590280990E-020
  -8.6999999999999994E-002    -8.8733163573402984E-020
  -8.5899999999999990E-002    -1.1036129995342889E-019
  -8.4799999999999986E-002     6.5072398859124631E-020
  -8.3699999999999997E-002     5.0554725119093034E-019
  -8.2599999999999993E-002     8.6707403423131972E-019
  -8.1499999999999989E-002     2.6607939443471023E-019
  -8.0399999999999999E-002    -2.0235768070366772E-018
  -7.9299999999999995E-002    -4.9178927305017997E-018
  -7.8199999999999992E-002    -4.3523447962049603E-018
  -7.7100000000000002E-002     4.5282687417054121E-018
  -7.5999999999999984E-002     2.0402955747822136E-017
  -7.4899999999999994E-002     2.8636125921295918E-017
  -7.3799999999999991E-002     5.3313163598768930E-018
  -7.2699999999999987E-002    -5.8650109749993382E-017
  -7.1599999999999997E-002    -1.2464007762528060E-016
  -7.0499999999999993E-002    -1.0216438924211643E-016
  -6.9399999999999989E-002     8.5677170856559344E-017
  -6.8300000000000000E-002     3.8101704548488294E-016
  -6.7199999999999996E-002     5.2062874809018458E-016
  -6.6099999999999992E-002     1.6366382518235534E-016
  -6.5000000000000002E-002    -7.5271434626988951E-016
  -6.3899999999999985E-002    -1.6699073501823890E-015
  -6.2799999999999995E-002    -1.5194577816073722E-015
  -6.1699999999999991E-002     4.5308327038210180E-016
  -6.0599999999999994E-002     3.5566002894787927E-015
  -5.9499999999999990E-002     5.3111172313664159E-015
  -5.8399999999999994E-002     2.8809896583307360E-015
  -5.7299999999999990E-002    -4.0892455234154521E-015
  -5.6199999999999986E-002    -1.1477149051562001E-014
  -5.5099999999999996E-002    -1.2267976280567160E-014
  -5.3999999999999992E-002    -2.1445584616798164E-015
  -5.2899999999999989E-002     1.4699382661596743E-014
  -5.1799999999999985E-002     2.5654893248854240E-014
  -5.0699999999999995E-002     1.8586638779175504E-014
  -4.9599999999999991E-002    -5.8161098041924342E-015
  -4.8499999999999988E-002    -2.9996973871860799E-014
  -4.7399999999999998E-002    -3.1919349026970500E-014
  -4.6299999999999994E-002    -7.2689792553188956E-015
  -4.5199999999999990E-002     1.9572632563625392E-014
  -4.4099999999999986E-002     1.3984090442691135E-014
  -4.2999999999999997E-002    -2.8545630350584857E-014
  -4.1899999999999993E-002    -5.8094561062789025E-014
  -4.0799999999999989E-002    -1.7239061240699955E-015
  -3.9699999999999985E-002     1.5393043014278791E-013
  -3.8599999999999995E-002     2.9722012069400953E-013
  -3.7499999999999992E-002     2.3205393227630698E-013
  -3.6399999999999988E-002    -1.5561274599629849E-013
  -3.5299999999999984E-002    -7.1393851117442432E-013
  -3.4199999999999994E-002    -1.0108895057841144E-012
  -3.3099999999999991E-002    -5.9662252352071135E-013
  -3.1999999999999987E-002     5.7833365917439589E-013
  -3.0899999999999997E-002     1.9188682760795475E-012
  -2.9799999999999993E-002     2.4177105630017033E-012
  -2.8699999999999989E-002     1.3394259659735295E-012
  -2.7599999999999986E-002    -1.0893387971183160E-012
  -2.6499999999999996E-002    -3.5733165558438464E-012
  -2.5399999999999992E-002    -4.4663760537242615E-012
  -2.4299999999999988E-002    -2.9000545454651161E-012
  -2.3199999999999985E-002     5.2128960870186690E-013
  -2.2099999999999995E-002     4.0640203875788807E-012
  -2.0999999999999991E-002     6.0326097416075466E-012
  -1.9899999999999987E-002     5.8071399251789067E-012
  -1.8799999999999983E-002     3.8600329529953048E-012
  -1.7699999999999994E-002     8.0531718446486364E-013
  -1.6599999999999990E-002    -3.4276383814601033E-012
  -1.5499999999999986E-002    -9.1349254549573192E-012
  -1.4399999999999996E-002    -1.5161000926910730E-011
  -1.3299999999999992E-002    -1.7664206902743957E-011
  -1.2199999999999989E-002    -1.1355429617440741E-011
  -1.1099999999999985E-002     6.4389158067918291E-012
  -9.9999999999999950E-003     3.1304955155910093E-011
  -8.8999999999999913E-003     5.0824656983027299E-011
  -7.7999999999999875E-003     4.9683351183156598E-011
  -6.6999999999999837E-003     1.9164406173105042E-011
  -5.5999999999999939E-003    -3.4534462095564764E-011
  -4.4999999999999901E-003    -8.9294023564170897E-011
  -3.3999999999999864E-003    -1.1571048286196132E-010
  -2.2999999999999826E-003    -9.1791858836113052E-011
  -1.1999999999999927E-003    -1.6049328532818167E-011
  -9.9999999999988987E-005     8.8186152824588290E-011
   1.0000000000000148E-003     1.7981049982297012E-010
   2.1000000000000185E-003     2.1540177974621333E-010
   3.2000000000000084E-003     1.6682381864806222E-010
   4.3000000000000121E-003     3.4657818281912368E-011
   5.4000000000000159E-003    -1.4695117345200671E-010
   6.5000000000000058E-003    -3.1628608065938425E-010
   7.6000000000000234E-003    -4.0108852350506554E-010
   8.7000000000000133E-003    -3.4397229509150814E-010
   9.8000000000000032E-003    -1.2947672101133482E-010
   1.0900000000000021E-002     1.9772039561166208E-010
   1.2000000000000011E-002     5.3425802670762779E-010
   1.3100000000000001E-002     7.4481876222166028E-010
   1.4200000000000018E-002     7.0979522259758264E-010
   1.5300000000000008E-002     3.7891281778882653E-010
   1.6400000000000026E-002    -1.9048057575696950E-010
   1.7500000000000016E-002    -8.3012746676665635E-010
   1.8600000000000005E-002    -1.3021322908812985E-009
   1.9700000000000023E-002    -1.3782677221740433E-009
   2.0800000000000013E-002    -9.3379515231351491E-010
   2.1900000000000003E-002    -2.0942860293053044E-011
   2.3000000000000020E-002     1.1122944787446331E-009
   2.4100000000000010E-002     2.0772650266565792E-009
   2.5200000000000000E-002     2.4666106934745184E-009
   2.6300000000000018E-002     2.0079722329312459E-009
   2.7400000000000008E-002     6.9613231845602018E-010
   2.8500000000000025E-002    -1.1502824248668215E-009
   2.9600000000000015E-002    -2.9431406201043361E-009
   3.0700000000000005E-002    -3.9931018491757443E-009
   3.1800000000000023E-002    -3.7546135089882095E-009
   3.2900000000000013E-002    -2.0716921511618117E-009
   3.4000000000000002E-002     6.7505395717800047E-010
   3.5100000000000020E-002     3.6100558098443680E-009
   3.6200000000000010E-002     5.6264024550503168E-009
   3.7300000000000028E-002     5.8084741461072380E-009
   3.8400000000000017E-002     3.8531156043571254E-009
   3.9500000000000007E-002     2.8863311740613288E-010
   4.0600000000000025E-002    -3.6486234034079213E-009
   4.1700000000000015E-002    -6.4687180056926480E-009
   4.2800000000000005E-002    -7.0316454880981457E-009
   4.3900000000000022E-002    -5.0274597818140251E-009
   4.5000000000000012E-002    -1.1124151599863291E-009
   4.6100000000000002E-002     3.3478746441784527E-009
   4.7200000000000020E-002     6.7860388419670608E-009
   4.8300000000000010E-002     7.9520914297864579E-009
   4.9400000000000027E-002     6.2523195509809903E-009
   5.0500000000000017E-002     1.8596545414686230E-009
   5.1600000000000007E-002    -4.3241539238196110E-009
   5.2700000000000025E-002    -1.0753552714961113E-008
   5.3800000000000014E-002    -1.5362839889123052E-008
   5.4900000000000004E-002    -1.5837731126567702E-008
   5.6000000000000022E-002    -1.0168354158679381E-008
   5.7100000000000012E-002     2.5135642456334296E-009
   5.8200000000000002E-002     2.1045019948931670E-008
   5.9300000000000019E-002     4.1712372222950509E-008
   6.0400000000000009E-002     5.8513819567456801E-008
   6.1500000000000027E-002     6.4336028060556963E-008
   6.2600000000000017E-002     5.2723610366459816E-008
   6.3700000000000007E-002     1.9521413818779964E-008
   6.4800000000000024E-002    -3.6422193261391058E-008
   6.5900000000000014E-002    -1.1396771526507162E-007
   6.7000000000000004E-002    -2.1164359509386377E-007
   6.8100000000000022E-002    -3.3005119348675109E-007
   6.9200000000000012E-002    -4.7366214062098378E-007
   7.0300000000000029E-002    -6.5126010895261035E-007
   7.1400000000000019E-002    -8.7500512790946420E-007
   7.2500000000000009E-002    -1.1588376764849371E-006
   7.3600000000000027E-002    -1.5172743133008652E-006
   7.4700000000000016E-002    -1.9653837171064805E-006
   7.5800000000000006E-002    -2.5200668005711548E-006
   7.6900000000000024E-002    -3.2021005154095414E-006
   7.8000000000000014E-002    -4.0381487451671946E-006
   7.9100000000000004E-002    -5.0621861191761978E-006
   8.0200000000000021E-002    -6.3163220147549643E-006
   8.1300000000000011E-002    -7.8514549386461692E-006
   8.2400000000000029E-002    -9.7282982096666694E-006
   8.3500000000000019E-002    -1.2019034329570031E-005
   8.4600000000000009E-002    -1.4809461390542714E-005
   8.5700000000000026E-002    -1.8201213606518447E-005
   8.6800000000000016E-002    -2.2313737645165183E-005
   8.7900000000000006E-002    -2.7285970645609875E-005
   8.9000000000000024E-002    -3.3278178307230752E-005
   9.0100000000000013E-002    -4.0474544221073269E-005
   9.1200000000000003E-002    -4.9086971557703515E-005
   9.2300000000000021E-002    -5.9360099839983206E-005
   9.3400000000000011E-002    -7.1577029302722625E-005
   9.4500000000000028E-002    -8.6064974311746877E-005
   9.5600000000000018E-002    -1.0320024739486154E-004
   9.6700000000000008E-002    -1.2341265392025170E-004
   9.7800000000000026E-002    -1.4718949387316973E-004
   9.8900000000000016E-002    -1.7508016026114744E-004
  0.10000000000000001         -2.0770104310942805E-004
  0.10110000000000002         -2.4574092822151591E-004
  0.10220000000000001         -2.8996632318015008E-004
  0.10330000000000003         -3.4122596844102509E-004
  0.10440000000000002         -4.0045485366139414E-004
  0.10550000000000001         -4.6867821947675663E-004
  0.10660000000000003         -5.4701586486776593E-004
  0.10770000000000002         -6.3668627990415424E-004
  0.10880000000000001         -7.3900999268523512E-004
  0.10990000000000003         -8.5540942382075096E-004
  0.11100000000000002         -9.8740588873633627E-004
  0.11210000000000001         -1.1366127291695300E-003
  0.11320000000000002         -1.3047268148512817E-003
  0.11430000000000001         -1.4935173094273951E-003
  0.11540000000000003         -1.7048155423255301E-003
  0.11650000000000002         -1.9405019702391575E-003
  0.11760000000000001         -2.2024912759663648E-003
  0.11870000000000003         -2.4927135091277210E-003
  0.11980000000000002         -2.8130861464890381E-003
  0.12090000000000001         -3.1654827762397984E-003
  0.12200000000000003         -3.5516961943361370E-003
  0.12310000000000001         -3.9733997546139944E-003
  0.12420000000000003         -4.4321054592732596E-003
  0.12530000000000002         -4.9291229806844852E-003
  0.12640000000000001         -5.4655144922440193E-003
  0.12750000000000003         -6.0420488007372087E-003
  0.12860000000000002         -6.6591463983064914E-003
  0.12970000000000001         -7.3168263770646480E-003
  0.13080000000000003         -8.0146444961435859E-003
  0.13190000000000002         -8.7516382336624392E-003
  0.13300000000000001         -9.5262778922924046E-003
  0.13410000000000000         -1.0336417704821564E-002
  0.13520000000000004         -1.1179254390300328E-002
  0.13630000000000003         -1.2051282450557843E-002
  0.13740000000000002         -1.2948260642589306E-002
  0.13850000000000001         -1.3865178450943290E-002
  0.13960000000000000         -1.4796244911850834E-002
  0.14070000000000005         -1.5734881162644855E-002
  0.14180000000000004         -1.6673728823663310E-002
  0.14290000000000003         -1.7604684457184477E-002
  0.14400000000000002         -1.8518924713136441E-002
  0.14510000000000001         -1.9406959414483872E-002
  0.14620000000000000         -2.0258678123356747E-002
  0.14730000000000004         -2.1063435822727204E-002
  0.14840000000000003         -2.1810159087183069E-002
  0.14950000000000002         -2.2487459704281940E-002
  0.15060000000000001         -2.3083765059711644E-002
  0.15170000000000000         -2.3587469011547325E-002
  0.15280000000000005         -2.3987077176573075E-002
  0.15390000000000004         -2.4271372705700223E-002
  0.15500000000000003         -2.4429589509966213E-002
  0.15610000000000002         -2.4451591074468933E-002
  0.15720000000000001         -2.4328045547010735E-002
  0.15830000000000000         -2.4050597101452163E-002
  0.15940000000000004         -2.3612052202226889E-002
  0.16050000000000003         -2.3006556555630883E-002
  0.16160000000000002         -2.2229775786401878E-002
  0.16270000000000001         -2.1279035136105583E-002
  0.16380000000000000         -2.0153434947134917E-002
  0.16490000000000005         -1.8853930756451434E-002
  0.16600000000000004         -1.7383413389326745E-002
  0.16710000000000003         -1.5746776014567879E-002
  0.16820000000000002         -1.3950958848000867E-002
  0.16930000000000001         -1.2004947289825605E-002
  0.17040000000000000         -9.9197179079065102E-003
  0.17150000000000004         -7.7081462368376406E-003
  0.17260000000000003         -5.3849034011369187E-003
  0.17370000000000002         -2.9663303866985470E-003
  0.17480000000000001         -4.7027925029404421E-004
  0.17590000000000000          2.0840791985394153E-003
  0.17700000000000005          4.6764840371910695E-003
  0.17810000000000004          7.2858366183942919E-003
  0.17920000000000003          9.8904613405474771E-003
  0.18030000000000002          1.2468378059567126E-002
  0.18140000000000001          1.4997581951321507E-002
  0.18250000000000000          1.7456345260144841E-002
  0.18360000000000004          1.9823502749206415E-002
  0.18470000000000003          2.2078745067121583E-002
  0.18580000000000002          2.4202866479756630E-002
  0.18690000000000001          2.6178028434517362E-002
  0.18800000000000000          2.7987996116283085E-002
  0.18910000000000005          2.9618348926308453E-002
  0.19020000000000004          3.1056670472028685E-002
  0.19130000000000003          3.2292705029252119E-002
  0.19240000000000002          3.3318463712933705E-002
  0.19350000000000001          3.4128289669755223E-002
  0.19460000000000005          3.4718897193673430E-002
  0.19570000000000004          3.5089392215016696E-002
  0.19680000000000003          3.5241242498162621E-002
  0.19790000000000002          3.5178232938054430E-002
  0.19900000000000001          3.4906323999169674E-002
  0.20010000000000000          3.4433521330359741E-002
  0.20120000000000005          3.3769715577367056E-002
  0.20230000000000004          3.2926511019471319E-002
  0.20340000000000003          3.1917039304974616E-002
  0.20450000000000002          3.0755737796428637E-002
  0.20560000000000000          2.9458109289410429E-002
  0.20670000000000005          2.8040459379556366E-002
  0.20780000000000004          2.6519637554886392E-002
  0.20890000000000003          2.4912819266321565E-002
