 -0.12000000000000000          0.0000000000000000
 -0.11889999999999999          0.0000000000000000
 -0.11780000000000000          0.0000000000000000
 -0.11670000000000000          0.0000000000000000
 -0.11559999999999999          0.0000000000000000
 -0.11449999999999999          0.0000000000000000
 -0.11340000000000000          0.0000000000000000
 -0.11230000000000000          0.0000000000000000
 -0.11119999999999999          0.0000000000000000
 -0.11009999999999999          0.0000000000000000
 -0.10900000000000000         -2.5097274587796167E-027
 -0.10790000000000000          2.5097269195192323E-026
 -0.10679999999999999          4.0155630712307717E-025
 -0.10569999999999999         -1.7066143853917636E-024
 -0.10460000000000000          0.0000000000000000
 -0.10349999999999999          0.0000000000000000
 -0.10239999999999999         -1.9274702347477251E-023
 -0.10130000000000000          0.0000000000000000
 -0.10020000000000000          2.3129644079150150E-022
  -9.9099999999999994E-002     7.1958892129721601E-022
  -9.7999999999999990E-002    -3.7007430526640240E-021
  -9.6899999999999986E-002     1.6447746339761241E-021
  -9.5799999999999996E-002     4.9343238009541764E-021
  -9.4699999999999993E-002    -3.2895492679522482E-021
  -9.3599999999999989E-002    -1.3158197071808993E-020
  -9.2499999999999999E-002     1.9737295203816705E-020
  -9.1399999999999995E-002     1.1184468036103462E-019
  -9.0299999999999991E-002    -1.0526557657447194E-019
  -8.9200000000000002E-002    -2.1053115314894388E-019
  -8.8099999999999984E-002     3.1579672326106729E-019
  -8.6999999999999994E-002     0.0000000000000000
  -8.5899999999999990E-002     1.6842492251915511E-018
  -8.4799999999999986E-002    -3.3684984503831021E-018
  -8.3699999999999997E-002     8.4212461259577553E-019
  -8.2599999999999993E-002     2.5263737860885383E-018
  -8.1499999999999989E-002     3.3684984503831021E-018
  -8.0399999999999999E-002     1.3473993801532408E-017
  -7.9299999999999995E-002    -1.3473993801532408E-017
  -7.8199999999999992E-002    -1.3473993801532408E-017
  -7.7100000000000002E-002     0.0000000000000000
  -7.5999999999999984E-002     8.0843961154833225E-017
  -7.4899999999999994E-002    -1.3473993966968531E-016
  -7.3799999999999991E-002    -8.0843961154833225E-017
  -7.2699999999999987E-002     0.0000000000000000
  -7.1599999999999997E-002     1.0779195041225927E-016
  -7.0499999999999993E-002     4.3116780164903707E-016
  -6.9399999999999989E-002     2.1558390082451853E-016
  -6.8300000000000000E-002    -1.2935033784773316E-015
  -6.7199999999999996E-002    -8.6233560329807414E-016
  -6.6099999999999992E-002     4.3116780164903707E-016
  -6.5000000000000002E-002     1.4012953090372562E-015
  -6.3899999999999985E-002     4.3116780694299299E-015
  -6.2799999999999995E-002    -4.3116780694299299E-015
  -6.1699999999999991E-002    -8.6233560329807414E-016
  -6.0599999999999994E-002    -1.2935033784773316E-015
  -5.9499999999999990E-002    -5.1740135139093264E-015
  -5.8399999999999994E-002    -3.4493424131922966E-015
  -5.7299999999999990E-002     2.0696054055637306E-014
  -5.6199999999999986E-002     6.8986848263845931E-015
  -5.5099999999999996E-002     1.7246712065961483E-015
  -5.3999999999999992E-002    -1.3797369652769186E-014
  -5.2899999999999989E-002    -2.7594739305538372E-014
  -5.1799999999999985E-002    -2.0696054055637306E-014
  -5.0699999999999995E-002     1.9402551735951158E-015
  -4.9599999999999991E-002     9.6581590110483145E-014
  -4.8499999999999988E-002     1.3797369822175776E-013
  -4.7399999999999998E-002    -5.5189478611076745E-014
  -4.6299999999999994E-002    -2.2075791444430698E-013
  -4.5199999999999990E-002    -2.6215002933184517E-013
  -4.4099999999999986E-002    -1.1037895722215349E-013
  -4.2999999999999997E-002     1.6556843244509845E-013
  -4.1899999999999993E-002     7.1746319822707516E-013
  -4.0799999999999989E-002     8.0024745510720585E-013
  -3.9699999999999985E-002     2.2075791444430698E-013
  -3.8599999999999995E-002    -1.2141685226674248E-012
  -3.7499999999999992E-002    -2.1523895946812255E-012
  -3.6399999999999988E-002    -1.6280895902276438E-012
  -3.5299999999999984E-002     6.6227372978039378E-013
  -3.4199999999999994E-002     4.4151583430962482E-012
  -3.3099999999999991E-002     5.2981898382431503E-012
  -3.1999999999999987E-002     1.3245474595607876E-012
  -3.0899999999999997E-002    -6.2916004871238496E-012
  -2.9799999999999993E-002    -1.1700169479100797E-011
  -2.8699999999999989E-002    -7.7265268835779999E-012
  -2.7599999999999986E-002     6.1812217670709213E-012
  -2.6499999999999996E-002     2.3014012570654607E-011
  -2.5399999999999992E-002     2.4724887068283685E-011
  -2.4299999999999988E-002     8.8303165777722792E-013
  -2.3199999999999985E-002    -4.1502488945521776E-011
  -2.2099999999999995E-002    -6.3578281528364755E-011
  -2.0999999999999991E-002    -2.8477770488977150E-011
  -1.9899999999999987E-002     5.9163118848459817E-011
  -1.8799999999999983E-002     1.3422081501790473E-010
  -1.7699999999999994E-002     1.1302805219548517E-010
  -1.6599999999999990E-002    -4.1502488945521776E-011
  -1.5499999999999986E-002    -2.4018462219110859E-010
  -1.4399999999999996E-002    -3.0376290371947334E-010
  -1.3299999999999992E-002    -8.8303163392478012E-011
  -1.2199999999999989E-002     3.4614841548652464E-010
  -1.1099999999999985E-002     6.2518640264741521E-010
  -9.9999999999999950E-003     4.2032308189554612E-010
  -8.8999999999999913E-003    -3.1789140764182378E-010
  -7.7999999999999875E-003    -1.0384452187039983E-009
  -6.6999999999999837E-003    -1.0737665201432378E-009
  -5.5999999999999939E-003    -4.7683711146273566E-011
  -4.4999999999999901E-003     1.4552361538022751E-009
  -3.3999999999999864E-003     2.1334045641197008E-009
  -2.2999999999999826E-003     1.0172525044538361E-009
  -1.1999999999999927E-003    -1.5682641851810786E-009
  -9.9999999999988987E-005    -3.6522189716947651E-009
   1.0000000000000148E-003    -2.9387292599380999E-009
   2.1000000000000185E-003     9.0422441756388139E-010
   3.2000000000000084E-003     5.2699329344818580E-009
   4.3000000000000121E-003     6.1282396934814187E-009
   5.4000000000000159E-003     1.3210154081733094E-009
   6.5000000000000058E-003    -6.4143419464812723E-009
   7.6000000000000234E-003    -1.0652893678297914E-008
   8.7000000000000133E-003    -5.9904867732996081E-009
   9.8000000000000032E-003     6.0558309478153660E-009
   1.0900000000000021E-002     1.6346682230050646E-008
   1.2000000000000011E-002     1.4269791570598045E-008
   1.3100000000000001E-002    -2.2605610716652791E-009
   1.4200000000000018E-002    -2.2167625957081327E-008
   1.5300000000000008E-002    -2.7324531970407406E-008
   1.6400000000000026E-002    -8.0815061309635894E-009
   1.7500000000000016E-002     2.4837914835984520E-008
   1.8600000000000005E-002     4.4391768483365013E-008
   1.9700000000000023E-002     2.7887905318380035E-008
   2.0800000000000013E-002    -1.9440825838046294E-008
   2.1900000000000003E-002    -6.1600289313901158E-008
   2.3000000000000020E-002    -5.7474764503240294E-008
   2.4100000000000010E-002     1.4128506142796482E-009
   2.5200000000000000E-002     7.4315941844815825E-008
   2.6300000000000018E-002     9.5904304941996088E-008
   2.7400000000000008E-002     3.4360528644583610E-008
   2.8500000000000025E-002    -7.4259432381040824E-008
   2.9600000000000015E-002    -1.4185020802415238E-007
   3.0700000000000005E-002    -9.9309275469749991E-008
   3.1800000000000023E-002     4.2498548680214299E-008
   3.2900000000000013E-002     1.8129699697055912E-007
   3.4000000000000002E-002     1.9666880746171955E-007
   3.5100000000000020E-002     5.2897128455242637E-008
   3.6200000000000010E-002    -1.6657509149808902E-007
   3.7300000000000028E-002    -2.9715076266256801E-007
   3.8400000000000017E-002    -2.1995259658069699E-007
   3.9500000000000007E-002     5.4366491752944057E-008
   4.0600000000000025E-002     3.3727570780683891E-007
   4.1700000000000015E-002     3.8738951957384415E-007
   4.2800000000000005E-002     1.5128804875530477E-007
   4.3900000000000022E-002    -2.6004929054579407E-007
   4.5000000000000012E-002    -5.2072022072024993E-007
   4.6100000000000002E-002    -4.3154111040166754E-007
   4.7200000000000020E-002     3.1195742877798693E-008
   4.8300000000000010E-002     6.2210642681748141E-007
   4.9400000000000027E-002     8.3279070395292365E-007
   5.0500000000000017E-002     4.0780520293992595E-007
   5.1600000000000007E-002    -4.7652628154537524E-007
   5.2700000000000025E-002    -1.2360748087303364E-006
   5.3800000000000014E-002    -1.4123985465630540E-006
   5.4900000000000004E-002    -1.9712092580448370E-007
   5.6000000000000022E-002     1.5480321735594771E-006
   5.7100000000000012E-002     2.5951239877031185E-006
   5.8200000000000002E-002     1.4666519518868881E-006
   5.9300000000000019E-002    -1.2586804132297402E-006
   6.0400000000000009E-002    -3.0562785013898974E-006
   6.1500000000000027E-002    -3.4722218060778687E-006
   6.2600000000000017E-002    -1.3310183248904650E-006
   6.3700000000000007E-002     2.2714116312272381E-006
   6.4800000000000024E-002     7.7980312198633328E-006
   6.5900000000000014E-002     7.1397557803720701E-006
   6.7000000000000004E-002     5.2083328228036407E-007
   6.8100000000000022E-002    -1.2934026017319411E-005
   6.9200000000000012E-002    -1.7795136955101043E-005
   7.0300000000000029E-002    -2.5318283860542579E-006
   7.1400000000000019E-002     1.8547450963524170E-005
   7.2500000000000009E-002     2.5376153644174337E-005
   7.3600000000000027E-002     7.9861101767164655E-006
   7.4700000000000016E-002    -2.8935181035194546E-005
   7.5800000000000006E-002    -4.1840270569082350E-005
   7.6900000000000024E-002    -3.8194439184735529E-006
   7.8000000000000014E-002     4.1724531911313534E-005
   7.9100000000000004E-002     4.7164347051875666E-005
   8.0200000000000021E-002     1.3194442544772755E-005
   8.1300000000000011E-002    -3.8310179661493748E-005
   8.2400000000000029E-002    -5.5208325647981837E-005
   8.3500000000000019E-002    -4.5949069317430258E-005
   8.4600000000000009E-002     1.6898145986488089E-005
   8.5700000000000026E-002     7.3379618697799742E-005
   8.6800000000000016E-002     5.3240732086123899E-005
   8.7900000000000006E-002     5.3240732995618600E-006
   8.9000000000000024E-002    -2.4999997549457476E-005
   9.0100000000000013E-002    -1.6666665032971650E-005
   9.1200000000000003E-002    -1.8055552573059686E-005
   9.2300000000000021E-002    -2.7314810722600669E-005
   9.3400000000000011E-002    -7.1759248385205865E-005
   9.4500000000000028E-002    -2.2222218831302598E-005
   9.5600000000000018E-002     1.4907405420672148E-004
   9.6700000000000008E-002     1.6944442177191377E-004
   9.7800000000000026E-002    -1.2037035048706457E-005
   9.8900000000000016E-002    -1.3796293933410197E-004
  0.10000000000000001         -9.6296280389651656E-005
  0.10110000000000002          1.2962961591256317E-005
  0.10220000000000001         -1.3148145808372647E-004
  0.10330000000000003         -1.0555554035818204E-004
  0.10440000000000002         -7.9629622632637620E-005
  0.10550000000000001          2.8703699354082346E-004
  0.10660000000000003          6.0370360733941197E-004
  0.10770000000000002          2.4444441078230739E-004
  0.10880000000000001         -3.8888884591870010E-004
  0.10990000000000003         -9.8518503364175558E-004
  0.11100000000000002         -4.4444439117796719E-004
  0.11210000000000001          2.6296291616745293E-004
  0.11320000000000002          5.1851844182237983E-004
  0.11430000000000001          6.0740730259567499E-004
  0.11540000000000003          7.0370362664107233E-005
  0.11650000000000002         -3.1851849053055048E-004
  0.11760000000000001         -4.7407401143573225E-004
  0.11870000000000003          4.0740735130384564E-004
  0.11980000000000002          7.3333323234692216E-004
  0.12090000000000001         -9.6296280389651656E-005
  0.12200000000000003         -2.4444441078230739E-004
  0.12310000000000001         -1.0296294931322336E-003
  0.12420000000000003         -6.5185176208615303E-004
  0.12530000000000002          5.9259252157062292E-004
  0.12640000000000001          1.5777775552123785E-003
  0.12750000000000003          1.6074072336778045E-003
  0.12860000000000002         -1.3333332026377320E-004
  0.12970000000000001         -3.4222218673676252E-003
  0.13080000000000003         -2.6666664052754641E-003
  0.13190000000000002         -5.9259251429466531E-005
  0.13300000000000001          2.5037033483386040E-003
  0.13410000000000000          3.5999994724988937E-003
  0.13520000000000004          8.5925916209816933E-004
  0.13630000000000003         -2.0148146431893110E-003
  0.13740000000000002         -3.6296290345489979E-003
  0.13850000000000001         -1.1703702621161938E-003
  0.13960000000000000          3.8074068725109100E-003
  0.14070000000000005          4.3703699484467506E-003
  0.14180000000000004          9.0370356338098645E-004
  0.14290000000000003         -4.0148142725229263E-003
  0.14400000000000002         -5.8222212828695774E-003
  0.14510000000000001         -7.9999992158263922E-004
  0.14620000000000000          3.7703698035329580E-003
  0.14730000000000004          5.5999993346631527E-003
  0.14840000000000003          1.1481479741632938E-003
  0.14950000000000002         -5.2666659466922283E-003
  0.15060000000000001         -6.4962953329086304E-003
  0.15170000000000000         -1.2814813526347280E-003
  0.15280000000000005          5.1111103966832161E-003
  0.15390000000000004          6.5148137509822845E-003
  0.15500000000000003          2.2814811673015356E-003
  0.15610000000000002         -3.0629625543951988E-003
  0.15720000000000001         -4.0888884104788303E-003
  0.15830000000000000         -8.4768509259447455E-004
  0.15940000000000004          2.2319441195577383E-003
  0.16050000000000003          1.9981479272246361E-003
  0.16160000000000002         -9.4074063235893846E-004
  0.16270000000000001         -2.9777772724628448E-003
  0.16380000000000000         -2.4185182992368937E-003
  0.16490000000000005          1.1037035146728158E-003
  0.16600000000000004          3.9333328604698181E-003
  0.16710000000000003          3.2296292483806610E-003
  0.16820000000000002         -5.0370366079732776E-004
  0.16930000000000001         -3.5703699104487896E-003
  0.17040000000000000         -4.1407402604818344E-003
  0.17150000000000004          2.0592589862644672E-003
  0.17260000000000003          4.8592584207653999E-003
  0.17370000000000002          1.6888886457309127E-003
  0.17480000000000001         -3.0074070673435926E-003
  0.17590000000000000         -5.4370365105569363E-003
  0.17700000000000005         -4.0592588484287262E-003
  0.17810000000000004          1.6444441862404346E-003
  0.17920000000000003          6.3259252347052097E-003
  0.18030000000000002          3.5407403483986855E-003
  0.18140000000000001         -2.8296292293816805E-003
  0.18250000000000000         -4.6222214587032795E-003
  0.18360000000000004         -2.9037033673375845E-003
  0.18470000000000003          1.3333332026377320E-003
  0.18580000000000002          7.3185176588594913E-003
  0.18690000000000001          6.2666656449437141E-003
  0.18800000000000000          2.9629625714733265E-005
  0.18910000000000005         -3.0518514104187489E-003
  0.19020000000000004         -6.3999993726611137E-003
  0.19130000000000003         -4.3037030845880508E-003
  0.19240000000000002         -5.9259251429466531E-005
  0.19350000000000001          3.6888883914798498E-003
  0.19460000000000005          3.7777773104608059E-003
  0.19570000000000004          2.1481479052454233E-003
  0.19680000000000003         -8.6666655261069536E-004
  0.19790000000000002         -2.8518515173345804E-003
  0.19900000000000001         -2.3777773603796959E-003
  0.20010000000000000         -8.6666655261069536E-004
  0.20120000000000005          4.8888882156461477E-004
  0.20230000000000004          1.1888886801898479E-003
  0.20340000000000003          5.4814806208014488E-004
  0.20450000000000002          4.1666661854833364E-004
  0.20560000000000000          1.0148147121071815E-003
  0.20670000000000005          1.3111109146848321E-003
  0.20780000000000004          7.0833321660757065E-004
  0.20890000000000003         -4.6574068255722523E-004
