 -0.12000000000000000          0.0000000000000000
 -0.11889999999999999          0.0000000000000000
 -0.11780000000000000          0.0000000000000000
 -0.11670000000000000          0.0000000000000000
 -0.11559999999999999          0.0000000000000000
 -0.11449999999999999          0.0000000000000000
 -0.11340000000000000         -6.9071125500998892E-014
 -0.11230000000000000         -9.9111962127002018E-014
 -0.11119999999999999          1.2544298282415878E-012
 -0.11009999999999999          5.4631676786598415E-012
 -0.10900000000000000          5.1542901891021842E-012
 -0.10790000000000000         -2.3280247521406672E-011
 -0.10679999999999999         -8.7432651396657235E-011
 -0.10569999999999999         -9.3943984535993508E-011
 -0.10460000000000000          1.6579915218528640E-010
 -0.10349999999999999          7.3377703913024561E-010
 -0.10239999999999999          9.6529173543302704E-010
 -0.10130000000000000         -4.6200443470922892E-010
 -0.10020000000000000         -4.0020182723310427E-009
  -9.9099999999999994E-002    -6.6822232192009778E-009
  -9.7999999999999990E-002    -1.9446602106398814E-009
  -9.6899999999999986E-002     1.4142768733904632E-008
  -9.5799999999999996E-002     3.2254451554081243E-008
  -9.4699999999999993E-002     2.6807981612364529E-008
  -9.3599999999999989E-002    -2.5160574068650021E-008
  -9.2499999999999999E-002    -1.0697902297351902E-007
  -9.1399999999999995E-002    -1.4201697240423528E-007
  -9.0299999999999991E-002    -3.5444166712750302E-008
  -8.9200000000000002E-002     2.2039857583422418E-007
  -8.8099999999999984E-002     4.5902163492428372E-007
  -8.6999999999999994E-002     3.9550522501485830E-007
  -8.5899999999999990E-002    -1.3569552947956254E-007
  -8.4799999999999986E-002    -9.1411226321724826E-007
  -8.3699999999999997E-002    -1.3229189335106639E-006
  -8.2599999999999993E-002    -7.5550354949882603E-007
  -8.1499999999999989E-002     7.7716669011351769E-007
  -8.0399999999999999E-002     2.3774584860802861E-006
  -7.9299999999999995E-002     2.7459561806608690E-006
  -7.8199999999999992E-002     1.2106344229323440E-006
  -7.7100000000000002E-002    -1.5420482668559998E-006
  -7.5999999999999984E-002    -3.8192029023775831E-006
  -7.4899999999999994E-002    -4.2241322262270842E-006
  -7.3799999999999991E-002    -2.7503019737196155E-006
  -7.2699999999999987E-002    -5.0428809572622413E-007
  -7.1599999999999997E-002     1.7644177887632395E-006
  -7.0499999999999993E-002     4.6269160520751029E-006
  -6.9399999999999989E-002     8.8273527580895461E-006
  -6.8300000000000000E-002     1.2647626135731116E-005
  -6.7199999999999996E-002     1.0880460649786983E-005
  -6.6099999999999992E-002    -1.7582749478606274E-006
  -6.5000000000000002E-002    -2.3930351744638756E-005
  -6.3899999999999985E-002    -4.3560212361626327E-005
  -6.2799999999999995E-002    -4.2527943151071668E-005
  -6.1699999999999991E-002    -1.0066476534120739E-005
  -6.0599999999999994E-002     4.4202315621078014E-005
  -5.9499999999999990E-002     8.9954875875264406E-005
  -5.8399999999999994E-002     9.3306654889602214E-005
  -5.7299999999999990E-002     4.1667844925541431E-005
  -5.6199999999999986E-002    -4.2777759517775849E-005
  -5.5099999999999996E-002    -1.1425931734265760E-004
  -5.3999999999999992E-002    -1.3368554937187582E-004
  -5.2899999999999989E-002    -9.5267219876404852E-005
  -5.1799999999999985E-002    -2.7323671019985341E-005
  -5.0699999999999995E-002     3.4378506825305521E-005
  -4.9599999999999991E-002     7.7728793257847428E-005
  -4.8499999999999988E-002     1.2007852637907490E-004
  -4.7399999999999998E-002     1.7926142027135938E-004
  -4.6299999999999994E-002     2.3334704746957868E-004
  -4.5199999999999990E-002     2.1038710838183761E-004
  -4.4099999999999986E-002     3.2788440876174718E-005
  -4.2999999999999997E-002    -3.0265105306170881E-004
  -4.1899999999999993E-002    -6.6735333530232310E-004
  -4.0799999999999989E-002    -8.2649284740909934E-004
  -3.9699999999999985E-002    -5.6232826318591833E-004
  -3.8599999999999995E-002     1.5951922978274524E-004
  -3.7499999999999992E-002     1.0855803266167641E-003
  -3.6399999999999988E-002     1.7275073332712054E-003
  -3.5299999999999984E-002     1.5912923263385892E-003
  -3.4199999999999994E-002     4.8941705608740449E-004
  -3.3099999999999991E-002    -1.2411648640409112E-003
  -3.1999999999999987E-002    -2.7843150310218334E-003
  -3.0899999999999997E-002    -3.2005382236093283E-003
  -2.9799999999999993E-002    -1.9527303520590067E-003
  -2.8699999999999989E-002     6.8475486477836967E-004
  -2.7599999999999986E-002     3.6137111019343138E-003
  -2.6499999999999996E-002     5.3827478550374508E-003
  -2.5399999999999992E-002     4.9355681985616684E-003
  -2.4299999999999988E-002     2.2196548525243998E-003
  -2.3199999999999985E-002    -1.7346491804346442E-003
  -2.2099999999999995E-002    -5.3679775446653366E-003
  -2.0999999999999991E-002    -7.4916342273354530E-003
  -1.9899999999999987E-002    -7.9997377470135689E-003
  -1.8799999999999983E-002    -7.9360287636518478E-003
  -1.7699999999999994E-002    -8.8347187265753746E-003
  -1.6599999999999990E-002    -1.1711956001818180E-002
  -1.5499999999999986E-002    -1.6335519030690193E-002
  -1.4399999999999996E-002    -2.1272726356983185E-002
  -1.3299999999999992E-002    -2.4767575785517693E-002
  -1.2199999999999989E-002    -2.5982348248362541E-002
  -1.1099999999999985E-002    -2.5864642113447189E-002
  -9.9999999999999950E-003    -2.7048245072364807E-002
  -8.8999999999999913E-003    -3.2715331763029099E-002
  -7.7999999999999875E-003    -4.4965535402297974E-002
  -6.6999999999999837E-003    -6.3601478934288025E-002
  -5.5999999999999939E-003    -8.6107097566127777E-002
  -4.4999999999999901E-003   -0.10898305475711823
  -3.3999999999999864E-003   -0.12982498109340668
  -2.2999999999999826E-003   -0.14903187751770020
  -1.1999999999999927E-003   -0.17014905810356140
  -9.9999999999988987E-005   -0.19855868816375732
   1.0000000000000148E-003   -0.23916822671890259
   2.1000000000000185E-003   -0.29433640837669373
   3.2000000000000084E-003   -0.36317592859268188
   4.3000000000000121E-003   -0.44261881709098816
   5.4000000000000159E-003   -0.52965557575225830
   6.5000000000000058E-003   -0.62355834245681763
   7.6000000000000234E-003   -0.72695690393447876
   8.7000000000000133E-003   -0.84531223773956299
   9.8000000000000032E-003   -0.98516541719436646
   1.0900000000000021E-002    -1.1521155834197998
   1.2000000000000011E-002    -1.3495036363601685
   1.3100000000000001E-002    -1.5782833099365234
   1.4200000000000018E-002    -1.8379923105239868
   1.5300000000000008E-002    -2.1281828880310059
   1.6400000000000026E-002    -2.4496610164642334
   1.7500000000000016E-002    -2.8050587177276611
   1.8600000000000005E-002    -3.1986370086669922
   1.9700000000000023E-002    -3.6356720924377441
   2.0800000000000013E-002    -4.1216487884521484
   2.1900000000000003E-002    -4.6614160537719727
   2.3000000000000020E-002    -5.2584147453308105
   2.4100000000000010E-002    -5.9139647483825684
   2.5200000000000000E-002    -6.6269555091857910
   2.6300000000000018E-002    -7.3940863609313965
   2.7400000000000008E-002    -8.2110700607299805
   2.8500000000000025E-002    -9.0741806030273438
   2.9600000000000015E-002    -9.9814453125000000
   3.0700000000000005E-002    -10.932685852050781
   3.1800000000000023E-002    -11.927881240844727
   3.2900000000000013E-002    -12.964574813842773
   3.4000000000000002E-002    -14.035281181335449
   3.5100000000000020E-002    -15.126710891723633
   3.6200000000000010E-002    -16.220508575439453
   3.7300000000000028E-002    -17.295949935913086
   3.8400000000000017E-002    -18.332399368286133
   3.9500000000000007E-002    -19.311275482177734
   4.0600000000000025E-002    -20.215780258178711
   4.1700000000000015E-002    -21.028554916381836
   4.2800000000000005E-002    -21.730136871337891
   4.3900000000000022E-002    -22.296037673950195
   4.5000000000000012E-002    -22.696683883666992
   4.6100000000000002E-002    -22.898384094238281
   4.7200000000000020E-002    -22.865808486938477
   4.8300000000000010E-002    -22.564800262451172
   4.9400000000000027E-002    -21.964267730712891
   5.0500000000000017E-002    -21.036933898925781
   5.1600000000000007E-002    -19.759500503540039
   5.2700000000000025E-002    -18.111949920654297
   5.3800000000000014E-002    -16.076683044433594
   5.4900000000000004E-002    -13.638183593750000
   5.6000000000000022E-002    -10.784133911132812
   5.7100000000000012E-002    -7.5045833587646484
   5.8200000000000002E-002    -3.7932333946228027
   5.9300000000000019E-002    0.35080000758171082
   6.0400000000000009E-002     4.9181499481201172
   6.1500000000000027E-002     9.8879671096801758
   6.2600000000000017E-002     15.227267265319824
   6.3700000000000007E-002     20.890066146850586
   6.4800000000000024E-002     26.823266983032227
   6.5900000000000014E-002     32.967151641845703
   6.7000000000000004E-002     39.258701324462891
   6.8100000000000022E-002     45.630035400390625
   6.9200000000000012E-002     52.007900238037109
   7.0300000000000029E-002     58.310127258300781
   7.1400000000000019E-002     64.446510314941406
   7.2500000000000009E-002     70.320945739746094
   7.3600000000000027E-002     75.830650329589844
   7.4700000000000016E-002     80.871299743652344
   7.5800000000000006E-002     85.339309692382812
   7.6900000000000024E-002     89.137474060058594
   7.8000000000000014E-002     92.174102783203125
   7.9100000000000004E-002     94.364242553710938
   8.0200000000000021E-002     95.634384155273438
   8.1300000000000011E-002     95.918884277343750
   8.2400000000000029E-002     95.163558959960938
   8.3500000000000019E-002     93.328002929687500
   8.4600000000000009E-002     90.386047363281250
   8.5700000000000026E-002     86.327667236328125
   8.6800000000000016E-002     81.157157897949219
   8.7900000000000006E-002     74.896308898925781
   8.9000000000000024E-002     67.583168029785156
   9.0100000000000013E-002     59.275600433349609
   9.1200000000000003E-002     50.050384521484375
   9.2300000000000021E-002     40.004417419433594
   9.3400000000000011E-002     29.249834060668945
   9.4500000000000028E-002     17.911817550659180
   9.5600000000000018E-002     6.1245999336242676
   9.6700000000000008E-002    -5.9696002006530762
   9.7800000000000026E-002    -18.221433639526367
   9.8900000000000016E-002    -30.477132797241211
  0.10000000000000001         -42.581401824951172
  0.10110000000000002         -54.379066467285156
  0.10220000000000001         -65.718498229980469
  0.10330000000000003         -76.452835083007812
  0.10440000000000002         -86.443069458007812
  0.10550000000000001         -95.560554504394531
  0.10660000000000003         -103.68906402587891
  0.10770000000000002         -110.73131561279297
  0.10880000000000001         -116.60765075683594
  0.10990000000000003         -121.25375366210938
  0.11100000000000002         -124.62446594238281
  0.11210000000000001         -126.69223785400391
  0.11320000000000002         -127.44973754882812
  0.11430000000000001         -126.90964508056641
  0.11540000000000003         -125.10446166992188
  0.11650000000000002         -122.08097076416016
  0.11760000000000001         -117.89917755126953
  0.11870000000000003         -112.63411712646484
  0.11980000000000002         -106.36847686767578
  0.12090000000000001         -99.197204589843750
  0.12200000000000003         -91.223114013671875
  0.12310000000000001         -82.555686950683594
  0.12420000000000003         -73.307334899902344
  0.12530000000000002         -63.595066070556641
  0.12640000000000001         -53.535427093505859
  0.12750000000000003         -43.242168426513672
  0.12860000000000002         -32.824932098388672
  0.12970000000000001         -22.384866714477539
  0.13080000000000003         -12.014833450317383
  0.13190000000000002         -1.8000917434692383
  0.13300000000000001          8.1818504333496094
  0.13410000000000000          17.857383728027344
  0.13520000000000004          27.160301208496094
  0.13630000000000003          36.031623840332031
  0.13740000000000002          44.419715881347656
  0.13850000000000001          52.281608581542969
  0.13960000000000000          59.581001281738281
  0.14070000000000005          66.288475036621094
  0.14180000000000004          72.380043029785156
  0.14290000000000003          77.836578369140625
  0.14400000000000002          82.641967773437500
  0.14510000000000001          86.781295776367188
  0.14620000000000000          90.240127563476562
  0.14730000000000004          93.005447387695312
  0.14840000000000003          95.066154479980469
  0.14950000000000002          96.414695739746094
  0.15060000000000001          97.043418884277344
  0.15170000000000000          96.945236206054688
  0.15280000000000005          96.112236022949219
  0.15390000000000004          94.538528442382812
  0.15500000000000003          92.221572875976562
  0.15610000000000002          89.164215087890625
  0.15720000000000001          85.374351501464844
  0.15830000000000000          80.862747192382812
  0.15940000000000004          75.645164489746094
  0.16050000000000003          69.743148803710938
  0.16160000000000002          63.185565948486328
  0.16270000000000001          56.009616851806641
  0.16380000000000000          48.258850097656250
  0.16490000000000005          39.984001159667969
  0.16600000000000004          31.243116378784180
  0.16710000000000003          22.103532791137695
  0.16820000000000002          12.640933036804199
  0.16930000000000001          2.9393668174743652
  0.17040000000000000         -6.9109668731689453
  0.17150000000000004         -16.816366195678711
  0.17260000000000003         -26.679100036621094
  0.17370000000000002         -36.397567749023438
  0.17480000000000001         -45.866867065429688
  0.17590000000000000         -54.982833862304688
  0.17700000000000005         -63.645133972167969
  0.17810000000000004         -71.758033752441406
  0.17920000000000003         -79.229331970214844
  0.18030000000000002         -85.971664428710938
  0.18140000000000001         -91.902603149414062
  0.18250000000000000         -96.948165893554688
  0.18360000000000004         -101.04526519775391
  0.18470000000000003         -104.14453125000000
  0.18580000000000002         -106.20709991455078
  0.18690000000000001         -107.20493316650391
  0.18800000000000000         -107.12133789062500
  0.18910000000000005         -105.95303344726562
  0.19020000000000004         -103.71003723144531
  0.19130000000000003         -100.41748809814453
  0.19240000000000002         -96.109954833984375
  0.19350000000000001         -90.831649780273438
  0.19460000000000005         -84.633949279785156
  0.19570000000000004         -77.580520629882812
  0.19680000000000003         -69.745689392089844
  0.19790000000000002         -61.212093353271484
  0.19900000000000001         -52.066757202148438
  0.20010000000000000         -42.397792816162109
  0.20120000000000005         -32.296440124511719
  0.20230000000000004         -21.859813690185547
  0.20340000000000003         -11.192430496215820
  0.20450000000000002        -0.40156874060630798
  0.20560000000000000          10.407500267028809
  0.20670000000000005          21.134201049804688
  0.20780000000000004          31.682842254638672
  0.20890000000000003          41.956508636474609
