 -0.12000000000000000          0.0000000000000000
 -0.11889999999999999          0.0000000000000000
 -0.11780000000000000          0.0000000000000000
 -0.11670000000000000          0.0000000000000000
 -0.11559999999999999         -2.5252042210738290E-012
 -0.11449999999999999         -1.3535423649957412E-011
 -0.11340000000000000         -3.2474248984337706E-011
 -0.11230000000000000         -3.5796601793869343E-011
 -0.11119999999999999          1.9817219046314172E-011
 -0.11009999999999999          1.5391668495290389E-010
 -0.10900000000000000          3.0310892684681789E-010
 -0.10790000000000000          3.1285588009133392E-010
 -0.10679999999999999          2.6573078806824135E-011
 -0.10569999999999999         -5.6357324362821259E-010
 -0.10460000000000000         -1.2109977465257771E-009
 -0.10349999999999999         -1.4538785730877635E-009
 -0.10239999999999999         -8.2394358003057278E-010
 -0.10130000000000000          8.3264084516088133E-010
 -0.10020000000000000          3.0475943990637688E-009
  -9.9099999999999994E-002     4.6390833396969811E-009
  -9.7999999999999990E-002     4.0853316285449637E-009
  -9.6899999999999986E-002     4.5942474824478552E-010
  -9.5799999999999996E-002    -5.4405338012486482E-009
  -9.4699999999999993E-002    -1.0658381732753242E-008
  -9.3599999999999989E-002    -1.1224874363335857E-008
  -9.2499999999999999E-002    -4.7894266330672508E-009
  -9.1399999999999995E-002     6.8428365196382401E-009
  -9.0299999999999991E-002     1.7548140718304239E-008
  -8.9200000000000002E-002     2.0158214653065443E-008
  -8.8099999999999984E-002     1.1514178055449520E-008
  -8.6999999999999994E-002    -4.4500723106466467E-009
  -8.5899999999999990E-002    -1.8583634187052667E-008
  -8.4799999999999986E-002    -2.2670089805387761E-008
  -8.3699999999999997E-002    -1.5362466854185186E-008
  -8.2599999999999993E-002    -2.9861666472896786E-009
  -8.1499999999999989E-002     5.7885816140412771E-009
  -8.0399999999999999E-002     7.1563568404542366E-009
  -7.9299999999999995E-002     5.1167896586434836E-009
  -7.8199999999999992E-002     7.4765376112395643E-009
  -7.7100000000000002E-002     1.8270990054247704E-008
  -7.5999999999999984E-002     3.3104672780837063E-008
  -7.4899999999999994E-002     4.1192809163703714E-008
  -7.3799999999999991E-002     3.1800677646742770E-008
  -7.2699999999999987E-002    -9.3326357752943068E-010
  -7.1599999999999997E-002    -5.8685223791599128E-008
  -7.0499999999999993E-002    -1.4338786513690138E-007
  -6.9399999999999989E-002    -2.6027694843833160E-007
  -6.8300000000000000E-002    -4.1664250716166862E-007
  -6.7199999999999996E-002    -6.1869150158599950E-007
  -6.6099999999999992E-002    -8.7138198523462052E-007
  -6.5000000000000002E-002    -1.1827817161247367E-006
  -6.3899999999999985E-002    -1.5689140582253458E-006
  -6.2799999999999995E-002    -2.0535710518743144E-006
  -6.1699999999999991E-002    -2.6625502869137563E-006
  -6.0599999999999994E-002    -3.4183692605438409E-006
  -5.9499999999999990E-002    -4.3423947317933198E-006
  -5.8399999999999994E-002    -5.4646029639116023E-006
  -5.7299999999999990E-002    -6.8331964939716272E-006
  -5.6199999999999986E-002    -8.5156179920886643E-006
  -5.5099999999999996E-002    -1.0590781130304094E-005
  -5.3999999999999992E-002    -1.3141614545020275E-005
  -5.2899999999999989E-002    -1.6257470633718185E-005
  -5.1799999999999985E-002    -2.0046232748427428E-005
  -5.0699999999999995E-002    -2.4645607481943443E-005
  -4.9599999999999991E-002    -3.0223445719457231E-005
  -4.8499999999999988E-002    -3.6968616768717766E-005
  -4.7399999999999998E-002    -4.5085624151397496E-005
  -4.6299999999999994E-002    -5.4804819228593260E-005
  -4.5199999999999990E-002    -6.6405606048647314E-005
  -4.4099999999999986E-002    -8.0236008216161281E-005
  -4.2999999999999997E-002    -9.6713534730952233E-005
  -4.1899999999999993E-002    -1.1630955123109743E-004
  -4.0799999999999989E-002    -1.3953614688944072E-004
  -3.9699999999999985E-002    -1.6695373051334172E-004
  -3.8599999999999995E-002    -1.9919885380659252E-004
  -3.7499999999999992E-002    -2.3701264581177384E-004
  -3.6399999999999988E-002    -2.8124990058131516E-004
  -3.5299999999999984E-002    -3.3286833786405623E-004
  -3.4199999999999994E-002    -3.9291768916882575E-004
  -3.3099999999999991E-002    -4.6254866174422204E-004
  -3.1999999999999987E-002    -5.4304167861118913E-004
  -3.0899999999999997E-002    -6.3583388691768050E-004
  -2.9799999999999993E-002    -7.4252259219065309E-004
  -2.8699999999999989E-002    -8.6484616622328758E-004
  -2.7599999999999986E-002    -1.0046631796285510E-003
  -2.6499999999999996E-002    -1.1639522854238749E-003
  -2.5399999999999992E-002    -1.3448336394503713E-003
  -2.4299999999999988E-002    -1.5495888656005263E-003
  -2.3199999999999985E-002    -1.7806589603424072E-003
  -2.2099999999999995E-002    -2.0406183321028948E-003
  -2.0999999999999991E-002    -2.3321448825299740E-003
  -1.9899999999999987E-002    -2.6580062694847584E-003
  -1.8799999999999983E-002    -3.0210544355213642E-003
  -1.7699999999999994E-002    -3.4242111723870039E-003
  -1.6599999999999990E-002    -3.8704301696270704E-003
  -1.5499999999999986E-002    -4.3626381084322929E-003
  -1.4399999999999996E-002    -4.9036787822842598E-003
  -1.3299999999999992E-002    -5.4962765425443649E-003
  -1.2199999999999989E-002    -6.1430083587765694E-003
  -1.1099999999999985E-002    -6.8462612107396126E-003
  -9.9999999999999950E-003    -7.6081589795649052E-003
  -8.8999999999999913E-003    -8.4304753690958023E-003
  -7.7999999999999875E-003    -9.3145575374364853E-003
  -6.6999999999999837E-003    -1.0261266492307186E-002
  -5.5999999999999939E-003    -1.1270916089415550E-002
  -4.4999999999999901E-003    -1.2343193404376507E-002
  -3.3999999999999864E-003    -1.3477051630616188E-002
  -2.2999999999999826E-003    -1.4670606702566147E-002
  -1.1999999999999927E-003    -1.5921082347631454E-002
  -9.9999999999988987E-005    -1.7224788665771484E-002
   1.0000000000000148E-003    -1.8577102571725845E-002
   2.1000000000000185E-003    -1.9972413778305054E-002
   3.2000000000000084E-003    -2.1404029801487923E-002
   4.3000000000000121E-003    -2.2864099591970444E-002
   5.4000000000000159E-003    -2.4343600496649742E-002
   6.5000000000000058E-003    -2.5832377374172211E-002
   7.6000000000000234E-003    -2.7319222688674927E-002
   8.7000000000000133E-003    -2.8791921213269234E-002
   9.8000000000000032E-003    -3.0237264931201935E-002
   1.0900000000000021E-002    -3.1641095876693726E-002
   1.2000000000000011E-002    -3.2988399267196655E-002
   1.3100000000000001E-002    -3.4263454377651215E-002
   1.4200000000000018E-002    -3.5450052469968796E-002
   1.5300000000000008E-002    -3.6531656980514526E-002
   1.6400000000000026E-002    -3.7491552531719208E-002
   1.7500000000000016E-002    -3.8312979042530060E-002
   1.8600000000000005E-002    -3.8979336619377136E-002
   1.9700000000000023E-002    -3.9474464952945709E-002
   2.0800000000000013E-002    -3.9782904088497162E-002
   2.1900000000000003E-002    -3.9890158921480179E-002
   2.3000000000000020E-002    -3.9782889187335968E-002
   2.4100000000000010E-002    -3.9449118077754974E-002
   2.5200000000000000E-002    -3.8878478109836578E-002
   2.6300000000000018E-002    -3.8062453269958496E-002
   2.7400000000000008E-002    -3.6994606256484985E-002
   2.8500000000000025E-002    -3.5670742392539978E-002
   2.9600000000000015E-002    -3.4089028835296631E-002
   3.0700000000000005E-002    -3.2250087708234787E-002
   3.1800000000000023E-002    -3.0157133936882019E-002
   3.2900000000000013E-002    -2.7816053479909897E-002
   3.4000000000000002E-002    -2.5235433131456375E-002
   3.5100000000000020E-002    -2.2426499053835869E-002
   3.6200000000000010E-002    -1.9403019919991493E-002
   3.7300000000000028E-002    -1.6181230545043945E-002
   3.8400000000000017E-002    -1.2779721990227699E-002
   3.9500000000000007E-002    -9.2193307355046272E-003
   4.0600000000000025E-002    -5.5229291319847107E-003
   4.1700000000000015E-002    -1.7151214415207505E-003
   4.2800000000000005E-002     2.1781029645353556E-003
   4.3900000000000022E-002     6.1296839267015457E-003
   4.5000000000000012E-002     1.0111749172210693E-002
   4.6100000000000002E-002     1.4095868915319443E-002
   4.7200000000000020E-002     1.8053367733955383E-002
   4.8300000000000010E-002     2.1955708041787148E-002
   4.9400000000000027E-002     2.5774918496608734E-002
   5.0500000000000017E-002     2.9483940452337265E-002
   5.1600000000000007E-002     3.3056885004043579E-002
   5.2700000000000025E-002     3.6469254642724991E-002
   5.3800000000000014E-002     3.9698153734207153E-002
   5.4900000000000004E-002     4.2722582817077637E-002
   5.6000000000000022E-002     4.5523755252361298E-002
   5.7100000000000012E-002     4.8085320740938187E-002
   5.8200000000000002E-002     5.0393439829349518E-002
   5.9300000000000019E-002     5.2436817437410355E-002
   6.0400000000000009E-002     5.4206706583499908E-002
   6.1500000000000027E-002     5.5696953088045120E-002
   6.2600000000000017E-002     5.6904040277004242E-002
   6.3700000000000007E-002     5.7827044278383255E-002
   6.4800000000000024E-002     5.8467544615268707E-002
   6.5900000000000014E-002     5.8829482644796371E-002
   6.7000000000000004E-002     5.8918975293636322E-002
   6.8100000000000022E-002     5.8744158595800400E-002
   6.9200000000000012E-002     5.8315038681030273E-002
   7.0300000000000029E-002     5.7643335312604904E-002
   7.1400000000000019E-002     5.6742243468761444E-002
   7.2500000000000009E-002     5.5626209825277328E-002
   7.3600000000000027E-002     5.4310660809278488E-002
   7.4700000000000016E-002     5.2811846137046814E-002
   7.5800000000000006E-002     5.1146600395441055E-002
   7.6900000000000024E-002     4.9332156777381897E-002
   7.8000000000000014E-002     4.7385890036821365E-002
   7.9100000000000004E-002     4.5325148850679398E-002
   8.0200000000000021E-002     4.3167117983102798E-002
   8.1300000000000011E-002     4.0928702801465988E-002
   8.2400000000000029E-002     3.8626413792371750E-002
   8.3500000000000019E-002     3.6276225000619888E-002
   8.4600000000000009E-002     3.3893410116434097E-002
   8.5700000000000026E-002     3.1492441892623901E-002
   8.6800000000000016E-002     2.9086975380778313E-002
   8.7900000000000006E-002     2.6689859107136726E-002
   8.9000000000000024E-002     2.4313112720847130E-002
   9.0100000000000013E-002     2.1967856213450432E-002
   9.1200000000000003E-002     1.9664226099848747E-002
   9.2300000000000021E-002     1.7411328852176666E-002
   9.3400000000000011E-002     1.5217303298413754E-002
   9.4500000000000028E-002     1.3089409098029137E-002
   9.5600000000000018E-002     1.1034116148948669E-002
   9.6700000000000008E-002     9.0571045875549316E-003
   9.7800000000000026E-002     7.1632154285907745E-003
   9.8900000000000016E-002     5.3564244881272316E-003
  0.10000000000000001          3.6398859228938818E-003
  0.10110000000000002          2.0160367712378502E-003
  0.10220000000000001          4.8669739044271410E-004
  0.10330000000000003         -9.4689347315579653E-004
  0.10440000000000002         -2.2841044701635838E-003
  0.10550000000000001         -3.5249358043074608E-003
  0.10660000000000003         -4.6699861995875835E-003
  0.10770000000000002         -5.7203602045774460E-003
  0.10880000000000001         -6.6775656305253506E-003
  0.10990000000000003         -7.5434586033225060E-003
  0.11100000000000002         -8.3202412351965904E-003
  0.11210000000000001         -9.0104760602116585E-003
  0.11320000000000002         -9.6170697361230850E-003
  0.11430000000000001         -1.0143213905394077E-002
  0.11540000000000003         -1.0592320002615452E-002
  0.11650000000000002         -1.0967977344989777E-002
  0.11760000000000001         -1.1273938231170177E-002
  0.11870000000000003         -1.1514108628034592E-002
  0.11980000000000002         -1.1692513711750507E-002
  0.12090000000000001         -1.1813247576355934E-002
  0.12200000000000003         -1.1880421079695225E-002
  0.12310000000000001         -1.1898145079612732E-002
  0.12420000000000003         -1.1870517395436764E-002
  0.12530000000000002         -1.1801596730947495E-002
  0.12640000000000001         -1.1695361696183681E-002
  0.12750000000000003         -1.1555657722055912E-002
  0.12860000000000002         -1.1386179365217686E-002
  0.12970000000000001         -1.1190488934516907E-002
  0.13080000000000003         -1.0972059331834316E-002
  0.13190000000000002         -1.0734264738857746E-002
  0.13300000000000001         -1.0480318218469620E-002
  0.13410000000000000         -1.0213200934231281E-002
  0.13520000000000004         -9.9356267601251602E-003
  0.13630000000000003         -9.6500813961029053E-003
  0.13740000000000002         -9.3588856980204582E-003
  0.13850000000000001         -9.0642245486378670E-003
  0.13960000000000000         -8.7681161239743233E-003
  0.14070000000000005         -8.4723401814699173E-003
  0.14180000000000004         -8.1784026697278023E-003
  0.14290000000000003         -7.8875729814171791E-003
  0.14400000000000002         -7.6009850017726421E-003
  0.14510000000000001         -7.3196999728679657E-003
  0.14620000000000000         -7.0446920581161976E-003
  0.14730000000000004         -6.7767752334475517E-003
  0.14840000000000003         -6.5165418200194836E-003
  0.14950000000000002         -6.2643769197165966E-003
  0.15060000000000001         -6.0205445624887943E-003
  0.15170000000000000         -5.7852659374475479E-003
  0.15280000000000005         -5.5587389506399632E-003
  0.15390000000000004         -5.3410846740007401E-003
  0.15500000000000003         -5.1322979852557182E-003
  0.15610000000000002         -4.9322503618896008E-003
  0.15720000000000001         -4.7407560050487518E-003
  0.15830000000000000         -4.5576416887342930E-003
  0.15940000000000004         -4.3827644549310207E-003
  0.16050000000000003         -4.2159673757851124E-003
  0.16160000000000002         -4.0570315904915333E-003
  0.16270000000000001         -3.9056749083101749E-003
  0.16380000000000000         -3.7615923210978508E-003
  0.16490000000000005         -3.6244983784854412E-003
  0.16600000000000004         -3.4941278863698244E-003
  0.16710000000000003         -3.3702049404382706E-003
  0.16820000000000002         -3.2524210400879383E-003
  0.16930000000000001         -3.1404576729983091E-003
  0.17040000000000000         -3.0340319499373436E-003
  0.17150000000000004         -2.9329147655516863E-003
  0.17260000000000003         -2.8368984349071980E-003
  0.17370000000000002         -2.7457443065941334E-003
  0.17480000000000001         -2.6591708883643150E-003
  0.17590000000000000         -2.5769041385501623E-003
  0.17700000000000005         -2.4987407959997654E-003
  0.17810000000000004         -2.4245569948107004E-003
  0.17920000000000003         -2.3542409762740135E-003
  0.18030000000000002         -2.2876169532537460E-003
  0.18140000000000001         -2.2244364954531193E-003
  0.18250000000000000         -2.1644602529704571E-003
  0.18360000000000004         -2.1075559780001640E-003
  0.18470000000000003         -2.0537185482680798E-003
  0.18580000000000002         -2.0029856823384762E-003
  0.18690000000000001         -1.9553313031792641E-003
  0.18800000000000000         -1.9106407416984439E-003
  0.18910000000000005         -1.8688011914491653E-003
  0.19020000000000004         -1.8298196373507380E-003
  0.19130000000000003         -1.7938527744263411E-003
  0.19240000000000002         -1.7611191142350435E-003
  0.19350000000000001         -1.7317763995379210E-003
  0.19460000000000005         -1.7058886587619781E-003
  0.19570000000000004         -1.6835165442898870E-003
  0.19680000000000003         -1.6648464370518923E-003
  0.19790000000000002         -1.6502323560416698E-003
  0.19900000000000001         -1.6401171451434493E-003
  0.20010000000000000         -1.6349166398867965E-003
  0.20120000000000005         -1.6349855577573180E-003
  0.20230000000000004         -1.6406988725066185E-003
  0.20340000000000003         -1.6525624087080359E-003
  0.20450000000000002         -1.6712399665266275E-003
  0.20560000000000000         -1.6974735772237182E-003
  0.20670000000000005         -1.7319843173027039E-003
  0.20780000000000004         -1.7754586879163980E-003
  0.20890000000000003         -1.8286324338987470E-003
