 -0.12000000000000000          0.0000000000000000
 -0.11889999999999999          0.0000000000000000
 -0.11780000000000000          0.0000000000000000
 -0.11670000000000000          0.0000000000000000
 -0.11559999999999999          0.0000000000000000
 -0.11449999999999999         -1.2607149448473545E-014
 -0.11340000000000000         -3.6411337540984828E-014
 -0.11230000000000000          1.0665895792440205E-013
 -0.11119999999999999          8.6729202378871273E-013
 -0.11009999999999999          2.3548593630629000E-012
 -0.10900000000000000          2.8888215604372380E-012
 -0.10790000000000000         -1.4762980334731557E-012
 -0.10679999999999999         -1.3506117231554260E-011
 -0.10569999999999999         -2.7633074647925859E-011
 -0.10460000000000000         -2.6201180114426847E-011
 -0.10349999999999999          1.0803424127514560E-011
 -0.10239999999999999          8.1846598942725279E-011
 -0.10130000000000000          1.4383129409711870E-010
 -0.10020000000000000          1.2384024361544732E-010
  -9.9099999999999994E-002    -2.7203810384901495E-011
  -9.7999999999999990E-002    -2.6926144647276828E-010
  -9.6899999999999986E-002    -4.5587600361329805E-010
  -9.5799999999999996E-002    -4.0578002069580066E-010
  -9.4699999999999993E-002    -3.7467477037589347E-011
  -9.3599999999999989E-002     5.2567755703947228E-010
  -9.2499999999999999E-002     9.7592256498302277E-010
  -9.1399999999999995E-002     9.8581220964177874E-010
  -9.0299999999999991E-002     4.2593717441974377E-010
  -8.9200000000000002E-002    -5.1112941656938915E-010
  -8.8099999999999984E-002    -1.3793787223548293E-009
  -8.6999999999999994E-002    -1.7137348207185710E-009
  -8.5899999999999990E-002    -1.2894513234940064E-009
  -8.4799999999999986E-002    -2.4625945727052567E-010
  -8.3699999999999997E-002     9.9164465527934453E-010
  -8.2599999999999993E-002     1.9319130739603452E-009
  -8.1499999999999989E-002     2.2190447257486312E-009
  -8.0399999999999999E-002     1.7204555557981394E-009
  -7.9299999999999995E-002     5.1098936193483269E-010
  -7.8199999999999992E-002    -1.1363036067635335E-009
  -7.7100000000000002E-002    -2.6964606103518918E-009
  -7.5999999999999984E-002    -3.3869154147936342E-009
  -7.4899999999999994E-002    -2.4236426199308880E-009
  -7.3799999999999991E-002     3.9986003397274317E-010
  -7.2699999999999987E-002     4.1300109998587686E-009
  -7.1599999999999997E-002     6.6655787556157975E-009
  -7.0499999999999993E-002     5.7489288884937650E-009
  -6.9399999999999989E-002     5.7660526353586761E-010
  -6.8300000000000000E-002    -7.0743277902352020E-009
  -6.7199999999999996E-002    -1.3301050039160600E-008
  -6.6099999999999992E-002    -1.4186984031994143E-008
  -6.5000000000000002E-002    -8.2742612761421697E-009
  -6.3899999999999985E-002     2.4345503391032253E-009
  -6.2799999999999995E-002     1.3803552967317501E-008
  -6.1699999999999991E-002     2.2225131957043232E-008
  -6.0599999999999994E-002     2.6451811407923742E-008
  -5.9499999999999990E-002     2.7078918662937213E-008
  -5.8399999999999994E-002     2.4169580115085409E-008
  -5.7299999999999990E-002     1.5117752383275729E-008
  -5.6199999999999986E-002    -5.4521960279885207E-009
  -5.5099999999999996E-002    -4.3891493106684720E-008
  -5.3999999999999992E-002    -1.0571046260565709E-007
  -5.2899999999999989E-002    -1.9545709051271842E-007
  -5.1799999999999985E-002    -3.1816819046071032E-007
  -5.0699999999999995E-002    -4.8066732460938510E-007
  -4.9599999999999991E-002    -6.9130328483879566E-007
  -4.8499999999999988E-002    -9.5862947091518436E-007
  -4.7399999999999998E-002    -1.2909499673696700E-006
  -4.6299999999999994E-002    -1.6979790871118894E-006
  -4.5199999999999990E-002    -2.1937503333901986E-006
  -4.4099999999999986E-002    -2.7986673103441717E-006
  -4.2999999999999997E-002    -3.5396806197240949E-006
  -4.1899999999999993E-002    -4.4498419811134227E-006
  -4.0799999999999989E-002    -5.5692871683277190E-006
  -3.9699999999999985E-002    -6.9478610384976491E-006
  -3.8599999999999995E-002    -8.6470463429577649E-006
  -3.7499999999999992E-002    -1.0738860510173254E-005
  -3.6399999999999988E-002    -1.3302685147209559E-005
  -3.5299999999999984E-002    -1.6424506611656398E-005
  -3.4199999999999994E-002    -2.0202647647238337E-005
  -3.3099999999999991E-002    -2.4758872314123437E-005
  -3.1999999999999987E-002    -3.0248309485614300E-005
  -3.0899999999999997E-002    -3.6861601984128356E-005
  -2.9799999999999993E-002    -4.4818996684625745E-005
  -2.8699999999999989E-002    -5.4363747040042654E-005
  -2.7599999999999986E-002    -6.5763735619839281E-005
  -2.6499999999999996E-002    -7.9323770478367805E-005
  -2.5399999999999992E-002    -9.5402072474826127E-005
  -2.4299999999999988E-002    -1.1442152026575059E-004
  -2.3199999999999985E-002    -1.3687154569197446E-004
  -2.2099999999999995E-002    -1.6330527432728559E-004
  -2.0999999999999991E-002    -1.9434023124631494E-004
  -1.9899999999999987E-002    -2.3066622088663280E-004
  -1.8799999999999983E-002    -2.7305632829666138E-004
  -1.7699999999999994E-002    -3.2237503910437226E-004
  -1.6599999999999990E-002    -3.7958213943056762E-004
  -1.5499999999999986E-002    -4.4573569903150201E-004
  -1.4399999999999996E-002    -5.2200077334418893E-004
  -1.3299999999999992E-002    -6.0966162709519267E-004
  -1.2199999999999989E-002    -7.1013037813827395E-004
  -1.1099999999999985E-002    -8.2494632806628942E-004
  -9.9999999999999950E-003    -9.5576670719310641E-004
  -8.8999999999999913E-003    -1.1043581180274487E-003
  -7.7999999999999875E-003    -1.2725936248898506E-003
  -6.6999999999999837E-003    -1.4624543255195022E-003
  -5.5999999999999939E-003    -1.6760276630520821E-003
  -4.4999999999999901E-003    -1.9154951442033052E-003
  -3.3999999999999864E-003    -2.1831153426319361E-003
  -2.2999999999999826E-003    -2.4812088813632727E-003
  -1.1999999999999927E-003    -2.8121445793658495E-003
  -9.9999999999988987E-005    -3.1783233862370253E-003
   1.0000000000000148E-003    -3.5821432247757912E-003
   2.1000000000000185E-003    -4.0259435772895813E-003
   3.2000000000000084E-003    -4.5119472779333591E-003
   4.3000000000000121E-003    -5.0422120839357376E-003
   5.4000000000000159E-003    -5.6185997091233730E-003
   6.5000000000000058E-003    -6.2427497468888760E-003
   7.6000000000000234E-003    -6.9160345010459423E-003
   8.7000000000000133E-003    -7.6394937932491302E-003
   9.8000000000000032E-003    -8.4137599915266037E-003
   1.0900000000000021E-002    -9.2389844357967377E-003
   1.2000000000000011E-002    -1.0114782489836216E-002
   1.3100000000000001E-002    -1.1040175333619118E-002
   1.4200000000000018E-002    -1.2013523839414120E-002
   1.5300000000000008E-002    -1.3032458722591400E-002
   1.6400000000000026E-002    -1.4093816280364990E-002
   1.7500000000000016E-002    -1.5193596482276917E-002
   1.8600000000000005E-002    -1.6326949000358582E-002
   1.9700000000000023E-002    -1.7488170415163040E-002
   2.0800000000000013E-002    -1.8670680001378059E-002
   2.1900000000000003E-002    -1.9866995513439178E-002
   2.3000000000000020E-002    -2.1068727597594261E-002
   2.4100000000000010E-002    -2.2266577929258347E-002
   2.5200000000000000E-002    -2.3450393229722977E-002
   2.6300000000000018E-002    -2.4609213694930077E-002
   2.7400000000000008E-002    -2.5731366127729416E-002
   2.8500000000000025E-002    -2.6804555207490921E-002
   2.9600000000000015E-002    -2.7815965935587883E-002
   3.0700000000000005E-002    -2.8752403333783150E-002
   3.1800000000000023E-002    -2.9600439593195915E-002
   3.2900000000000013E-002    -3.0346577987074852E-002
   3.4000000000000002E-002    -3.0977413058280945E-002
   3.5100000000000020E-002    -3.1479775905609131E-002
   3.6200000000000010E-002    -3.1840946525335312E-002
   3.7300000000000028E-002    -3.2048836350440979E-002
   3.8400000000000017E-002    -3.2092228531837463E-002
   3.9500000000000007E-002    -3.1960964202880859E-002
   4.0600000000000025E-002    -3.1646125018596649E-002
   4.1700000000000015E-002    -3.1140195205807686E-002
   4.2800000000000005E-002    -3.0437270179390907E-002
   4.3900000000000022E-002    -2.9533226042985916E-002
   4.5000000000000012E-002    -2.8425872325897217E-002
   4.6100000000000002E-002    -2.7115065604448318E-002
   4.7200000000000020E-002    -2.5602756068110466E-002
   4.8300000000000010E-002    -2.3893021047115326E-002
   4.9400000000000027E-002    -2.1992096677422523E-002
   5.0500000000000017E-002    -1.9908398389816284E-002
   5.1600000000000007E-002    -1.7652526497840881E-002
   5.2700000000000025E-002    -1.5237181447446346E-002
   5.3800000000000014E-002    -1.2677023187279701E-002
   5.4900000000000004E-002    -9.9884988740086555E-003
   5.6000000000000022E-002    -7.1896607987582684E-003
   5.7100000000000012E-002    -4.3000034056603909E-003
   5.8200000000000002E-002    -1.3402658514678478E-003
   5.9300000000000019E-002     1.6678218962624669E-003
   6.0400000000000009E-002     4.7018481418490410E-003
   6.1500000000000027E-002     7.7390419319272041E-003
   6.2600000000000017E-002     1.0756573639810085E-002
   6.3700000000000007E-002     1.3731819577515125E-002
   6.4800000000000024E-002     1.6642628237605095E-002
   6.5900000000000014E-002     1.9467607140541077E-002
   6.7000000000000004E-002     2.2186418995261192E-002
   6.8100000000000022E-002     2.4780049920082092E-002
   6.9200000000000012E-002     2.7231035754084587E-002
   7.0300000000000029E-002     2.9523639008402824E-002
   7.1400000000000019E-002     3.1644020229578018E-002
   7.2500000000000009E-002     3.3580403774976730E-002
   7.3600000000000027E-002     3.5323213785886765E-002
   7.4700000000000016E-002     3.6865141242742538E-002
   7.5800000000000006E-002     3.8201149553060532E-002
   7.6900000000000024E-002     3.9328429847955704E-002
   7.8000000000000014E-002     4.0246382355690002E-002
   7.9100000000000004E-002     4.0956553071737289E-002
   8.0200000000000021E-002     4.1462581604719162E-002
   8.1300000000000011E-002     4.1770022362470627E-002
   8.2400000000000029E-002     4.1886117309331894E-002
   8.3500000000000019E-002     4.1819598525762558E-002
   8.4600000000000009E-002     4.1580483317375183E-002
   8.5700000000000026E-002     4.1179947555065155E-002
   8.6800000000000016E-002     4.0630154311656952E-002
   8.7900000000000006E-002     3.9943996816873550E-002
   8.9000000000000024E-002     3.9134811609983444E-002
   9.0100000000000013E-002     3.8216095417737961E-002
   9.1200000000000003E-002     3.7201296538114548E-002
   9.2300000000000021E-002     3.6103717982769012E-002
   9.3400000000000011E-002     3.4936387091875076E-002
   9.4500000000000028E-002     3.3711869269609451E-002
   9.5600000000000018E-002     3.2442070543766022E-002
   9.6700000000000008E-002     3.1138053163886070E-002
   9.7800000000000026E-002     2.9809970408678055E-002
   9.8900000000000016E-002     2.8467085212469101E-002
  0.10000000000000001          2.7117773890495300E-002
  0.10110000000000002          2.5769501924514771E-002
  0.10220000000000001          2.4428743869066238E-002
  0.10330000000000003          2.3100944235920906E-002
  0.10440000000000002          2.1790573373436928E-002
  0.10550000000000001          2.0501235499978065E-002
  0.10660000000000003          1.9235787913203239E-002
  0.10770000000000002          1.7996398732066154E-002
  0.10880000000000001          1.6784567385911942E-002
  0.10990000000000003          1.5601196326315403E-002
  0.11100000000000002          1.4446702785789967E-002
  0.11210000000000001          1.3321164064109325E-002
  0.11320000000000002          1.2224423699080944E-002
  0.11430000000000001          1.1156137101352215E-002
  0.11540000000000003          1.0115800425410271E-002
  0.11650000000000002          9.1028129681944847E-003
  0.11760000000000001          8.1165861338376999E-003
  0.11870000000000003          7.1566482074558735E-003
  0.11980000000000002          6.2226699665188789E-003
  0.12090000000000001          5.3144344128668308E-003
  0.12200000000000003          4.4318046420812607E-003
  0.12310000000000001          3.5747631918638945E-003
  0.12420000000000003          2.7435016818344593E-003
  0.12530000000000002          1.9384765764698386E-003
  0.12640000000000001          1.1603669263422489E-003
  0.12750000000000003          4.0995978633873165E-004
  0.12860000000000002         -3.1194044277071953E-004
  0.12970000000000001         -1.0045110248029232E-003
  0.13080000000000003         -1.6668401658535004E-003
  0.13190000000000002         -2.2978901397436857E-003
  0.13300000000000001         -2.8965629171580076E-003
  0.13410000000000000         -3.4618375357240438E-003
  0.13520000000000004         -3.9928755722939968E-003
  0.13630000000000003         -4.4890148565173149E-003
  0.13740000000000002         -4.9496865831315517E-003
  0.13850000000000001         -5.3743598982691765E-003
  0.13960000000000000         -5.7625868357717991E-003
  0.14070000000000005         -6.1141215264797211E-003
  0.14180000000000004         -6.4290068112313747E-003
  0.14290000000000003         -6.7075542174279690E-003
  0.14400000000000002         -6.9502596743404865E-003
  0.14510000000000001         -7.1577397175133228E-003
  0.14620000000000000         -7.3307538405060768E-003
  0.14730000000000004         -7.4702720157802105E-003
  0.14840000000000003         -7.5775100849568844E-003
  0.14950000000000002         -7.6538762077689171E-003
  0.15060000000000001         -7.7008842490613461E-003
  0.15170000000000000         -7.7201020903885365E-003
  0.15280000000000005         -7.7131721191108227E-003
  0.15390000000000004         -7.6818540692329407E-003
  0.15500000000000003         -7.6280138455331326E-003
  0.15610000000000002         -7.5535583309829235E-003
  0.15720000000000001         -7.4603590182960033E-003
  0.15830000000000000         -7.3502487502992153E-003
  0.15940000000000004         -7.2250696830451488E-003
  0.16050000000000003         -7.0867077447474003E-003
  0.16160000000000002         -6.9370470009744167E-003
  0.16270000000000001         -6.7778695374727249E-003
  0.16380000000000000         -6.6107907332479954E-003
  0.16490000000000005         -6.4372881315648556E-003
  0.16600000000000004         -6.2587866559624672E-003
  0.16710000000000003         -6.0767065733671188E-003
  0.16820000000000002         -5.8924187906086445E-003
  0.16930000000000001         -5.7071372866630554E-003
  0.17040000000000000         -5.5218641646206379E-003
  0.17150000000000004         -5.3374469280242920E-003
  0.17260000000000003         -5.1546925678849220E-003
  0.17370000000000002         -4.9744322896003723E-003
  0.17480000000000001         -4.7974637709558010E-003
  0.17590000000000000         -4.6244384720921516E-003
  0.17700000000000005         -4.4557978399097919E-003
  0.17810000000000004         -4.2918277904391289E-003
  0.17920000000000003         -4.1327741928398609E-003
  0.18030000000000002         -3.9789108559489250E-003
  0.18140000000000001         -3.8305032067000866E-003
  0.18250000000000000         -3.6877165548503399E-003
  0.18360000000000004         -3.5505753476172686E-003
  0.18470000000000003         -3.4190176520496607E-003
  0.18580000000000002         -3.2929882872849703E-003
  0.18690000000000001         -3.1724781729280949E-003
  0.18800000000000000         -3.0574814882129431E-003
  0.18910000000000005         -2.9479213990271091E-003
  0.19020000000000004         -2.8436274733394384E-003
  0.19130000000000003         -2.7443866711109877E-003
  0.19240000000000002         -2.6500055100768805E-003
  0.19350000000000001         -2.5603205431252718E-003
  0.19460000000000005         -2.4751536548137665E-003
  0.19570000000000004         -2.3942736443132162E-003
  0.19680000000000003         -2.3174188099801540E-003
  0.19790000000000002         -2.2443593479692936E-003
  0.19900000000000001         -2.1749320439994335E-003
  0.20010000000000000         -2.1090020891278982E-003
  0.20120000000000005         -2.0463932305574417E-003
  0.20230000000000004         -1.9868591334670782E-003
  0.20340000000000003         -1.9301368156448007E-003
  0.20450000000000002         -1.8760266248136759E-003
  0.20560000000000000         -1.8244124948978424E-003
  0.20670000000000005         -1.7751965206116438E-003
  0.20780000000000004         -1.7282126937061548E-003
  0.20890000000000003         -1.6832114197313786E-003
