 -0.12000000000000000          0.0000000000000000
 -0.11889999999999999          0.0000000000000000
 -0.11780000000000000          0.0000000000000000
 -0.11670000000000000          0.0000000000000000
 -0.11559999999999999          0.0000000000000000
 -0.11449999999999999          0.0000000000000000
 -0.11340000000000000          0.0000000000000000
 -0.11230000000000000          0.0000000000000000
 -0.11119999999999999          1.4560644480329858E-019
 -0.11009999999999999          1.8331325330667814E-018
 -0.10900000000000000          9.9974297875883880E-018
 -0.10790000000000000          2.7090080688689176E-017
 -0.10679999999999999          1.1027995914794729E-017
 -0.10569999999999999         -2.0097369421512513E-016
 -0.10460000000000000         -8.2266375642223491E-016
 -0.10349999999999999         -1.5019186938854492E-015
 -0.10239999999999999         -1.4404135404727259E-016
 -0.10130000000000000          7.0921979735143106E-015
 -0.10020000000000000          2.0918913506257596E-014
  -9.9099999999999994E-002     2.7905585150587650E-014
  -9.7999999999999990E-002    -6.4516962227560790E-015
  -9.6899999999999986E-002    -1.1601989171900612E-013
  -9.5799999999999996E-002    -2.6631306751859207E-013
  -9.4699999999999993E-002    -2.7796498826629379E-013
  -9.3599999999999989E-002     1.3889800767885596E-013
  -9.2499999999999999E-002     1.1088415342169755E-012
  -9.1399999999999995E-002     2.1300092765963452E-012
  -9.0299999999999991E-002     1.8507205316875552E-012
  -8.9200000000000002E-002    -1.2632933978420913E-012
  -8.8099999999999984E-002    -7.1308930982283414E-012
  -8.6999999999999994E-002    -1.2124551362902025E-011
  -8.5899999999999990E-002    -9.3203066792169054E-012
  -8.4799999999999986E-002     6.9950516733141566E-012
  -8.3699999999999997E-002     3.3533904819638138E-011
  -8.2599999999999993E-002     5.2714731885172839E-011
  -8.1499999999999989E-002     3.8074269431698227E-011
  -8.0399999999999999E-002    -2.6195311544907618E-011
  -7.9299999999999995E-002    -1.2060673293401436E-010
  -7.8199999999999992E-002    -1.8192519712911803E-010
  -7.7100000000000002E-002    -1.3099309137398762E-010
  -7.5999999999999984E-002     6.5621043321417716E-011
  -7.4899999999999994E-002     3.3695854440018991E-010
  -7.3799999999999991E-002     5.0753851121854154E-010
  -7.2699999999999987E-002     3.8740849417351342E-010
  -7.1599999999999997E-002    -8.1269470320055603E-011
  -7.0499999999999993E-002    -7.1930589262692024E-010
  -6.9399999999999989E-002    -1.1494519780441692E-009
  -6.8300000000000000E-002    -9.9855412827309920E-010
  -6.7199999999999996E-002    -1.5740904413252821E-010
  -6.6099999999999992E-002     1.0769923841635887E-009
  -6.5000000000000002E-002     2.0955557289425997E-009
  -6.3899999999999985E-002     2.2712474123665061E-009
  -6.2799999999999995E-002     1.2841935292939866E-009
  -6.1699999999999991E-002    -6.9214961539998399E-010
  -6.0599999999999994E-002    -2.9951456870236370E-009
  -5.9499999999999990E-002    -4.6164516653846022E-009
  -5.8399999999999994E-002    -4.4611230265445556E-009
  -5.7299999999999990E-002    -1.7921872874637756E-009
  -5.6199999999999986E-002     3.1235818376273983E-009
  -5.5099999999999996E-002     8.4690281454413707E-009
  -5.3999999999999992E-002     1.1073871597488960E-008
  -5.2899999999999989E-002     7.8754656129831346E-009
  -5.1799999999999985E-002    -1.7066555946243511E-009
  -5.0699999999999995E-002    -1.3997863312908976E-008
  -4.9599999999999991E-002    -2.1792713411628029E-008
  -4.8499999999999988E-002    -1.8218575092987521E-008
  -4.7399999999999998E-002    -1.9132675443955804E-009
  -4.6299999999999994E-002     2.0167904679624371E-008
  -4.5199999999999990E-002     3.5296519484973032E-008
  -4.4099999999999986E-002     3.2366809676886987E-008
  -4.2999999999999997E-002     9.6705754515369335E-009
  -4.1899999999999993E-002    -2.2562993251540320E-008
  -4.0799999999999989E-002    -4.7278778225745555E-008
  -3.9699999999999985E-002    -5.0306379506537269E-008
  -3.8599999999999995E-002    -2.8232157944785286E-008
  -3.7499999999999992E-002     1.0374108683208760E-008
  -3.6399999999999988E-002     4.9918053690589659E-008
  -3.5299999999999984E-002     7.4329896904146153E-008
  -3.4199999999999994E-002     7.1333744244839181E-008
  -3.3099999999999991E-002     3.4938761217517822E-008
  -3.1999999999999987E-002    -3.0679192519755816E-008
  -3.0899999999999997E-002    -1.0578543907513449E-007
  -2.9799999999999993E-002    -1.5442289225120476E-007
  -2.8699999999999989E-002    -1.3664055131812347E-007
  -2.7599999999999986E-002    -3.3727413750739288E-008
  -2.6499999999999996E-002     1.2745950073167478E-007
  -2.5399999999999992E-002     2.7242606392974267E-007
  -2.4299999999999988E-002     3.1087057550394093E-007
  -2.3199999999999985E-002     1.9013293695024913E-007
  -2.2099999999999995E-002    -6.2740546979966894E-008
  -2.0999999999999991E-002    -3.4204489907097013E-007
  -1.9899999999999987E-002    -5.1293017122588935E-007
  -1.8799999999999983E-002    -4.8129521701412159E-007
  -1.7699999999999994E-002    -2.4141530730048544E-007
  -1.6599999999999990E-002     1.2507197766353784E-007
  -1.5499999999999986E-002     4.9129909029943519E-007
  -1.4399999999999996E-002     7.3692348223630688E-007
  -1.3299999999999992E-002     7.8166465300455457E-007
  -1.2199999999999989E-002     5.9637034155457513E-007
  -1.1099999999999985E-002     2.0582240267685847E-007
  -9.9999999999999950E-003    -3.0690907237840293E-007
  -8.8999999999999913E-003    -8.0466838880965952E-007
  -7.7999999999999875E-003    -1.1291321015960420E-006
  -6.6999999999999837E-003    -1.1654580021058791E-006
  -5.5999999999999939E-003    -9.0794992502196692E-007
  -4.4999999999999901E-003    -4.7732578423165251E-007
  -3.3999999999999864E-003    -6.0302610904727771E-008
  -2.2999999999999826E-003     2.0699536662505125E-007
  -1.1999999999999927E-003     3.4492862255319778E-007
  -9.9999999999988987E-005     5.5351279115711804E-007
   1.0000000000000148E-003     1.1214764299438684E-006
   2.1000000000000185E-003     2.2503452328237472E-006
   3.2000000000000084E-003     3.8684270293742884E-006
   4.3000000000000121E-003     5.5208683988894336E-006
   5.4000000000000159E-003     6.3990519265644252E-006
   6.5000000000000058E-003     5.5238388085854240E-006
   7.6000000000000234E-003     2.0322554519225378E-006
   8.7000000000000133E-003    -4.5460506044037174E-006
   9.8000000000000032E-003    -1.4163407286105212E-005
   1.0900000000000021E-002    -2.6374807930551469E-005
   1.2000000000000011E-002    -4.0679413359612226E-005
   1.3100000000000001E-002    -5.6921602663351223E-005
   1.4200000000000018E-002    -7.5534066127147526E-005
   1.5300000000000008E-002    -9.7489522886462510E-005
   1.6400000000000026E-002    -1.2401498679537326E-004
   1.7500000000000016E-002    -1.5628710389137268E-004
   1.8600000000000005E-002    -1.9534333841875196E-004
   1.9700000000000023E-002    -2.4229157133959234E-004
   2.0800000000000013E-002    -2.9869261197745800E-004
   2.1900000000000003E-002    -3.6688178079202771E-004
   2.3000000000000020E-002    -4.5006588334217668E-004
   2.4100000000000010E-002    -5.5221235379576683E-004
   2.5200000000000000E-002    -6.7789229797199368E-004
   2.6300000000000018E-002    -8.3223968977108598E-004
   2.7400000000000008E-002    -1.0210663313046098E-003
   2.8500000000000025E-002    -1.2510467786341906E-003
   2.9600000000000015E-002    -1.5298586804419756E-003
   3.0700000000000005E-002    -1.8662431975826621E-003
   3.1800000000000023E-002    -2.2700484842061996E-003
   3.2900000000000013E-002    -2.7523685712367296E-003
   3.4000000000000002E-002    -3.3258507028222084E-003
   3.5100000000000020E-002    -4.0051615796983242E-003
   3.6200000000000010E-002    -4.8075360246002674E-003
   3.7300000000000028E-002    -5.7532647624611855E-003
   3.8400000000000017E-002    -6.8659679964184761E-003
   3.9500000000000007E-002    -8.1725614145398140E-003
   4.0600000000000025E-002    -9.7029237076640129E-003
   4.1700000000000015E-002    -1.1489479802548885E-002
   4.2800000000000005E-002    -1.3567078858613968E-002
   4.3900000000000022E-002    -1.5973400324583054E-002
   4.5000000000000012E-002    -1.8749793991446495E-002
   4.6100000000000002E-002    -2.1942151710391045E-002
   4.7200000000000020E-002    -2.5601247325539589E-002
   4.8300000000000010E-002    -2.9782321304082870E-002
   4.9400000000000027E-002    -3.4544173628091812E-002
   5.0500000000000017E-002    -3.9948303252458572E-002
   5.1600000000000007E-002    -4.6058557927608490E-002
   5.2700000000000025E-002    -5.2941270172595978E-002
   5.3800000000000014E-002    -6.0665331780910492E-002
   5.4900000000000004E-002    -6.9301716983318329E-002
   5.6000000000000022E-002    -7.8922174870967865E-002
   5.7100000000000012E-002    -8.9597381651401520E-002
   5.8200000000000002E-002   -0.10139507800340652
   5.9300000000000019E-002   -0.11437840014696121
   6.0400000000000009E-002   -0.12860454618930817
   6.1500000000000027E-002   -0.14412373304367065
   6.2600000000000017E-002   -0.16097773611545563
   6.3700000000000007E-002   -0.17919777333736420
   6.4800000000000024E-002   -0.19880178570747375
   6.5900000000000014E-002   -0.21979124844074249
   6.7000000000000004E-002   -0.24214783310890198
   6.8100000000000022E-002   -0.26582974195480347
   6.9200000000000012E-002   -0.29076898097991943
   7.0300000000000029E-002   -0.31686970591545105
   7.1400000000000019E-002   -0.34400665760040283
   7.2500000000000009E-002   -0.37202382087707520
   7.3600000000000027E-002   -0.40073195099830627
   7.4700000000000016E-002   -0.42990559339523315
   7.5800000000000006E-002   -0.45928111672401428
   7.6900000000000024E-002   -0.48855617642402649
   7.8000000000000014E-002   -0.51739048957824707
   7.9100000000000004E-002   -0.54540657997131348
   8.0200000000000021E-002   -0.57219123840332031
   8.1300000000000011E-002   -0.59729659557342529
   8.2400000000000029E-002   -0.62024313211441040
   8.3500000000000019E-002   -0.64052534103393555
   8.4600000000000009E-002   -0.65761518478393555
   8.5700000000000026E-002   -0.67096900939941406
   8.6800000000000016E-002   -0.68003708124160767
   8.7900000000000006E-002   -0.68427097797393799
   8.9000000000000024E-002   -0.68313235044479370
   9.0100000000000013E-002   -0.67609977722167969
   9.1200000000000003E-002   -0.66267830133438110
   9.2300000000000021E-002   -0.64241045713424683
   9.3400000000000011E-002   -0.61488753557205200
   9.4500000000000028E-002   -0.57976168394088745
   9.5600000000000018E-002   -0.53675955533981323
   9.6700000000000008E-002   -0.48569646477699280
   9.7800000000000026E-002   -0.42648267745971680
   9.8900000000000016E-002   -0.35913190245628357
  0.10000000000000001        -0.28377014398574829
  0.10110000000000002        -0.20063665509223938
  0.10220000000000001        -0.11008699983358383
  0.10330000000000003         -1.2600283138453960E-002
  0.10440000000000002          9.1216787695884705E-002
  0.10550000000000001         0.20063114166259766
  0.10660000000000003         0.31478652358055115
  0.10770000000000002         0.43270790576934814
  0.10880000000000001         0.55331194400787354
  0.10990000000000003         0.67542111873626709
  0.11100000000000002         0.79777842760086060
  0.11210000000000001         0.91906100511550903
  0.11320000000000002          1.0378987789154053
  0.11430000000000001          1.1528964042663574
  0.11540000000000003          1.2626543045043945
  0.11650000000000002          1.3657869100570679
  0.11760000000000001          1.4609391689300537
  0.11870000000000003          1.5468083620071411
  0.11980000000000002          1.6221690177917480
  0.12090000000000001          1.6858992576599121
  0.12200000000000003          1.7370046377182007
  0.12310000000000001          1.7746388912200928
  0.12420000000000003          1.7981187105178833
  0.12530000000000002          1.8069343566894531
  0.12640000000000001          1.8007603883743286
  0.12750000000000003          1.7794620990753174
  0.12860000000000002          1.7430977821350098
  0.12970000000000001          1.6919189691543579
  0.13080000000000003          1.6263705492019653
  0.13190000000000002          1.5470902919769287
  0.13300000000000001          1.4549031257629395
  0.13410000000000000          1.3508131504058838
  0.13520000000000004          1.2359853982925415
  0.13630000000000003          1.1117196083068848
  0.13740000000000002         0.97942596673965454
  0.13850000000000001         0.84060096740722656
  0.13960000000000000         0.69680756330490112
  0.14070000000000005         0.54965561628341675
  0.14180000000000004         0.40077409148216248
  0.14290000000000003         0.25178432464599609
  0.14400000000000002         0.10427530109882355
  0.14510000000000001         -4.0214613080024719E-002
  0.14620000000000000        -0.18021212518215179
  0.14730000000000004        -0.31433591246604919
  0.14840000000000003        -0.44132414460182190
  0.14950000000000002        -0.56005489826202393
  0.15060000000000001        -0.66956055164337158
  0.15170000000000000        -0.76902663707733154
  0.15280000000000005        -0.85778844356536865
  0.15390000000000004        -0.93533873558044434
  0.15500000000000003         -1.0013358592987061
  0.15610000000000002         -1.0556027889251709
  0.15720000000000001         -1.0981203317642212
  0.15830000000000000         -1.1290155649185181
  0.15940000000000004         -1.1485484838485718
  0.16050000000000003         -1.1571054458618164
  0.16160000000000002         -1.1551907062530518
  0.16270000000000001         -1.1434161663055420
  0.16380000000000000         -1.1224850416183472
  0.16490000000000005         -1.0931679010391235
  0.16600000000000004         -1.0562844276428223
  0.16710000000000003         -1.0126879215240479
  0.16820000000000002        -0.96325093507766724
  0.16930000000000001        -0.90885353088378906
  0.17040000000000000        -0.85037094354629517
  0.17150000000000004        -0.78866070508956909
  0.17260000000000003        -0.72455281019210815
  0.17370000000000002        -0.65884208679199219
  0.17480000000000001        -0.59228056669235229
  0.17590000000000000        -0.52556836605072021
  0.17700000000000005        -0.45934432744979858
  0.17810000000000004        -0.39418095350265503
  0.17920000000000003        -0.33058515191078186
  0.18030000000000002        -0.26900196075439453
  0.18140000000000001        -0.20981767773628235
  0.18250000000000000        -0.15335838496685028
  0.18360000000000004         -9.9886849522590637E-002
  0.18470000000000003         -4.9604266881942749E-002
  0.18580000000000002         -2.6585096493363380E-003
  0.18690000000000001          4.0844302624464035E-002
  0.18800000000000000          8.0831527709960938E-002
  0.18910000000000005         0.11726371198892593
  0.19020000000000004         0.15013898909091949
  0.19130000000000003         0.17949397861957550
  0.19240000000000002         0.20539619028568268
  0.19350000000000001         0.22793054580688477
  0.19460000000000005         0.24718749523162842
  0.19570000000000004         0.26326027512550354
  0.19680000000000003         0.27625089883804321
  0.19790000000000002         0.28627592325210571
  0.19900000000000001         0.29346445202827454
  0.20010000000000000         0.29794740676879883
  0.20120000000000005         0.29984614253044128
  0.20230000000000004         0.29927039146423340
  0.20340000000000003         0.29632633924484253
  0.20450000000000002         0.29112845659255981
  0.20560000000000000         0.28380542993545532
  0.20670000000000005         0.27449429035186768
  0.20780000000000004         0.26332831382751465
  0.20890000000000003         0.25042924284934998
