 -0.12000000000000000          0.0000000000000000
 -0.11889999999999999          0.0000000000000000
 -0.11780000000000000          0.0000000000000000
 -0.11670000000000000          0.0000000000000000
 -0.11559999999999999          0.0000000000000000
 -0.11449999999999999          0.0000000000000000
 -0.11340000000000000          0.0000000000000000
 -0.11230000000000000          0.0000000000000000
 -0.11119999999999999          0.0000000000000000
 -0.11009999999999999         -1.7636894132790607E-027
 -0.10900000000000000          6.2689691454169129E-026
 -0.10790000000000000          2.5183810009834188E-025
 -0.10679999999999999         -5.4104074488389671E-025
 -0.10569999999999999         -3.1689469474291679E-024
 -0.10460000000000000          6.6645540959622098E-024
 -0.10349999999999999          5.7985915035867067E-023
 -0.10239999999999999          5.9470816316757166E-023
 -0.10130000000000000         -4.0134004110312605E-022
 -0.10020000000000000         -1.4508449060560335E-021
  -9.9099999999999994E-002    -6.5687990669517349E-022
  -9.7999999999999990E-002     7.5003858873164194E-021
  -9.6899999999999986E-002     2.0812615459851436E-020
  -9.5799999999999996E-002     7.5498390094848729E-021
  -9.4699999999999993E-002    -8.4185686457124977E-020
  -9.3599999999999989E-002    -2.1811721362197063E-019
  -9.2499999999999999E-002    -1.1220278494278473E-019
  -9.1399999999999995E-002     6.3692431537730913E-019
  -9.0299999999999991E-002     1.7666753950881992E-018
  -8.9200000000000002E-002     1.3660747195609118E-018
  -8.8099999999999984E-002    -3.2968455841819212E-018
  -8.6999999999999994E-002    -1.1214334064203937E-017
  -8.5899999999999990E-002    -1.2075104827071518E-017
  -8.4799999999999986E-002     1.0212800322136982E-017
  -8.3699999999999997E-002     5.5629762313653031E-017
  -8.2599999999999993E-002     7.9450082413342569E-017
  -8.1499999999999989E-002     5.8355219241233841E-019
  -8.0399999999999999E-002    -2.1040229588369856E-016
  -7.9299999999999995E-002    -4.0067263031441213E-016
  -7.8199999999999992E-002    -2.2581093692499755E-016
  -7.7100000000000002E-002     5.5622276659981671E-016
  -7.5999999999999984E-002     1.5652984635593442E-015
  -7.4899999999999994E-002     1.5862287535651164E-015
  -7.3799999999999991E-002    -6.4229497244712810E-016
  -7.2699999999999987E-002    -4.6525736788324747E-015
  -7.1599999999999997E-002    -6.9644531230906269E-015
  -7.0499999999999993E-002    -2.6275595180956469E-015
  -6.9399999999999989E-002     9.6553522826742927E-015
  -6.8300000000000000E-002     2.2214325038206854E-014
  -6.7199999999999996E-002     1.9715659158969605E-014
  -6.6099999999999992E-002    -8.6360557038380435E-015
  -6.5000000000000002E-002    -5.1945145911449012E-014
  -6.3899999999999985E-002    -7.2569974660617598E-014
  -6.2799999999999995E-002    -2.8883101829300581E-014
  -6.1699999999999991E-002     7.9958378785237316E-014
  -6.0599999999999994E-002     1.8326314044862096E-013
  -5.9499999999999990E-002     1.6699472750805744E-013
  -5.8399999999999994E-002    -3.1372341925900785E-014
  -5.7299999999999990E-002    -3.2346377638013679E-013
  -5.6199999999999986E-002    -4.7128961974327033E-013
  -5.5099999999999996E-002    -2.4647913376106556E-013
  -5.3999999999999992E-002     3.3264385169984312E-013
  -5.2899999999999989E-002     8.9144159718876348E-013
  -5.1799999999999985E-002     8.9355514090380672E-013
  -5.0699999999999995E-002     8.8214408922124982E-014
  -4.9599999999999991E-002    -1.1232446179773592E-012
  -4.8499999999999988E-002    -1.8006342944465459E-012
  -4.7399999999999998E-002    -1.1436836720724042E-012
  -4.6299999999999994E-002     7.0612499137798213E-013
  -4.5199999999999990E-002     2.4737538406593984E-012
  -4.4099999999999986E-002     2.5699865412870393E-012
  -4.2999999999999997E-002     4.7395263711932922E-013
  -4.1899999999999993E-002    -2.4683774989264773E-012
  -4.0799999999999989E-002    -3.7790677705207276E-012
  -3.9699999999999985E-002    -1.8737606952146102E-012
  -3.8599999999999995E-002     2.1888159687510900E-012
  -3.7499999999999992E-002     4.9956714112675549E-012
  -3.6399999999999988E-002     3.4113744815100766E-012
  -3.5299999999999984E-002    -2.3091116692353086E-012
  -3.4199999999999994E-002    -7.7659198516322192E-012
  -3.3099999999999991E-002    -7.3881178952461823E-012
  -3.1999999999999987E-002     6.4299162782360808E-013
  -3.0899999999999997E-002     1.1573002972609103E-011
  -2.9799999999999993E-002     1.6473870878552788E-011
  -2.8699999999999989E-002     8.9835179226116502E-012
  -2.7599999999999986E-002    -8.5550403566836408E-012
  -2.6499999999999996E-002    -2.4974536327881935E-011
  -2.5399999999999992E-002    -2.7432302956986732E-011
  -2.4299999999999988E-002    -1.1152200690700553E-011
  -2.3199999999999985E-002     1.5727311813984457E-011
  -2.2099999999999995E-002     3.6603633318810225E-011
  -2.0999999999999991E-002     3.7558022664141433E-011
  -1.9899999999999987E-002     1.7148652289855626E-011
  -1.8799999999999983E-002    -1.2531794178760602E-011
  -1.7699999999999994E-002    -3.4384203817516834E-011
  -1.6599999999999990E-002    -3.7961616489168293E-011
  -1.5499999999999986E-002    -2.5526341457249302E-011
  -1.4399999999999996E-002    -8.2990524175041713E-012
  -1.3299999999999992E-002     3.6269164754854089E-012
  -1.2199999999999989E-002     9.4186125912387730E-012
  -1.1099999999999985E-002     1.7046752898153272E-011
  -9.9999999999999950E-003     3.4312275243308932E-011
  -8.8999999999999913E-003     5.8197485025557327E-011
  -7.7999999999999875E-003     7.1417781410954007E-011
  -6.6999999999999837E-003     5.0876403784316793E-011
  -5.5999999999999939E-003    -1.5240824227658045E-011
  -4.4999999999999901E-003    -1.1204134842124347E-010
  -3.3999999999999864E-003    -1.9601238687716460E-010
  -2.2999999999999826E-003    -2.1233532987441350E-010
  -1.1999999999999927E-003    -1.2549992989274728E-010
  -9.9999999999988987E-005     5.3367425062456064E-011
   1.0000000000000148E-003     2.6082663806548112E-010
   2.1000000000000185E-003     4.0477241003422648E-010
   3.2000000000000084E-003     4.0710856907821835E-010
   4.3000000000000121E-003     2.4212892801855901E-010
   5.4000000000000159E-003    -5.0296943693295404E-011
   6.5000000000000058E-003    -3.8071718000409760E-010
   7.6000000000000234E-003    -6.4128002907892778E-010
   8.7000000000000133E-003    -7.3422173896275922E-010
   9.8000000000000032E-003    -5.9224275483771294E-010
   1.0900000000000021E-002    -1.9955849472896858E-010
   1.2000000000000011E-002     3.8009073666245285E-010
   1.3100000000000001E-002     9.8352737065710016E-010
   1.4200000000000018E-002     1.3702800005788163E-009
   1.5300000000000008E-002     1.3095285966713277E-009
   1.6400000000000026E-002     7.0832201215509372E-010
   1.7500000000000016E-002    -2.9243493737673987E-010
   1.8600000000000005E-002    -1.3340465399025447E-009
   1.9700000000000023E-002    -1.9892720803937891E-009
   2.0800000000000013E-002    -1.9741341894530251E-009
   2.1900000000000003E-002    -1.2952460215487349E-009
   2.3000000000000020E-002    -2.3592716669185165E-010
   2.4100000000000010E-002     8.1096052095830373E-010
   2.5200000000000000E-002     1.5503891503954037E-009
   2.6300000000000018E-002     1.8944712465440716E-009
   2.7400000000000008E-002     1.9124415384652593E-009
   2.8500000000000025E-002     1.6829356797032347E-009
   2.9600000000000015E-002     1.1854512926845473E-009
   3.0700000000000005E-002     3.3625691120420242E-010
   3.1800000000000023E-002    -8.4491430518696120E-010
   3.2900000000000013E-002    -2.0728196936659060E-009
   3.4000000000000002E-002    -2.8087476788840604E-009
   3.5100000000000020E-002    -2.5254600632962365E-009
   3.6200000000000010E-002    -1.1296898971835390E-009
   3.7300000000000028E-002     7.1140193735885759E-010
   3.8400000000000017E-002     1.6275158998269035E-009
   3.9500000000000007E-002     1.2621856337879933E-010
   4.0600000000000025E-002    -4.4524588460603809E-009
   4.1700000000000015E-002    -1.1046412673465511E-008
   4.2800000000000005E-002    -1.6582118789187916E-008
   4.3900000000000022E-002    -1.6604058572511349E-008
   4.5000000000000012E-002    -6.6686443034313925E-009
   4.6100000000000002E-002     1.6130574209682891E-008
   4.7200000000000020E-002     5.2313019693883689E-008
   4.8300000000000010E-002     1.0034928266122733E-007
   4.9400000000000027E-002     1.5807295028480439E-007
   5.0500000000000017E-002     2.2446504033268866E-007
   5.1600000000000007E-002     3.0093875125203340E-007
   5.2700000000000025E-002     3.9160161691143003E-007
   5.3800000000000014E-002     5.0260649686606484E-007
   5.4900000000000004E-002     6.4120308707060758E-007
   5.6000000000000022E-002     8.1516981254026177E-007
   5.7100000000000012E-002     1.0329569022360374E-006
   5.8200000000000002E-002     1.3043812714386149E-006
   5.9300000000000019E-002     1.6414123820140958E-006
   6.0400000000000009E-002     2.0586328446370317E-006
   6.1500000000000027E-002     2.5732522317412077E-006
   6.2600000000000017E-002     3.2049194942374015E-006
   6.3700000000000007E-002     3.9757915146765299E-006
   6.4800000000000024E-002     4.9112773012893740E-006
   6.5900000000000014E-002     6.0416032283683307E-006
   6.7000000000000004E-002     7.4039166975126136E-006
   6.8100000000000022E-002     9.0442990767769516E-006
   6.9200000000000012E-002     1.1019006706192158E-005
   7.0300000000000029E-002     1.3394631423579995E-005
   7.1400000000000019E-002     1.6247533494606614E-005
   7.2500000000000009E-002     1.9663446437334642E-005
   7.3600000000000027E-002     2.3738193704048172E-005
   7.4700000000000016E-002     2.8579903300851583E-005
   7.5800000000000006E-002     3.4312219213461503E-005
   7.6900000000000024E-002     4.1077506466535851E-005
   7.8000000000000014E-002     4.9039204895962030E-005
   7.9100000000000004E-002     5.8383109717397019E-005
   8.0200000000000021E-002     6.9318193709477782E-005
   8.1300000000000011E-002     8.2077858678530902E-005
   8.2400000000000029E-002     9.6921983640640974E-005
   8.3500000000000019E-002     1.1413978063501418E-004
   8.4600000000000009E-002     1.3405256322585046E-004
   8.5700000000000026E-002     1.5701583470217884E-004
   8.6800000000000016E-002     1.8342034309171140E-004
   8.7900000000000006E-002     2.1369184833019972E-004
   8.9000000000000024E-002     2.4829033645801246E-004
   9.0100000000000013E-002     2.8770894277840853E-004
   9.1200000000000003E-002     3.3247351530008018E-004
   9.2300000000000021E-002     3.8314264384098351E-004
   9.3400000000000011E-002     4.4030809658579528E-004
   9.4500000000000028E-002     5.0459417980164289E-004
   9.5600000000000018E-002     5.7665508938953280E-004
   9.6700000000000008E-002     6.5716909011825919E-004
   9.7800000000000026E-002     7.4683030834421515E-004
   9.8900000000000016E-002     8.4633968072012067E-004
  0.10000000000000001          9.5639645587652922E-004
  0.10110000000000002          1.0776907438412309E-003
  0.10220000000000001          1.2108954833820462E-003
  0.10330000000000003          1.3566556153818965E-003
  0.10440000000000002          1.5155745204538107E-003
  0.10550000000000001          1.6881976043805480E-003
  0.10660000000000003          1.8749941373243928E-003
  0.10770000000000002          2.0763389766216278E-003
  0.10880000000000001          2.2924933582544327E-003
  0.10990000000000003          2.5235875509679317E-003
  0.11100000000000002          2.7696029283106327E-003
  0.11210000000000001          3.0303557869046926E-003
  0.11320000000000002          3.3054798841476440E-003
  0.11430000000000001          3.5944080445915461E-003
  0.11540000000000003          3.8963537663221359E-003
  0.11650000000000002          4.2102946899831295E-003
  0.11760000000000001          4.5349597930908203E-003
  0.11870000000000003          4.8688161186873913E-003
  0.11980000000000002          5.2100606262683868E-003
  0.12090000000000001          5.5566178634762764E-003
  0.12200000000000003          5.9061367064714432E-003
  0.12310000000000001          6.2559954822063446E-003
  0.12420000000000003          6.6033066250383854E-003
  0.12530000000000002          6.9449339061975479E-003
  0.12640000000000001          7.2775087319314480E-003
  0.12750000000000003          7.5974566861987114E-003
  0.12860000000000002          7.9010259360074997E-003
  0.12970000000000001          8.1843202933669090E-003
  0.13080000000000003          8.4433350712060928E-003
  0.13190000000000002          8.6739985272288322E-003
  0.13300000000000001          8.8722286745905876E-003
  0.13410000000000000          9.0339770540595055E-003
  0.13520000000000004          9.1552967205643654E-003
  0.13630000000000003          9.2323953285813332E-003
  0.13740000000000002          9.2616928741335869E-003
  0.13850000000000001          9.2398868873715401E-003
  0.13960000000000000          9.1640101745724678E-003
  0.14070000000000005          9.0314894914627075E-003
  0.14180000000000004          8.8401995599269867E-003
  0.14290000000000003          8.5885096341371536E-003
  0.14400000000000002          8.2753356546163559E-003
  0.14510000000000001          7.9001747071743011E-003
  0.14620000000000000          7.4631455354392529E-003
  0.14730000000000004          6.9650085642933846E-003
  0.14840000000000003          6.4071845263242722E-003
  0.14950000000000002          5.7917628437280655E-003
  0.15060000000000001          5.1214955747127533E-003
  0.15170000000000000          4.3997857719659805E-003
  0.15280000000000005          3.6306595429778099E-003
  0.15390000000000004          2.8187334537506104E-003
  0.15500000000000003          1.9691691268235445E-003
  0.15610000000000002          1.0876207379624248E-003
  0.15720000000000001          1.8017522234003991E-004
  0.15830000000000000         -7.4671464972198009E-004
  0.15940000000000004         -1.6863030614331365E-003
  0.16050000000000003         -2.6316279545426369E-003
  0.16160000000000002         -3.5755918361246586E-003
  0.16270000000000001         -4.5110452920198441E-003
  0.16380000000000000         -5.4308711551129818E-003
  0.16490000000000005         -6.3280705362558365E-003
  0.16600000000000004         -7.1958410553634167E-003
  0.16710000000000003         -8.0276513472199440E-003
  0.16820000000000002         -8.8173039257526398E-003
  0.16930000000000001         -9.5590008422732353E-003
  0.17040000000000000         -1.0247391648590565E-002
  0.17150000000000004         -1.0877622291445732E-002
  0.17260000000000003         -1.1445363052189350E-002
  0.17370000000000002         -1.1946832761168480E-002
  0.17480000000000001         -1.2378822080790997E-002
  0.17590000000000000         -1.2738694436848164E-002
  0.17700000000000005         -1.3024381361901760E-002
  0.17810000000000004         -1.3234370388090611E-002
  0.17920000000000003         -1.3367676176130772E-002
  0.18030000000000002         -1.3423823751509190E-002
  0.18140000000000001         -1.3402814045548439E-002
  0.18250000000000000         -1.3305095024406910E-002
  0.18360000000000004         -1.3131516054272652E-002
  0.18470000000000003         -1.2883285991847515E-002
  0.18580000000000002         -1.2561929412186146E-002
  0.18690000000000001         -1.2169257737696171E-002
  0.18800000000000000         -1.1707332916557789E-002
  0.18910000000000005         -1.1178437620401382E-002
  0.19020000000000004         -1.0585055686533451E-002
  0.19130000000000003         -9.9298525601625443E-003
  0.19240000000000002         -9.2156669124960899E-003
  0.19350000000000001         -8.4455050528049469E-003
  0.19460000000000005         -7.6225432567298412E-003
  0.19570000000000004         -6.7501468583941460E-003
  0.19680000000000003         -5.8318846859037876E-003
  0.19790000000000002         -4.8715486191213131E-003
  0.19900000000000001         -3.8731796666979790E-003
  0.20010000000000000         -2.8410977683961391E-003
  0.20120000000000005         -1.7799390479922295E-003
  0.20230000000000004         -6.9469277514144778E-004
  0.20340000000000003          4.0926653309725225E-004
  0.20450000000000002          1.5261534135788679E-003
  0.20560000000000000          2.6497505605220795E-003
  0.20670000000000005          3.7733919452875853E-003
  0.20780000000000004          4.8899534158408642E-003
  0.20890000000000003          5.9918519109487534E-003
