 -0.12000000000000000          0.0000000000000000
 -0.11889999999999999          0.0000000000000000
 -0.11780000000000000          0.0000000000000000
 -0.11670000000000000          0.0000000000000000
 -0.11559999999999999          0.0000000000000000
 -0.11449999999999999          0.0000000000000000
 -0.11340000000000000          0.0000000000000000
 -0.11230000000000000          0.0000000000000000
 -0.11119999999999999          0.0000000000000000
 -0.11009999999999999          0.0000000000000000
 -0.10900000000000000          0.0000000000000000
 -0.10790000000000000          0.0000000000000000
 -0.10679999999999999          0.0000000000000000
 -0.10569999999999999          1.1304627985304220E-029
 -0.10460000000000000          1.3741652190536326E-028
 -0.10349999999999999          6.3648465025024777E-028
 -0.10239999999999999          4.9388667864487800E-028
 -0.10130000000000000         -9.4201193291945366E-027
 -0.10020000000000000         -5.4794142891183395E-026
  -9.9099999999999994E-002    -1.3913510796527472E-025
  -9.7999999999999990E-002    -4.5328872060372644E-026
  -9.6899999999999986E-002     9.9143841352950458E-025
  -9.5799999999999996E-002     3.9342138118359245E-024
  -9.4699999999999993E-002     6.9726523999662334E-024
  -9.3599999999999989E-002    -7.6682757640392976E-025
  -9.2499999999999999E-002    -4.0943701671939763E-023
  -9.1399999999999995E-002    -1.2062603368189120E-022
  -9.0299999999999991E-002    -1.5993165306236505E-022
  -8.9200000000000002E-002     8.1923848717700736E-023
  -8.8099999999999984E-002     9.0007610598265498E-022
  -8.6999999999999994E-002     2.1101803537334300E-021
  -8.5899999999999990E-002     2.1760377437626458E-021
  -8.4799999999999986E-002    -1.9731464549850487E-021
  -8.3699999999999997E-002    -1.2485416506054950E-020
  -8.2599999999999993E-002    -2.4501837760663672E-020
  -8.1499999999999989E-002    -2.0207927045029566E-020
  -8.0399999999999999E-002     2.6239627905363943E-020
  -7.9299999999999995E-002     1.2123087971743282E-019
  -7.8199999999999992E-002     2.0691979891681100E-019
  -7.7100000000000002E-002     1.4050677292933260E-019
  -7.5999999999999984E-002    -2.3305707776165571E-019
  -7.4899999999999994E-002    -8.8026792689333873E-019
  -7.3799999999999991E-002    -1.3495565431136873E-018
  -7.2699999999999987E-002    -7.8722008584726204E-019
  -7.1599999999999997E-002     1.5019517496770880E-018
  -7.0499999999999993E-002     4.9907863676228732E-018
  -6.9399999999999989E-002     7.0898585016012187E-018
  -6.8300000000000000E-002     3.8002530225258210E-018
  -6.7199999999999996E-002    -7.2977405700643703E-018
  -6.6099999999999992E-002    -2.2728845355258467E-017
  -6.5000000000000002E-002    -3.0964040466877147E-017
  -6.3899999999999985E-002    -1.6748124385708164E-017
  -6.2799999999999995E-002     2.6881677496440116E-017
  -6.1699999999999991E-002     8.4641084125921146E-017
  -6.0599999999999994E-002     1.1531891679213250E-016
  -5.9499999999999990E-002     6.9610087430199561E-017
  -5.8399999999999994E-002    -7.1761643760454090E-017
  -5.7299999999999990E-002    -2.6015666709828134E-016
  -5.6199999999999986E-002    -3.7426698698869016E-016
  -5.5099999999999996E-002    -2.7219289939964654E-016
  -5.3999999999999992E-002     1.0943017830669809E-016
  -5.2899999999999989E-002     6.6043698880921672E-016
  -5.1799999999999985E-002     1.0784587597075282E-015
  -5.0699999999999995E-002     9.7758984118374989E-016
  -4.9599999999999991E-002     1.1305290513488023E-016
  -4.8499999999999988E-002    -1.3681963319529919E-015
  -4.7399999999999998E-002    -2.7999887446187839E-015
  -4.6299999999999994E-002    -3.1455438822641747E-015
  -4.5199999999999990E-002    -1.4927702086595107E-015
  -4.4099999999999986E-002     2.2184197346822440E-015
  -4.2999999999999997E-002     6.6034125291035330E-015
  -4.1899999999999993E-002     8.9197456725983483E-015
  -4.0799999999999989E-002     6.2519836414854073E-015
  -3.9699999999999985E-002    -2.3838384930174308E-015
  -3.8599999999999995E-002    -1.4104601208232530E-014
  -3.7499999999999992E-002    -2.2091515425250348E-014
  -3.6399999999999988E-002    -1.8597419814531634E-014
  -3.5299999999999984E-002    -3.5664692821056740E-016
  -3.4199999999999994E-002     2.6688610563620034E-014
  -3.3099999999999991E-002     4.7484982119332456E-014
  -3.1999999999999987E-002     4.4956131373986852E-014
  -3.0899999999999997E-002     1.1536939413243734E-014
  -2.9799999999999993E-002    -4.1949374475405005E-014
  -2.8699999999999989E-002    -8.7613970982738931E-014
  -2.7599999999999986E-002    -9.4097438987830045E-014
  -2.6499999999999996E-002    -4.5905817938184795E-014
  -2.5399999999999992E-002     4.3527976226675688E-014
  -2.4299999999999988E-002     1.3441161974669241E-013
  -2.3199999999999985E-002     1.7836632778406303E-013
  -2.2099999999999995E-002     1.4137939408596922E-013
  -2.0999999999999991E-002     2.0186938126426530E-014
  -1.9899999999999987E-002    -1.5284049525131349E-013
  -1.8799999999999983E-002    -3.1378076677766875E-013
  -1.7699999999999994E-002    -3.7842331265108831E-013
  -1.6599999999999990E-002    -2.6674439024786112E-013
  -1.5499999999999986E-002     5.1802905362682491E-014
  -1.4399999999999996E-002     5.0217165495358707E-013
  -1.3299999999999992E-002     8.7730267928770589E-013
  -1.2199999999999989E-002     8.9521413285803542E-013
  -1.1099999999999985E-002     3.5718593339138793E-013
  -9.9999999999999950E-003    -6.5845815128487417E-013
  -8.8999999999999913E-003    -1.7070823921105927E-012
  -7.7999999999999875E-003    -2.1212300579248611E-012
  -6.6999999999999837E-003    -1.3837788337064949E-012
  -5.5999999999999939E-003     4.5901498747780156E-013
  -4.4999999999999901E-003     2.6365314011872476E-012
  -3.3999999999999864E-003     3.9397135727370358E-012
  -2.2999999999999826E-003     3.3726691144736476E-012
  -1.1999999999999927E-003     8.0874732908894909E-013
  -9.9999999999988987E-005    -2.7771012486160762E-012
   1.0000000000000148E-003    -5.6976780064832422E-012
   2.1000000000000185E-003    -6.3750675745322116E-012
   3.2000000000000084E-003    -4.1354307131480361E-012
   4.3000000000000121E-003     4.3892401649023305E-013
   5.4000000000000159E-003     5.7142394115083928E-012
   6.5000000000000058E-003     9.5781056697052946E-012
   7.6000000000000234E-003     1.0118012330750936E-011
   8.7000000000000133E-003     6.2817607018872401E-012
   9.8000000000000032E-003    -1.5004868007817418E-012
   1.0900000000000021E-002    -1.0893328773742272E-011
   1.2000000000000011E-002    -1.7874002625206664E-011
   1.3100000000000001E-002    -1.8054642850207081E-011
   1.4200000000000018E-002    -9.0145044207012859E-012
   1.5300000000000008E-002     7.4061182533946557E-012
   1.6400000000000026E-002     2.4517879046448421E-011
   1.7500000000000016E-002     3.3088424361560342E-011
   1.8600000000000005E-002     2.6080627241187315E-011
   1.9700000000000023E-002     3.4632067179296566E-012
   2.0800000000000013E-002    -2.6003752970349403E-011
   2.1900000000000003E-002    -4.7841088729461134E-011
   2.3000000000000020E-002    -4.8854940926101875E-011
   2.4100000000000010E-002    -2.4574528176279919E-011
   2.5200000000000000E-002     1.7035156271716367E-011
   2.6300000000000018E-002     5.7956528465297197E-011
   2.7400000000000008E-002     7.7790281161060904E-011
   2.8500000000000025E-002     6.3218132118070258E-011
   2.9600000000000015E-002     1.4971168402211354E-011
   3.0700000000000005E-002    -5.0760898956392353E-011
   3.1800000000000023E-002    -1.0726055460485995E-010
   3.2900000000000013E-002    -1.2708571694997062E-010
   3.4000000000000002E-002    -9.3619327568017496E-011
   3.5100000000000020E-002    -1.0263581651237530E-011
   3.6200000000000010E-002     9.6904373414474776E-011
   3.7300000000000028E-002     1.8580399718803875E-010
   3.8400000000000017E-002     2.1385995752076781E-010
   3.9500000000000007E-002     1.5739204384246364E-010
   4.0600000000000025E-002     2.6385409482299060E-011
   4.1700000000000015E-002    -1.3390925868161929E-010
   4.2800000000000005E-002    -2.5838703399116980E-010
   4.3900000000000022E-002    -2.9026026027167973E-010
   4.5000000000000012E-002    -2.1005877592905620E-010
   4.6100000000000002E-002    -5.0625892367150982E-011
   4.7200000000000020E-002     1.1233678570699013E-010
   4.8300000000000010E-002     1.9391709071836516E-010
   4.9400000000000027E-002     1.4495474265352470E-010
   5.0500000000000017E-002    -1.2990579098537403E-011
   5.1600000000000007E-002    -1.8312885929905320E-010
   5.2700000000000025E-002    -2.2835468238557866E-010
   5.3800000000000014E-002    -3.6227215671758017E-011
   5.4900000000000004E-002     4.1234252123878434E-010
   5.6000000000000022E-002     1.0036635966770291E-009
   5.7100000000000012E-002     1.5052267210435843E-009
   5.8200000000000002E-002     1.6354764209580708E-009
   5.9300000000000019E-002     1.1670621136161685E-009
   6.0400000000000009E-002     2.5584432142289337E-011
   6.1500000000000027E-002    -1.6531187529977842E-009
   6.2600000000000017E-002    -3.5277674115263835E-009
   6.3700000000000007E-002    -5.1164454895058498E-009
   6.4800000000000024E-002    -5.9009308550628248E-009
   6.5900000000000014E-002    -5.4419353467949350E-009
   6.7000000000000004E-002    -3.4782789981591122E-009
   6.8100000000000022E-002     9.4813133039162167E-012
   6.9200000000000012E-002     4.7800163827105280E-009
   7.0300000000000029E-002     1.0352716905970283E-008
   7.1400000000000019E-002     1.6050700324399259E-008
   7.2500000000000009E-002     2.1034297859046092E-008
   7.3600000000000027E-002     2.4293713707379538E-008
   7.4700000000000016E-002     2.4587063052194935E-008
   7.5800000000000006E-002     2.0342122653005390E-008
   7.6900000000000024E-002     9.5707681779799714E-009
   7.8000000000000014E-002    -1.0145753570611760E-008
   7.9100000000000004E-002    -4.1568316788698212E-008
   8.0200000000000021E-002    -8.7629764777830133E-008
   8.1300000000000011E-002    -1.5126447294733225E-007
   8.2400000000000029E-002    -2.3535120874385029E-007
   8.3500000000000019E-002    -3.4286694017282571E-007
   8.4600000000000009E-002    -4.7728423169246526E-007
   8.5700000000000026E-002    -6.4315599956898950E-007
   8.6800000000000016E-002    -8.4676008782480494E-007
   8.7900000000000006E-002    -1.0966583658955642E-006
   8.9000000000000024E-002    -1.4040761016076431E-006
   9.0100000000000013E-002    -1.7831076775109977E-006
   9.1200000000000003E-002    -2.2508597794512752E-006
   9.2300000000000021E-002    -2.8276979264774127E-006
   9.3400000000000011E-002    -3.5377411222725641E-006
   9.4500000000000028E-002    -4.4096582314523403E-006
   9.5600000000000018E-002    -5.4777078730694484E-006
   9.6700000000000008E-002    -6.7829014369635843E-006
   9.7800000000000026E-002    -8.3741861089947633E-006
   9.8900000000000016E-002    -1.0309592653356958E-005
  0.10000000000000001         -1.2657425941142719E-005
  0.10110000000000002         -1.5497585991397500E-005
  0.10220000000000001         -1.8923128664027900E-005
  0.10330000000000003         -2.3042104658088647E-005
  0.10440000000000002         -2.7979691367363557E-005
  0.10550000000000001         -3.3880576665978879E-005
  0.10660000000000003         -4.0911600081017241E-005
  0.10770000000000002         -4.9264628614764661E-005
  0.10880000000000001         -5.9159679949516430E-005
  0.10990000000000003         -7.0848174800630659E-005
  0.11100000000000002         -8.4616243839263916E-005
  0.11210000000000001         -1.0078794002765790E-004
  0.11320000000000002         -1.1972834909101948E-004
  0.11430000000000001         -1.4184646715875715E-004
  0.11540000000000003         -1.6759820573497564E-004
  0.11650000000000002         -1.9748941122088581E-004
  0.11760000000000001         -2.3207902268040925E-004
  0.11870000000000003         -2.7198225143365562E-004
  0.11980000000000002         -3.1787349143996835E-004
  0.12090000000000001         -3.7048844387754798E-004
  0.12200000000000003         -4.3062533950433135E-004
  0.12310000000000001         -4.9914506962522864E-004
  0.12420000000000003         -5.7696958538144827E-004
  0.12530000000000002         -6.6507997689768672E-004
  0.12640000000000001         -7.6451280619949102E-004
  0.12750000000000003         -8.7635533418506384E-004
  0.12860000000000002         -1.0017397580668330E-003
  0.12970000000000001         -1.1418354697525501E-003
  0.13080000000000003         -1.2978381710126996E-003
  0.13190000000000002         -1.4709576498717070E-003
  0.13300000000000001         -1.6624033451080322E-003
  0.13410000000000000         -1.8733654869720340E-003
  0.13520000000000004         -2.1049969363957644E-003
  0.13630000000000003         -2.3583909496665001E-003
  0.13740000000000002         -2.6345569640398026E-003
  0.13850000000000001         -2.9343923088163137E-003
  0.13960000000000000         -3.2586553134024143E-003
  0.14070000000000005         -3.6079331766813993E-003
  0.14180000000000004         -3.9826105348765850E-003
  0.14290000000000003         -4.3828357011079788E-003
  0.14400000000000002         -4.8084883019328117E-003
  0.14510000000000001         -5.2591459825634956E-003
  0.14620000000000000         -5.7340501807630062E-003
  0.14730000000000004         -6.2320763245224953E-003
  0.14840000000000003         -6.7517003044486046E-003
  0.14950000000000002         -7.2909733280539513E-003
  0.15060000000000001         -7.8474935144186020E-003
  0.15170000000000000         -8.4183895960450172E-003
  0.15280000000000005         -9.0003106743097305E-003
  0.15390000000000004         -9.5894178375601768E-003
  0.15500000000000003         -1.0181387886404991E-002
  0.15610000000000002         -1.0771417059004307E-002
  0.15720000000000001         -1.1354242451488972E-002
  0.15830000000000000         -1.1924156919121742E-002
  0.15940000000000004         -1.2475053779780865E-002
  0.16050000000000003         -1.3000474311411381E-002
  0.16160000000000002         -1.3493659906089306E-002
  0.16270000000000001         -1.3947618193924427E-002
  0.16380000000000000         -1.4355195686221123E-002
  0.16490000000000005         -1.4709168113768101E-002
  0.16600000000000004         -1.5002328902482986E-002
  0.16710000000000003         -1.5227591618895531E-002
  0.16820000000000002         -1.5378087759017944E-002
  0.16930000000000001         -1.5447279438376427E-002
  0.17040000000000000         -1.5429073944687843E-002
  0.17150000000000004         -1.5317935496568680E-002
  0.17260000000000003         -1.5108997002243996E-002
  0.17370000000000002         -1.4798170886933804E-002
  0.17480000000000001         -1.4382245019078255E-002
  0.17590000000000000         -1.3858981430530548E-002
  0.17700000000000005         -1.3227190822362900E-002
  0.17810000000000004         -1.2486819177865982E-002
  0.17920000000000003         -1.1638999916613102E-002
  0.18030000000000002         -1.0686099529266357E-002
  0.18140000000000001         -9.6317334100604057E-003
  0.18250000000000000         -8.4807705134153366E-003
  0.18360000000000004         -7.2393240407109261E-003
  0.18470000000000003         -5.9147165156900883E-003
  0.18580000000000002         -4.5154304243624210E-003
  0.18690000000000001         -3.0510304495692253E-003
  0.18800000000000000         -1.5320656821131706E-003
  0.18910000000000005          3.0042983780731447E-005
  0.19020000000000004          1.6231311019510031E-003
  0.19130000000000003          3.2344306819140911E-003
  0.19240000000000002          4.8507275059819221E-003
  0.19350000000000001          6.4585283398628235E-003
  0.19460000000000005          8.0442400649189949E-003
  0.19570000000000004          9.5943454653024673E-003
  0.19680000000000003          1.1095582507550716E-002
  0.19790000000000002          1.2535115703940392E-002
  0.19900000000000001          1.3900708407163620E-002
  0.20010000000000000          1.5180885791778564E-002
  0.20120000000000005          1.6365095973014832E-002
  0.20230000000000004          1.7443835735321045E-002
  0.20340000000000003          1.8408782780170441E-002
  0.20450000000000002          1.9252883270382881E-002
  0.20560000000000000          1.9970439374446869E-002
  0.20670000000000005          2.0557180047035217E-002
  0.20780000000000004          2.1010287106037140E-002
  0.20890000000000003          2.1328421309590340E-002
