 -0.12000000000000000          0.0000000000000000
 -0.11889999999999999          0.0000000000000000
 -0.11780000000000000          0.0000000000000000
 -0.11670000000000000          0.0000000000000000
 -0.11559999999999999          0.0000000000000000
 -0.11449999999999999          0.0000000000000000
 -0.11340000000000000          0.0000000000000000
 -0.11230000000000000          0.0000000000000000
 -0.11119999999999999          0.0000000000000000
 -0.11009999999999999          0.0000000000000000
 -0.10900000000000000          0.0000000000000000
 -0.10790000000000000          0.0000000000000000
 -0.10679999999999999          2.5644178385468525E-035
 -0.10569999999999999         -1.1951818148998973E-034
 -0.10460000000000000          3.4884877689704245E-033
 -0.10349999999999999          2.4526043108014077E-032
 -0.10239999999999999          5.5995999505984187E-033
 -0.10130000000000000         -1.6275627944267756E-031
 -0.10020000000000000          7.9304378431897783E-031
  -9.9099999999999994E-002     6.1346518624781254E-030
  -9.7999999999999990E-002     3.7169545147012220E-030
  -9.6899999999999986E-002    -6.3612069763900719E-029
  -9.5799999999999996E-002    -1.7629381320818795E-028
  -9.4699999999999993E-002     2.0579753124930705E-028
  -9.3599999999999989E-002     1.9325740175093829E-027
  -9.2499999999999999E-002     2.6522204672030174E-027
  -9.1399999999999995E-002    -7.9198006432174360E-027
  -9.0299999999999991E-002    -3.4881959359139586E-026
  -8.9200000000000002E-002    -2.7466925695046600E-026
  -8.8099999999999984E-002     1.4187000244201446E-025
  -8.6999999999999994E-002     4.5682890647922875E-025
  -8.5899999999999990E-002     2.5245686287087461E-025
  -8.4799999999999986E-002    -1.6928753866512082E-024
  -8.3699999999999997E-002    -4.7657438089898882E-024
  -8.2599999999999993E-002    -2.5164033759978363E-024
  -8.1499999999999989E-002     1.4999448583526632E-023
  -8.0399999999999999E-002     4.1358734015951021E-023
  -7.9299999999999995E-002     2.6265292655567305E-023
  -7.8199999999999992E-002    -1.0263476069555422E-022
  -7.7100000000000002E-002    -3.0371980412479765E-022
  -7.5999999999999984E-002    -2.4889942381851421E-022
  -7.4899999999999994E-002     5.4007406763089074E-022
  -7.3799999999999991E-002     1.8944366654089335E-021
  -7.2699999999999987E-002     1.9920837615233629E-021
  -7.1599999999999997E-002    -2.0272122803691574E-021
  -7.0499999999999993E-002    -9.9951747316798550E-021
  -6.9399999999999989E-002    -1.3269141863674100E-020
  -6.8300000000000000E-002     3.4616321178800797E-021
  -6.7199999999999996E-002     4.4027534670793058E-020
  -6.6099999999999992E-002     7.3783806243739691E-020
  -6.5000000000000002E-002     2.0158580551611950E-020
  -6.3899999999999985E-002    -1.5683911808206828E-019
  -6.2799999999999995E-002    -3.4366412790524908E-019
  -6.1699999999999991E-002    -2.3874616752085402E-019
  -6.0599999999999994E-002     4.1304126514493177E-019
  -5.9499999999999990E-002     1.3358940009361489E-018
  -5.8399999999999994E-002     1.4442769950571345E-018
  -5.7299999999999990E-002    -5.1665876835942276E-019
  -5.6199999999999986E-002    -4.2539711010882011E-018
  -5.5099999999999996E-002    -6.4501831903017113E-018
  -5.3999999999999992E-002    -2.0359106903553277E-018
  -5.2899999999999989E-002     1.0494092188422377E-017
  -5.1799999999999985E-002     2.2896870553086364E-017
  -5.0699999999999995E-002     1.7990086444619782E-017
  -4.9599999999999991E-002    -1.6281410886132270E-017
  -4.8499999999999988E-002    -6.5241607648964113E-017
  -4.7399999999999998E-002    -8.0030968344146707E-017
  -4.6299999999999994E-002    -7.9537394635719991E-018
  -4.5199999999999990E-002     1.4345343377253930E-016
  -4.4099999999999986E-002     2.6029526286427582E-016
  -4.2999999999999997E-002     1.6867182807378636E-016
  -4.1899999999999993E-002    -2.0435348802356779E-016
  -4.0799999999999989E-002    -6.5705637443760640E-016
  -3.9699999999999985E-002    -7.2723628343073659E-016
  -3.8599999999999995E-002    -2.6712393329719914E-017
  -3.7499999999999992E-002     1.2516239519827109E-015
  -3.6399999999999988E-002     2.1159262069656319E-015
  -3.5299999999999984E-002     1.3085358839504905E-015
  -3.4199999999999994E-002    -1.4833004861883260E-015
  -3.3099999999999991E-002    -4.6315626030593582E-015
  -3.1999999999999987E-002    -5.0346740529871523E-015
  -3.0899999999999997E-002    -4.8626043919501247E-016
  -2.9799999999999993E-002     7.4217297888964917E-015
  -2.8699999999999989E-002     1.2645052478797280E-014
  -2.7599999999999986E-002     8.3124323667794348E-015
  -2.6499999999999996E-002    -6.7039396698330943E-015
  -2.5399999999999992E-002    -2.3445829628351671E-014
  -2.4299999999999988E-002    -2.6428236023765851E-014
  -2.3199999999999985E-002    -5.6375357771517708E-015
  -2.2099999999999995E-002     3.0827530334226819E-014
  -2.0999999999999991E-002     5.5797092613591934E-014
  -1.9899999999999987E-002     4.0315695253772058E-014
  -1.8799999999999983E-002    -1.9337833336583246E-014
  -1.7699999999999994E-002    -8.6883645623089117E-014
  -1.6599999999999990E-002    -1.0321185908972880E-013
  -1.5499999999999986E-002    -3.2532109601676740E-014
  -1.4399999999999996E-002     9.4703081097644026E-014
  -1.3299999999999992E-002     1.8422473290792551E-013
  -1.2199999999999989E-002     1.4107886679628340E-013
  -1.1099999999999985E-002    -4.2987121972931294E-014
  -9.9999999999999950E-003    -2.5082177003768469E-013
  -8.8999999999999913E-003    -3.0342511814739070E-013
  -7.7999999999999875E-003    -1.0249937563207995E-013
  -6.6999999999999837E-003     2.5296957454137847E-013
  -5.5999999999999939E-003     4.9233382128088810E-013
  -4.4999999999999901E-003     3.6410699216955777E-013
  -3.3999999999999864E-003    -1.2987005947647651E-013
  -2.2999999999999826E-003    -6.5719136946654211E-013
  -1.1999999999999927E-003    -7.5354441653532889E-013
  -9.9999999999988987E-005    -2.0111747011698766E-013
   1.0000000000000148E-003     7.0142204761439175E-013
   2.1000000000000185E-003     1.2525990444531288E-012
   3.2000000000000084E-003     8.5527575690094726E-013
   4.3000000000000121E-003    -4.2261623345828114E-013
   5.4000000000000159E-003    -1.7168392358810070E-012
   6.5000000000000058E-003    -1.9004424769986095E-012
   7.6000000000000234E-003    -4.9451523605192893E-013
   8.7000000000000133E-003     1.7392681262232146E-012
   9.8000000000000032E-003     3.1232605477576891E-012
   1.0900000000000021E-002     2.2609822000752011E-012
   1.2000000000000011E-002    -7.0326437815598775E-013
   1.3100000000000001E-002    -3.8249702884185499E-012
   1.4200000000000018E-002    -4.5619237554195280E-012
   1.5300000000000008E-002    -1.7626461271472160E-012
   1.6400000000000026E-002     3.0585341117411735E-012
   1.7500000000000016E-002     6.3938351141379357E-012
   1.8600000000000005E-002     5.2255283433666477E-012
   1.9700000000000023E-002    -3.7058987063971760E-013
   2.0800000000000013E-002    -6.6561140280030351E-012
   2.1900000000000003E-002    -8.5968454577312059E-012
   2.3000000000000020E-002    -3.7923201905154524E-012
   2.4100000000000010E-002     5.0001448294312301E-012
   2.5200000000000000E-002     1.1148013935591283E-011
   2.6300000000000018E-002     8.9350913820562816E-012
   2.7400000000000008E-002    -1.4384844227235960E-012
   2.8500000000000025E-002    -1.2800084776831699E-011
   2.9600000000000015E-002    -1.5593241975420113E-011
   3.0700000000000005E-002    -5.4374608114693412E-012
   3.1800000000000023E-002     1.2048040516632330E-011
   3.2900000000000013E-002     2.3756821163067876E-011
   3.4000000000000002E-002     1.8387376690687240E-011
   3.5100000000000020E-002    -3.7742560812792370E-012
   3.6200000000000010E-002    -2.8548326896915555E-011
   3.7300000000000028E-002    -3.6446509005250149E-011
   3.8400000000000017E-002    -1.7326931556205238E-011
   3.9500000000000007E-002     1.9570109421884752E-011
   4.0600000000000025E-002     4.9165106014159576E-011
   4.1700000000000015E-002     4.7322323143417222E-011
   4.2800000000000005E-002     9.8657627206621967E-012
   4.3900000000000022E-002    -4.0838370879425767E-011
   4.5000000000000012E-002    -6.8933816987915009E-011
   4.6100000000000002E-002    -5.0563993964081178E-011
   4.7200000000000020E-002     6.2900921450614877E-012
   4.8300000000000010E-002     6.3871331834608469E-011
   4.9400000000000027E-002     7.9888887172252510E-011
   5.0500000000000017E-002     3.9199931495259577E-011
   5.1600000000000007E-002    -3.1965485813856276E-011
   5.2700000000000025E-002    -8.2292603287292820E-011
   5.3800000000000014E-002    -7.2733763456511724E-011
   5.4900000000000004E-002    -7.7901435302507593E-012
   5.6000000000000022E-002     6.4566144097888412E-011
   5.7100000000000012E-002     8.7388735137139406E-011
   5.8200000000000002E-002     3.9547295993536125E-011
   5.9300000000000019E-002    -4.4154700729048812E-011
   6.0400000000000009E-002    -9.6335141253067746E-011
   6.1500000000000027E-002    -6.9419574255658034E-011
   6.2600000000000017E-002     2.2692368817356368E-011
   6.3700000000000007E-002     1.0920618576104602E-010
   6.4800000000000024E-002     1.1488882067922646E-010
   6.5900000000000014E-002     2.2644424529927321E-011
   6.7000000000000004E-002    -1.0465203703624582E-010
   6.8100000000000022E-002    -1.6649374934285532E-010
   6.9200000000000012E-002    -1.0410029088747663E-010
   7.0300000000000029E-002     4.5121358038802128E-011
   7.1400000000000019E-002     1.6756770970793866E-010
   7.2500000000000009E-002     1.6142071013192094E-010
   7.3600000000000027E-002     2.7009599418148511E-011
   7.4700000000000016E-002    -1.1886661099858031E-010
   7.5800000000000006E-002    -1.3095760587056304E-010
   7.6900000000000024E-002     3.1984571241538973E-011
   7.8000000000000014E-002     2.3899857093390153E-010
   7.9100000000000004E-002     2.5964785876908536E-010
   8.0200000000000021E-002    -4.9799317447529745E-011
   8.1300000000000011E-002    -5.7816984533332061E-010
   8.2400000000000029E-002    -9.5815511080843407E-010
   8.3500000000000019E-002    -7.8006262560492701E-010
   8.4600000000000009E-002     9.3551069668684761E-011
   8.5700000000000026E-002     1.3328093073639025E-009
   8.6800000000000016E-002     2.2418897849263431E-009
   8.7900000000000006E-002     2.1465571542478301E-009
   8.9000000000000024E-002     8.4477225215096041E-010
   9.0100000000000013E-002    -1.1850108672106785E-009
   9.1200000000000003E-002    -2.9944315915741981E-009
   9.2300000000000021E-002    -3.6976726125459436E-009
   9.3400000000000011E-002    -2.9930544709344531E-009
   9.4500000000000028E-002    -1.3197920534224750E-009
   9.5600000000000018E-002     4.7282860959896311E-010
   9.6700000000000008E-002     1.7266911234159465E-009
   9.7800000000000026E-002     2.4189703573540555E-009
   9.8900000000000016E-002     3.1064488759113829E-009
  0.10000000000000001          4.3714742936629136E-009
  0.10110000000000002          6.1451062016715241E-009
  0.10220000000000001          7.4161627949820286E-009
  0.10330000000000003          6.6097158857303384E-009
  0.10440000000000002          2.4693063149783256E-009
  0.10550000000000001         -5.0899133796633578E-009
  0.10660000000000003         -1.4706740714132138E-008
  0.10770000000000002         -2.4061453274271116E-008
  0.10880000000000001         -3.0798787520325277E-008
  0.10990000000000003         -3.3260885601293921E-008
  0.11100000000000002         -3.0535804995679428E-008
  0.11210000000000001         -2.1808945760426468E-008
  0.11320000000000002         -5.5051732061883740E-009
  0.11430000000000001          2.1128920835167264E-008
  0.11540000000000003          6.1655832439555525E-008
  0.11650000000000002          1.1951176759339432E-007
  0.11760000000000001          1.9716684107606852E-007
  0.11870000000000003          2.9604845508401922E-007
  0.11980000000000002          4.1745525436454045E-007
  0.12090000000000001          5.6409777471344569E-007
  0.12200000000000003          7.4154655749225640E-007
  0.12310000000000001          9.5896598395484034E-007
  0.12420000000000003          1.2289667665754678E-006
  0.12530000000000002          1.5669087360947742E-006
  0.12640000000000001          1.9902190615539439E-006
  0.12750000000000003          2.5181884666380938E-006
  0.12860000000000002          3.1724157452117652E-006
  0.12970000000000001          3.9778183236194309E-006
  0.13080000000000003          4.9640502766123973E-006
  0.13190000000000002          6.1671917137573473E-006
  0.13300000000000001          7.6315527621773072E-006
  0.13410000000000000          9.4113447630661540E-006
  0.13520000000000004          1.1571926734177396E-005
  0.13630000000000003          1.4190464753482956E-005
  0.13740000000000002          1.7356333046336658E-005
  0.13850000000000001          2.1171959815546870E-005
  0.13960000000000000          2.5754927264642902E-005
  0.14070000000000005          3.1241561373462901E-005
  0.14180000000000004          3.7791396607644856E-005
  0.14290000000000003          4.5591154048452154E-005
  0.14400000000000002          5.4857089708093554E-005
  0.14510000000000001          6.5835542045533657E-005
  0.14620000000000000          7.8803066571708769E-005
  0.14730000000000004          9.4068069302011281E-005
  0.14840000000000003          1.1197557614650577E-004
  0.14950000000000002          1.3291471987031400E-004
  0.15060000000000001          1.5732683823443949E-004
  0.15170000000000000          1.8571125110611320E-004
  0.15280000000000005          2.1862699941266328E-004
  0.15390000000000004          2.5669121532700956E-004
  0.15500000000000003          3.0057667754590511E-004
  0.15610000000000002          3.5101172397844493E-004
  0.15720000000000001          4.0878410800360143E-004
  0.15830000000000000          4.7474712482653558E-004
  0.15940000000000004          5.4982432629913092E-004
  0.16050000000000003          6.3501001568511128E-004
  0.16160000000000002          7.3136354330927134E-004
  0.16270000000000001          8.4000034257769585E-004
  0.16380000000000000          9.6208287868648767E-004
  0.16490000000000005          1.0988139547407627E-003
  0.16600000000000004          1.2514324625954032E-003
  0.16710000000000003          1.4212084934115410E-003
  0.16820000000000002          1.6094314632937312E-003
  0.16930000000000001          1.8173917196691036E-003
  0.17040000000000000          2.0463555119931698E-003
  0.17150000000000004          2.2975371684879065E-003
  0.17260000000000003          2.5720738340169191E-003
  0.17370000000000002          2.8710046317428350E-003
  0.17480000000000001          3.1952492427080870E-003
  0.17590000000000000          3.5455841571092606E-003
  0.17700000000000005          3.9226128719747066E-003
  0.17810000000000004          4.3267281726002693E-003
  0.17920000000000003          4.7580683603882790E-003
  0.18030000000000002          5.2164765074849129E-003
  0.18140000000000001          5.7014655321836472E-003
  0.18250000000000000          6.2121883966028690E-003
  0.18360000000000004          6.7474097013473511E-003
  0.18470000000000003          7.3054842650890350E-003
  0.18580000000000002          7.8843263909220695E-003
  0.18690000000000001          8.4813861176371574E-003
  0.18800000000000000          9.0936245396733284E-003
  0.18910000000000005          9.7174998372793198E-003
  0.19020000000000004          1.0348961688578129E-002
  0.19130000000000003          1.0983455926179886E-002
  0.19240000000000002          1.1615939438343048E-002
  0.19350000000000001          1.2240900658071041E-002
  0.19460000000000005          1.2852389365434647E-002
  0.19570000000000004          1.3444052077829838E-002
  0.19680000000000003          1.4009179547429085E-002
  0.19790000000000002          1.4540766365826130E-002
  0.19900000000000001          1.5031583607196808E-002
  0.20010000000000000          1.5474255196750164E-002
  0.20120000000000005          1.5861345455050468E-002
  0.20230000000000004          1.6185460612177849E-002
  0.20340000000000003          1.6439346596598625E-002
  0.20450000000000002          1.6615990549325943E-002
  0.20560000000000000          1.6708744689822197E-002
  0.20670000000000005          1.6711443662643433E-002
  0.20780000000000004          1.6618508845567703E-002
  0.20890000000000003          1.6425063833594322E-002
