 -0.12000000000000000          0.0000000000000000
 -0.11889999999999999          0.0000000000000000
 -0.11780000000000000          0.0000000000000000
 -0.11670000000000000          0.0000000000000000
 -0.11559999999999999          0.0000000000000000
 -0.11449999999999999          0.0000000000000000
 -0.11340000000000000          0.0000000000000000
 -0.11230000000000000          1.9851734995328780E-019
 -0.11119999999999999         -2.6800310957805374E-020
 -0.11009999999999999         -6.7430291153831894E-018
 -0.10900000000000000         -2.6058808149240134E-017
 -0.10790000000000000         -1.4966448483804463E-017
 -0.10679999999999999          1.6841305950839364E-016
 -0.10569999999999999          5.6684598912648531E-016
 -0.10460000000000000          5.0101072387810726E-016
 -0.10349999999999999         -1.6920253921385233E-015
 -0.10239999999999999         -6.5785063723223130E-015
 -0.10130000000000000         -8.7684223895386364E-015
 -0.10020000000000000          4.8206402621596118E-015
  -9.9099999999999994E-002     4.2387009294194932E-014
  -9.7999999999999990E-002     7.9162411760306162E-014
  -9.6899999999999986E-002     4.3023537613403999E-014
  -9.5799999999999996E-002    -1.3500063968193718E-013
  -9.4699999999999993E-002    -3.9531651064605927E-013
  -9.3599999999999989E-002    -4.5676532218000458E-013
  -9.2499999999999999E-002     4.8225593847053860E-014
  -9.1399999999999995E-002     1.1372340786088633E-012
  -9.0299999999999991E-002     2.0445203689766712E-012
  -8.9200000000000002E-002     1.4175661512683593E-012
  -8.8099999999999984E-002    -1.4972924159207303E-012
  -8.6999999999999994E-002    -5.3474343009171252E-012
  -8.5899999999999990E-002    -6.5302494314798898E-012
  -8.4799999999999986E-002    -1.7096150883857874E-012
  -8.3699999999999997E-002     8.0996034532146891E-012
  -8.2599999999999993E-002     1.5730075228480748E-011
  -8.1499999999999989E-002     1.2043067931788079E-011
  -8.0399999999999999E-002    -5.0440775688212535E-012
  -7.9299999999999995E-002    -2.4333505696525783E-011
  -7.8199999999999992E-002    -2.6789388415935577E-011
  -7.7100000000000002E-002    -2.8186877745049242E-012
  -7.5999999999999984E-002     3.2212923301021421E-011
  -7.4899999999999994E-002     4.3061446769462992E-011
  -7.3799999999999991E-002     5.0867613073074872E-012
  -7.2699999999999987E-002    -6.1833850539818243E-011
  -7.1599999999999997E-002    -9.2813708107987261E-011
  -7.0499999999999993E-002    -2.7960654624960003E-011
  -6.9399999999999989E-002     1.1823826640000587E-010
  -6.8300000000000000E-002     2.3475585364530094E-010
  -6.7199999999999996E-002     1.8389012534926299E-010
  -6.6099999999999992E-002    -7.0954853104136780E-011
  -6.5000000000000002E-002    -3.8734765395175010E-010
  -6.3899999999999985E-002    -5.1203802309274786E-010
  -6.2799999999999995E-002    -2.7728119800233387E-010
  -6.1699999999999991E-002     2.2523036213856162E-010
  -6.0599999999999994E-002     6.6402494613976829E-010
  -5.9499999999999990E-002     7.0841238430928869E-010
  -5.8399999999999994E-002     3.1041569314998647E-010
  -5.7299999999999990E-002    -2.2884304173843323E-010
  -5.6199999999999986E-002    -5.0539394891291279E-010
  -5.5099999999999996E-002    -3.8000447233337119E-010
  -5.3999999999999992E-002    -1.2248706215968239E-010
  -5.2899999999999989E-002    -1.5238126038773186E-010
  -5.1799999999999985E-002    -5.7404325737324894E-010
  -5.0699999999999995E-002    -9.5406638145352177E-010
  -4.9599999999999991E-002    -6.3128091643009173E-010
  -4.8499999999999988E-002     6.3394689497891205E-010
  -4.7399999999999998E-002     2.2472812499786026E-009
  -4.6299999999999994E-002     3.0626965408233860E-009
  -4.5199999999999990E-002     2.2313537684230399E-009
  -4.4099999999999986E-002    -6.2315791415493188E-011
  -4.2999999999999997E-002    -2.6350772674985198E-009
  -4.1899999999999993E-002    -4.1289851537840754E-009
  -4.0799999999999989E-002    -3.9414076447035340E-009
  -3.9699999999999985E-002    -2.4769872819526451E-009
  -3.8599999999999995E-002    -5.6952981220072609E-010
  -3.7499999999999992E-002     1.2964301854262736E-009
  -3.6399999999999988E-002     3.1704066039139690E-009
  -3.5299999999999984E-002     5.0756514546895822E-009
  -3.4199999999999994E-002     6.3765717150953329E-009
  -3.3099999999999991E-002     5.8959543913784477E-009
  -3.1999999999999987E-002     2.8640581017935025E-009
  -3.0899999999999997E-002    -2.1399764182911380E-009
  -2.9799999999999993E-002    -7.2312067445070510E-009
  -2.8699999999999989E-002    -1.0349427981283142E-008
  -2.7599999999999986E-002    -1.0517198667516164E-008
  -2.6499999999999996E-002    -8.1098896487237595E-009
  -2.5399999999999992E-002    -4.0052094973945166E-009
  -2.4299999999999988E-002     1.3607791560225925E-009
  -2.3199999999999985E-002     7.9041546641182654E-009
  -2.2099999999999995E-002     1.4806470716168092E-008
  -2.0999999999999991E-002     1.9734937239948149E-008
  -1.9899999999999987E-002     1.9630896019864834E-008
  -1.8799999999999983E-002     1.2817888084273512E-008
  -1.7699999999999994E-002     6.3402588734862115E-010
  -1.6599999999999990E-002    -1.3113360175509671E-008
  -1.5499999999999986E-002    -2.4689549960046045E-008
  -1.4399999999999996E-002    -3.2844024389081772E-008
  -1.3299999999999992E-002    -3.8958251735725983E-008
  -1.2199999999999989E-002    -4.4927180198334002E-008
  -1.1099999999999985E-002    -5.1038860249269441E-008
  -9.9999999999999950E-003    -5.6190433639363654E-008
  -8.8999999999999913E-003    -6.0404303781075514E-008
  -7.7999999999999875E-003    -6.7061591835233388E-008
  -6.6999999999999837E-003    -8.2209830054588281E-008
  -5.5999999999999939E-003    -1.1102970631783229E-007
  -4.4999999999999901E-003    -1.5448888746051528E-007
  -3.3999999999999864E-003    -2.0935553379787903E-007
  -2.2999999999999826E-003    -2.7172126237931112E-007
  -1.1999999999999927E-003    -3.4084507660739697E-007
  -9.9999999999988987E-005    -4.1982514176201627E-007
   1.0000000000000148E-003    -5.1277777401997424E-007
   2.1000000000000185E-003    -6.2174979120761074E-007
   3.2000000000000084E-003    -7.4688932727447693E-007
   4.3000000000000121E-003    -8.9002713821182349E-007
   5.4000000000000159E-003    -1.0581312608338656E-006
   6.5000000000000058E-003    -1.2629467391890432E-006
   7.6000000000000234E-003    -1.5168330946836822E-006
   8.7000000000000133E-003    -1.8286946215086537E-006
   9.8000000000000032E-003    -2.2039153009247794E-006
   1.0900000000000021E-002    -2.6481807253733558E-006
   1.2000000000000011E-002    -3.1711083465782813E-006
   1.3100000000000001E-002    -3.7858756058998691E-006
   1.4200000000000018E-002    -4.5054011934557788E-006
   1.5300000000000008E-002    -5.3395956456375548E-006
   1.6400000000000026E-002    -6.2973781496118114E-006
   1.7500000000000016E-002    -7.3921523835459287E-006
   1.8600000000000005E-002    -8.6453783296755925E-006
   1.9700000000000023E-002    -1.0084268978972551E-005
   2.0800000000000013E-002    -1.1735421139748105E-005
   2.1900000000000003E-002    -1.3620467143483928E-005
   2.3000000000000020E-002    -1.5757948858665066E-005
   2.4100000000000010E-002    -1.8169132090408376E-005
   2.5200000000000000E-002    -2.0880968804706201E-005
   2.6300000000000018E-002    -2.3922013497215406E-005
   2.7400000000000008E-002    -2.7314585167917502E-005
   2.8500000000000025E-002    -3.1071005651032113E-005
   2.9600000000000015E-002    -3.5198365367254258E-005
   3.0700000000000005E-002    -3.9707509131407889E-005
   3.1800000000000023E-002    -4.4616757804765514E-005
   3.2900000000000013E-002    -4.9945097998721358E-005
   3.4000000000000002E-002    -5.5699278163962563E-005
   3.5100000000000020E-002    -6.1865415773361274E-005
   3.6200000000000010E-002    -6.8411311076495935E-005
   3.7300000000000028E-002    -7.5295167334851857E-005
   3.8400000000000017E-002    -8.2469625340318318E-005
   3.9500000000000007E-002    -8.9874803961730577E-005
   4.0600000000000025E-002    -9.7425494459468944E-005
   4.1700000000000015E-002    -1.0500386997592931E-004
   4.2800000000000005E-002    -1.1246380745434603E-004
   4.3900000000000022E-002    -1.1964084114880809E-004
   4.5000000000000012E-002    -1.2635596795009131E-004
   4.6100000000000002E-002    -1.3240685802886051E-004
   4.7200000000000020E-002    -1.3755244435744251E-004
   4.8300000000000010E-002    -1.4150416245685876E-004
   4.9400000000000027E-002    -1.4393072342502026E-004
   5.0500000000000017E-002    -1.4446873683484420E-004
   5.1600000000000007E-002    -1.4272637781689154E-004
   5.2700000000000025E-002    -1.3827513612343250E-004
   5.3800000000000014E-002    -1.3063798542136597E-004
   5.4900000000000004E-002    -1.1928839376198388E-004
   5.6000000000000022E-002    -1.0366396600149788E-004
   5.7100000000000012E-002    -8.3185455878285178E-005
   5.8200000000000002E-002    -5.7265475334152676E-005
   5.9300000000000019E-002    -2.5300863853789139E-005
   6.0400000000000009E-002     1.3338580174589786E-005
   6.1500000000000027E-002     5.9308560594206156E-005
   6.2600000000000017E-002     1.1327077663735613E-004
   6.3700000000000007E-002     1.7586792819201580E-004
   6.4800000000000024E-002     2.4771122843958595E-004
   6.5900000000000014E-002     3.2938344520517458E-004
   6.7000000000000004E-002     4.2144226608799382E-004
   6.8100000000000022E-002     5.2440742729233992E-004
   6.9200000000000012E-002     6.3872861210260003E-004
   7.0300000000000029E-002     7.6475174864758287E-004
   7.1400000000000019E-002     9.0270407963549475E-004
   7.2500000000000009E-002     1.0527013801038924E-003
   7.3600000000000027E-002     1.2147576780990562E-003
   7.4700000000000016E-002     1.3887743698433987E-003
   7.5800000000000006E-002     1.5745084965602669E-003
   7.6900000000000024E-002     1.7715374706314291E-003
   7.8000000000000014E-002     1.9792462699116738E-003
   7.9100000000000004E-002     2.1968407090754974E-003
   8.0200000000000021E-002     2.4233637377621604E-003
   8.1300000000000011E-002     2.6576912496241020E-003
   8.2400000000000029E-002     2.8985047247263103E-003
   8.3500000000000019E-002     3.1442686449738876E-003
   8.4600000000000009E-002     3.3932302612814081E-003
   8.5700000000000026E-002     3.6434498615565904E-003
   8.6800000000000016E-002     3.8928289432081827E-003
   8.7900000000000006E-002     4.1391188278797749E-003
   8.9000000000000024E-002     4.3799001723531603E-003
   9.0100000000000013E-002     4.6125724911693687E-003
   9.1200000000000003E-002     4.8343711532656533E-003
   9.2300000000000021E-002     5.0424132496122908E-003
   9.3400000000000011E-002     5.2337450906638893E-003
   9.4500000000000028E-002     5.4053524509077057E-003
   9.5600000000000018E-002     5.5541442707185895E-003
   9.6700000000000008E-002     5.6769396178429424E-003
   9.7800000000000026E-002     5.7704928331082286E-003
   9.8900000000000016E-002     5.8315461501484431E-003
  0.10000000000000001          5.8568804524844267E-003
  0.10110000000000002          5.8433241210883273E-003
  0.10220000000000001          5.7877353392546778E-003
  0.10330000000000003          5.6869825348263344E-003
  0.10440000000000002          5.5379671975975507E-003
  0.10550000000000001          5.3376751020555837E-003
  0.10660000000000003          5.0832210108642736E-003
  0.10770000000000002          4.7718505375091962E-003
  0.10880000000000001          4.4009122066204194E-003
  0.10990000000000003          3.9678378961984419E-003
  0.11100000000000002          3.4701628610495435E-003
  0.11210000000000001          2.9055865015837801E-003
  0.11320000000000002          2.2720224224033686E-003
  0.11430000000000001          1.5676043694841015E-003
  0.11540000000000003          7.9065951285898681E-004
  0.11650000000000002         -6.0306607338056394E-005
  0.11760000000000001         -9.8656967747956514E-004
  0.11870000000000003         -1.9891008269042627E-003
  0.11980000000000002         -3.0684852972628451E-003
  0.12090000000000001         -4.2248843237760432E-003
  0.12200000000000003         -5.4580373689536088E-003
  0.12310000000000001         -6.7672468721871543E-003
  0.12420000000000003         -8.1513086333877011E-003
  0.12530000000000002         -9.6083972603090047E-003
  0.12640000000000001         -1.1135959066451468E-002
  0.12750000000000003         -1.2730651535094796E-002
  0.12860000000000002         -1.4388333074749673E-002
  0.12970000000000001         -1.6104025766254779E-002
  0.13080000000000003         -1.7871838063003097E-002
  0.13190000000000002         -1.9684849306942656E-002
  0.13300000000000001         -2.1534997969867586E-002
  0.13410000000000000         -2.3413047194482853E-002
  0.13520000000000004         -2.5308623909952383E-002
  0.13630000000000003         -2.7210233733060273E-002
  0.13740000000000002         -2.9105246067049589E-002
  0.13850000000000001         -3.0979851260783928E-002
  0.13960000000000000         -3.2819043844941088E-002
  0.14070000000000005         -3.4606724977496263E-002
  0.14180000000000004         -3.6325816065076150E-002
  0.14290000000000003         -3.7958443164828728E-002
  0.14400000000000002         -3.9486058056357957E-002
  0.14510000000000001         -4.0889516472820041E-002
  0.14620000000000000         -4.2149238288406256E-002
  0.14730000000000004         -4.3245464563373560E-002
  0.14840000000000003         -4.4158540666107270E-002
  0.14950000000000002         -4.4869229197506119E-002
  0.15060000000000001         -4.5358963310722582E-002
  0.15170000000000000         -4.5610047876838956E-002
  0.15280000000000005         -4.5605957508091266E-002
  0.15390000000000004         -4.5331656932834911E-002
  0.15500000000000003         -4.4773969799284240E-002
  0.15610000000000002         -4.3921947479252064E-002
  0.15720000000000001         -4.2767073959116109E-002
  0.15830000000000000         -4.1303481906656281E-002
  0.15940000000000004         -3.9528138935569640E-002
  0.16050000000000003         -3.7441100925210670E-002
  0.16160000000000002         -3.5045754164460659E-002
  0.16270000000000001         -3.2348956912759082E-002
  0.16380000000000000         -2.9361082240942010E-002
  0.16490000000000005         -2.6095967739823075E-002
  0.16600000000000004         -2.2570863366129311E-002
  0.16710000000000003         -1.8806386739017553E-002
  0.16820000000000002         -1.4826450496913635E-002
  0.16930000000000001         -1.0658092796803791E-002
  0.17040000000000000         -6.3311727717527723E-003
  0.17150000000000004         -1.8779933452611197E-003
  0.17260000000000003          2.6670799124984971E-003
  0.17370000000000002          7.2679729200902741E-003
  0.17480000000000001          1.1887269094587103E-002
  0.17590000000000000          1.6486648470164490E-002
  0.17700000000000005          2.1027421578766477E-002
  0.17810000000000004          2.5471108034255088E-002
  0.17920000000000003          2.9779950156810266E-002
  0.18030000000000002          3.3917378634217156E-002
  0.18140000000000001          3.7848435342314982E-002
  0.18250000000000000          4.1540220379832883E-002
  0.18360000000000004          4.4962368905548084E-002
  0.18470000000000003          4.8087518662218387E-002
  0.18580000000000002          5.0891645252709006E-002
  0.18690000000000001          5.3354334086184362E-002
  0.18800000000000000          5.5458962917332724E-002
  0.18910000000000005          5.7192880660300517E-002
  0.19020000000000004          5.8547571301465449E-002
  0.19130000000000003          5.9518743306403686E-002
  0.19240000000000002          6.0106322169309272E-002
  0.19350000000000001          6.0314308851962747E-002
  0.19460000000000005          6.0150615870958039E-002
  0.19570000000000004          5.9626866132026363E-002
  0.19680000000000003          5.8758184313779473E-002
  0.19790000000000002          5.7562928646808183E-002
  0.19900000000000001          5.6062351912265218E-002
  0.20010000000000000          5.4280180484061497E-002
  0.20120000000000005          5.2242182195191472E-002
  0.20230000000000004          4.9975786358122727E-002
  0.20340000000000003          4.7509711235766104E-002
  0.20450000000000002          4.4873539358381696E-002
  0.20560000000000000          4.2097266763452712E-002
  0.20670000000000005          3.9210885763172082E-002
  0.20780000000000004          3.6243956536058095E-002
  0.20890000000000003          3.3225312829020852E-002
