 -0.12000000000000000          0.0000000000000000
 -0.11889999999999999          0.0000000000000000
 -0.11780000000000000          0.0000000000000000
 -0.11670000000000000          0.0000000000000000
 -0.11559999999999999          0.0000000000000000
 -0.11449999999999999          0.0000000000000000
 -0.11340000000000000          0.0000000000000000
 -0.11230000000000000          0.0000000000000000
 -0.11119999999999999          0.0000000000000000
 -0.11009999999999999          0.0000000000000000
 -0.10900000000000000         -6.1132002713964283E-035
 -0.10790000000000000          1.0840468596355638E-033
 -0.10679999999999999         -1.2302935464689209E-031
 -0.10569999999999999         -1.6788214010887323E-031
 -0.10460000000000000         -1.8976483731524972E-031
 -0.10349999999999999         -2.3017533558592537E-029
 -0.10239999999999999         -1.0738665184049973E-028
 -0.10130000000000000          7.1041157949911119E-029
 -0.10020000000000000          1.4075699443082945E-027
  -9.9099999999999994E-002     1.0642174649388714E-027
  -9.7999999999999990E-002    -1.4900816749879025E-026
  -9.6899999999999986E-002    -4.0719896754836484E-026
  -9.5799999999999996E-002     5.8324030434087075E-026
  -9.4699999999999993E-002     4.7719877416623256E-025
  -9.3599999999999989E-002     5.7062554332382004E-025
  -9.2499999999999999E-002    -2.2210948738501610E-024
  -9.1399999999999995E-002    -8.6515613987209562E-024
  -9.0299999999999991E-002    -4.8646010966190171E-024
  -8.9200000000000002E-002     4.0123444102690955E-023
  -8.8099999999999984E-002     1.1288995877431462E-022
  -8.6999999999999994E-002     3.2121860702522325E-023
  -8.5899999999999990E-002    -4.8878397240410341E-022
  -8.4799999999999986E-002    -1.1795177501835280E-021
  -8.3699999999999997E-002    -2.7574313611106034E-022
  -8.2599999999999993E-002     4.4826492591704115E-021
  -8.1499999999999989E-002     1.0365053712461770E-020
  -8.0399999999999999E-002     3.4787310882084159E-021
  -7.9299999999999995E-002    -3.2385048328465888E-020
  -7.8199999999999992E-002    -7.8025297619227517E-020
  -7.7100000000000002E-002    -4.1136696757459347E-020
  -7.5999999999999984E-002     1.8640388441851181E-019
  -7.4899999999999994E-002     5.0479063942445334E-019
  -7.3799999999999991E-002     3.8629657723653171E-019
  -7.2699999999999987E-002    -8.3482443349726535E-019
  -7.1599999999999997E-002    -2.7961188314081526E-018
  -7.0499999999999993E-002    -2.8860302620653696E-018
  -6.9399999999999989E-002     2.6111823395469157E-018
  -6.8300000000000000E-002     1.3138811118339184E-017
  -6.7199999999999996E-002     1.7561534095423409E-017
  -6.6099999999999992E-002    -2.6195718121145816E-018
  -6.5000000000000002E-002    -5.1386616938831617E-017
  -6.3899999999999985E-002    -8.8525365463792554E-017
  -6.2799999999999995E-002    -3.2842819100891289E-017
  -6.1699999999999991E-002     1.6001119412079696E-016
  -6.0599999999999994E-002     3.7216994516952532E-016
  -5.9499999999999990E-002     2.9264898330385431E-016
  -5.8399999999999994E-002    -3.4596139582271758E-016
  -5.7299999999999990E-002    -1.2971367263045789E-015
  -5.6199999999999986E-002    -1.5352662751397326E-015
  -5.5099999999999996E-002     1.5855135930598378E-016
  -5.3999999999999992E-002     3.6446883278616355E-015
  -5.2899999999999989E-002     6.0819303423793186E-015
  -5.1799999999999985E-002     2.9403177517815880E-015
  -5.0699999999999995E-002    -7.5586001487774196E-015
  -4.9599999999999991E-002    -1.9175719700808246E-014
  -4.8499999999999988E-002    -1.7877196169810775E-014
  -4.7399999999999998E-002     7.4302289174892414E-015
  -4.6299999999999994E-002     4.7830524127967164E-014
  -4.5199999999999990E-002     6.7228564566441246E-014
  -4.4099999999999986E-002     2.2978021801912593E-014
  -4.2999999999999997E-002    -8.7513390902450167E-014
  -4.1899999999999993E-002    -1.8985583504632642E-013
  -4.0799999999999989E-002    -1.5812698372918987E-013
  -3.9699999999999985E-002     7.8479608337130025E-014
  -3.8599999999999995E-002     4.1135400207642503E-013
  -3.7499999999999992E-002     5.4199814124647472E-013
  -3.6399999999999988E-002     1.7962436822237943E-013
  -3.5299999999999984E-002    -6.3117160152906249E-013
  -3.4199999999999994E-002    -1.3306120528328025E-012
  -3.3099999999999991E-002    -1.1077996159292169E-012
  -3.1999999999999987E-002     3.9564209655847116E-013
  -3.0899999999999997E-002     2.4281798360198392E-012
  -2.9799999999999993E-002     3.2449693973535254E-012
  -2.8699999999999989E-002     1.3254984132862746E-012
  -2.7599999999999986E-002    -2.9558621175707067E-012
  -2.6499999999999996E-002    -6.6802444652347415E-012
  -2.5399999999999992E-002    -5.9554388330551600E-012
  -2.4299999999999988E-002     7.4622252821399115E-013
  -2.3199999999999985E-002     9.9486356652800367E-012
  -2.2099999999999995E-002     1.4176623416850553E-011
  -2.0999999999999991E-002     7.2938157250068691E-012
  -1.9899999999999987E-002    -9.0962567339536449E-012
  -1.8799999999999983E-002    -2.3909079577277836E-011
  -1.7699999999999994E-002    -2.3095634779646268E-011
  -1.6599999999999990E-002    -1.5174991254904291E-012
  -1.5499999999999986E-002     2.8977006558128515E-011
  -1.4399999999999996E-002     4.4283944566902989E-011
  -1.3299999999999992E-002     2.5779956294713635E-011
  -1.2199999999999989E-002    -2.0898598823704262E-011
  -1.1099999999999985E-002    -6.3081193046876649E-011
  -9.9999999999999950E-003    -6.2108512777214742E-011
  -8.8999999999999913E-003    -6.4318403034113736E-012
  -7.7999999999999875E-003     6.9860561779933050E-011
  -6.6999999999999837E-003     1.0446876697045582E-010
  -5.5999999999999939E-003     5.5014610922388130E-011
  -4.4999999999999901E-003    -5.7039095668898199E-011
  -3.3999999999999864E-003    -1.4781711965561328E-010
  -2.2999999999999826E-003    -1.2928660919619972E-010
  -1.1999999999999927E-003     1.2549719943799609E-011
  -9.9999999999988987E-005     1.8451552785681002E-010
   1.0000000000000148E-003     2.4011814758750916E-010
   2.1000000000000185E-003     9.5542497524636616E-011
   3.2000000000000084E-003    -1.7889685566263580E-010
   4.3000000000000121E-003    -3.7896821791782997E-010
   5.4000000000000159E-003    -3.0913635540308348E-010
   6.5000000000000058E-003     4.6031532752177640E-011
   7.6000000000000234E-003     4.6277051635179589E-010
   8.7000000000000133E-003     6.0875199325849394E-010
   9.8000000000000032E-003     2.9621302632953928E-010
   1.0900000000000021E-002    -3.2867730759278402E-010
   1.2000000000000011E-002    -8.3284051877186016E-010
   1.3100000000000001E-002    -7.9017559162508633E-010
   1.4200000000000018E-002    -1.2901146817512199E-010
   1.5300000000000008E-002     7.4265588123623161E-010
   1.6400000000000026E-002     1.1788975351478825E-009
   1.7500000000000016E-002     7.7381362428852185E-010
   1.8600000000000005E-002    -2.7286875536880473E-010
   1.9700000000000023E-002    -1.2205629840167376E-009
   2.0800000000000013E-002    -1.3029894940785880E-009
   2.1900000000000003E-002    -3.4737629439618445E-010
   2.3000000000000020E-002     9.9315400348132243E-010
   2.4100000000000010E-002     1.6497452293151582E-009
   2.5200000000000000E-002     9.5979224568054633E-010
   2.6300000000000018E-002    -7.0977868027455315E-010
   2.7400000000000008E-002    -2.0895187802238979E-009
   2.8500000000000025E-002    -1.9111354720990903E-009
   2.9600000000000015E-002     2.4444014520841328E-011
   3.0700000000000005E-002     2.4711077628580824E-009
   3.1800000000000023E-002     3.4896145972851400E-009
   3.2900000000000013E-002     1.9103054693658805E-009
   3.4000000000000002E-002    -1.5675397646575107E-009
   3.5100000000000020E-002    -4.5992836206210086E-009
   3.6200000000000010E-002    -4.7804720182398341E-009
   3.7300000000000028E-002    -1.5309713496947097E-009
   3.8400000000000017E-002     3.1932494426456515E-009
   3.9500000000000007E-002     6.0999068018929847E-009
   4.0600000000000025E-002     4.9657535861058477E-009
   4.1700000000000015E-002     4.6466749892282166E-010
   4.2800000000000005E-002    -4.1298648945087280E-009
   4.3900000000000022E-002    -5.3723159254559505E-009
   4.5000000000000012E-002    -2.4452817548592520E-009
   4.6100000000000002E-002     1.9672090623146232E-009
   4.7200000000000020E-002     3.7193046420469500E-009
   4.8300000000000010E-002     7.9733625257816243E-010
   4.9400000000000027E-002    -4.4440606750129064E-009
   5.0500000000000017E-002    -6.6303535994904905E-009
   5.1600000000000007E-002    -1.8039303384398409E-009
   5.2700000000000025E-002     8.3497893044182092E-009
   5.3800000000000014E-002     1.6301088479053760E-008
   5.4900000000000004E-002     1.3668752352202773E-008
   5.6000000000000022E-002    -1.6178306472269810E-009
   5.7100000000000012E-002    -2.1555791818173020E-008
   5.8200000000000002E-002    -3.1727072524745381E-008
   5.9300000000000019E-002    -2.1208874656508669E-008
   6.0400000000000009E-002     7.7815158761040948E-009
   6.1500000000000027E-002     3.8264374779828358E-008
   6.2600000000000017E-002     4.7995108332088421E-008
   6.3700000000000007E-002     2.5153115146281380E-008
   6.4800000000000024E-002    -2.0485902751943286E-008
   6.5900000000000014E-002    -6.0272881796663569E-008
   6.7000000000000004E-002    -6.3993830679009989E-008
   6.8100000000000022E-002    -2.1695811369681905E-008
   6.9200000000000012E-002     4.5166483886305286E-008
   7.0300000000000029E-002     9.3256851130263385E-008
   7.1400000000000019E-002     8.4233661823418515E-008
   7.2500000000000009E-002     1.2703634588717705E-008
   7.3600000000000027E-002    -8.4230720176492468E-008
   7.4700000000000016E-002    -1.4520543345497572E-007
   7.5800000000000006E-002    -1.2203287269585417E-007
   7.6900000000000024E-002    -1.3599108505957247E-008
   7.8000000000000014E-002     1.2671114291151753E-007
   7.9100000000000004E-002     2.1774808089958242E-007
   8.0200000000000021E-002     1.9751678337343037E-007
   8.1300000000000011E-002     6.2273159073811257E-008
   8.2400000000000029E-002    -1.2688637696101068E-007
   8.3500000000000019E-002    -2.7531794444257685E-007
   8.4600000000000009E-002    -3.0611312240580446E-007
   8.5700000000000026E-002    -2.0114246979119343E-007
   8.6800000000000016E-002    -8.1523134909389228E-009
   8.7900000000000006E-002     1.8869059204007499E-007
   8.9000000000000024E-002     3.1531524768979580E-007
   9.0100000000000013E-002     3.4261663017787214E-007
   9.1200000000000003E-002     2.8990766054448613E-007
   9.2300000000000021E-002     1.9794977390574786E-007
   9.3400000000000011E-002     9.1836035664982774E-008
   9.4500000000000028E-002    -3.9908751858774849E-008
   9.5600000000000018E-002    -2.3393229753310152E-007
   9.6700000000000008E-002    -5.1249998023195076E-007
   9.7800000000000026E-002    -8.3848397025576560E-007
   9.8900000000000016E-002    -1.0944010000457638E-006
  0.10000000000000001         -1.1061659961342230E-006
  0.10110000000000002         -7.1127584533314803E-007
  0.10220000000000001          1.5294260435894103E-007
  0.10330000000000003          1.3814454860039405E-006
  0.10440000000000002          2.6930890726362122E-006
  0.10550000000000001          3.6989656564401230E-006
  0.10660000000000003          4.0283853195433039E-006
  0.10770000000000002          3.4588510970934294E-006
  0.10880000000000001          1.9838316802633926E-006
  0.10990000000000003         -2.2496531926208263E-007
  0.11100000000000002         -2.9506520604627440E-006
  0.11210000000000001         -6.0915094763913658E-006
  0.11320000000000002         -9.7547708719503134E-006
  0.11430000000000001         -1.4220509001461323E-005
  0.11540000000000003         -1.9791119484580122E-005
  0.11650000000000002         -2.6625335522112437E-005
  0.11760000000000001         -3.4686130675254390E-005
  0.11870000000000003         -4.3876261770492420E-005
  0.11980000000000002         -5.4314234148478135E-005
  0.12090000000000001         -6.6589025664143264E-005
  0.12200000000000003         -8.1807935202959925E-005
  0.12310000000000001         -1.0135641059605405E-004
  0.12420000000000003         -1.2647587573155761E-004
  0.12530000000000002         -1.5792188060004264E-004
  0.12640000000000001         -1.9597446953412145E-004
  0.12750000000000003         -2.4089758517220616E-004
  0.12860000000000002         -2.9366777744144201E-004
  0.12970000000000001         -3.5658053820952773E-004
  0.13080000000000003         -4.3334878864698112E-004
  0.13190000000000002         -5.2856194088235497E-004
  0.13300000000000001         -6.4675451721996069E-004
  0.13410000000000000         -7.9160841414704919E-004
  0.13520000000000004         -9.6580275567248464E-004
  0.13630000000000003         -1.1717011220753193E-003
  0.13740000000000002         -1.4125936431810260E-003
  0.13850000000000001         -1.6938756452873349E-003
  0.13960000000000000         -2.0235506817698479E-003
  0.14070000000000005         -2.4118223227560520E-003
  0.14180000000000004         -2.8700421098619699E-003
  0.14290000000000003         -3.4096520394086838E-003
  0.14400000000000002         -4.0417448617517948E-003
  0.14510000000000001         -4.7774668782949448E-003
  0.14620000000000000         -5.6289900094270706E-003
  0.14730000000000004         -6.6104577854275703E-003
  0.14840000000000003         -7.7383443713188171E-003
  0.14950000000000002         -9.0310834348201752E-003
  0.15060000000000001         -1.0508288629353046E-002
  0.15170000000000000         -1.2190118432044983E-002
  0.15280000000000005         -1.4097216539084911E-002
  0.15390000000000004         -1.6251195222139359E-002
  0.15500000000000003         -1.8675226718187332E-002
  0.15610000000000002         -2.1394178271293640E-002
  0.15720000000000001         -2.4433970451354980E-002
  0.15830000000000000         -2.7820287272334099E-002
  0.15940000000000004         -3.1577233225107193E-002
  0.16050000000000003         -3.5726543515920639E-002
  0.16160000000000002         -4.0287505835294724E-002
  0.16270000000000001         -4.5277416706085205E-002
  0.16380000000000000         -5.0711870193481445E-002
  0.16490000000000005         -5.6604299694299698E-002
  0.16600000000000004         -6.2964536249637604E-002
  0.16710000000000003         -6.9796785712242126E-002
  0.16820000000000002         -7.7097684144973755E-002
  0.16930000000000001         -8.4855079650878906E-002
  0.17040000000000000         -9.3047954142093658E-002
  0.17150000000000004        -0.10164692997932434
  0.17260000000000003        -0.11061450093984604
  0.17370000000000002        -0.11990432441234589
  0.17480000000000001        -0.12945917248725891
  0.17590000000000000        -0.13920797407627106
  0.17700000000000005        -0.14906397461891174
  0.17810000000000004        -0.15892411768436432
  0.17920000000000003        -0.16867008805274963
  0.18030000000000002        -0.17817062139511108
  0.18140000000000001        -0.18728339672088623
  0.18250000000000000        -0.19585700333118439
  0.18360000000000004        -0.20373153686523438
  0.18470000000000003        -0.21073731780052185
  0.18580000000000002        -0.21669466793537140
  0.18690000000000001        -0.22141449153423309
  0.18800000000000000        -0.22469946742057800
  0.18910000000000005        -0.22634850442409515
  0.19020000000000004        -0.22616216540336609
  0.19130000000000003        -0.22394758462905884
  0.19240000000000002        -0.21952384710311890
  0.19350000000000001        -0.21272471547126770
  0.19460000000000005        -0.20340004563331604
  0.19570000000000004        -0.19141900539398193
  0.19680000000000003        -0.17667375504970551
  0.19790000000000002        -0.15908390283584595
  0.19900000000000001        -0.13860082626342773
  0.20010000000000000        -0.11521085351705551
  0.20120000000000005         -8.8938198983669281E-002
  0.20230000000000004         -5.9848334640264511E-002
  0.20340000000000003         -2.8051422908902168E-002
  0.20450000000000002          6.2963194213807583E-003
  0.20560000000000000          4.2992401868104935E-002
  0.20670000000000005          8.1787034869194031E-002
  0.20780000000000004         0.12238363921642303
  0.20890000000000003         0.16444087028503418
