 -0.12000000000000000          0.0000000000000000
 -0.11889999999999999          0.0000000000000000
 -0.11780000000000000          0.0000000000000000
 -0.11670000000000000          0.0000000000000000
 -0.11559999999999999         -1.0419132223660199E-008
 -0.11449999999999999         -9.2537524309932451E-009
 -0.11340000000000000          1.3791280650821136E-007
 -0.11230000000000000          5.1038250603596680E-007
 -0.11119999999999999          6.0077212538089952E-007
 -0.11009999999999999         -7.8810364811943145E-007
 -0.10900000000000000         -4.0488280319550540E-006
 -0.10790000000000000         -6.3344627960759681E-006
 -0.10679999999999999         -1.7331713024759665E-006
 -0.10569999999999999          1.2858557056460995E-005
 -0.10460000000000000          2.9398932383628562E-005
 -0.10349999999999999          2.8131049475632608E-005
 -0.10239999999999999         -7.4863496593025047E-006
 -0.10130000000000000         -6.7748544097412378E-005
 -0.10020000000000000         -1.0830826795427129E-004
  -9.9099999999999994E-002    -7.5217838457319885E-005
  -9.7999999999999990E-002     4.5820721425116062E-005
  -9.6899999999999986E-002     1.9562855595722795E-004
  -9.5799999999999996E-002     2.6298890588805079E-004
  -9.4699999999999993E-002     1.6101861547213048E-004
  -9.3599999999999989E-002    -9.3305890914052725E-005
  -9.2499999999999999E-002    -3.6392998299561441E-004
  -9.1399999999999995E-002    -4.7087992425076663E-004
  -9.0299999999999991E-002    -3.1172859598882496E-004
  -8.9200000000000002E-002     5.6873781431932002E-005
  -8.8099999999999984E-002     4.4123403495177627E-004
  -8.6999999999999994E-002     6.2697497196495533E-004
  -8.5899999999999990E-002     5.1149446517229080E-004
  -8.4799999999999986E-002     1.6091918223537505E-004
  -8.3699999999999997E-002    -2.4597989977337420E-004
  -8.2599999999999993E-002    -5.3978239884600043E-004
  -8.1499999999999989E-002    -6.4935616683214903E-004
  -8.0399999999999999E-002    -5.8750162133947015E-004
  -7.9299999999999995E-002    -3.6184029886499047E-004
  -7.8199999999999992E-002     7.2013281169347465E-005
  -7.7100000000000002E-002     7.1876222500577569E-004
  -7.5999999999999984E-002     1.3667170424014330E-003
  -7.4899999999999994E-002     1.5373799251392484E-003
  -7.3799999999999991E-002     7.4929610127583146E-004
  -7.2699999999999987E-002    -9.8725908901542425E-004
  -7.1599999999999997E-002    -2.8530724812299013E-003
  -7.0499999999999993E-002    -3.5170856863260269E-003
  -6.9399999999999989E-002    -2.0484372507780790E-003
  -6.8300000000000000E-002     1.1770338751375675E-003
  -6.7199999999999996E-002     4.4138738885521889E-003
  -6.6099999999999992E-002     5.6187249720096588E-003
  -6.5000000000000002E-002     3.9637098088860512E-003
  -6.3899999999999985E-002     5.4561265278607607E-004
  -6.2799999999999995E-002    -2.4358888622373343E-003
  -6.1699999999999991E-002    -3.4668587613850832E-003
  -6.0599999999999994E-002    -2.9748522210866213E-003
  -5.9499999999999990E-002    -2.9226825572550297E-003
  -5.8399999999999994E-002    -5.0764372572302818E-003
  -5.7299999999999990E-002    -9.5191095024347305E-003
  -5.6199999999999986E-002    -1.4768057502806187E-002
  -5.5099999999999996E-002    -1.9322043284773827E-002
  -5.3999999999999992E-002    -2.3080714046955109E-002
  -5.2899999999999989E-002    -2.7243366464972496E-002
  -5.1799999999999985E-002    -3.2882697880268097E-002
  -5.0699999999999995E-002    -3.9782468229532242E-002
  -4.9599999999999991E-002    -4.6851456165313721E-002
  -4.8499999999999988E-002    -5.3714241832494736E-002
  -4.7399999999999998E-002    -6.1742641031742096E-002
  -4.6299999999999994E-002    -7.3340587317943573E-002
  -4.5199999999999990E-002    -9.0203188359737396E-002
  -4.4099999999999986E-002   -0.11247634142637253
  -4.2999999999999997E-002   -0.13979171216487885
  -4.1899999999999993E-002   -0.17296215891838074
  -4.0799999999999989E-002   -0.21415561437606812
  -3.9699999999999985E-002   -0.26496818661689758
  -3.8599999999999995E-002   -0.32448726892471313
  -3.7499999999999992E-002   -0.39009028673171997
  -3.6399999999999988E-002   -0.46115428209304810
  -3.5299999999999984E-002   -0.54241335391998291
  -3.4199999999999994E-002   -0.64304345846176147
  -3.3099999999999991E-002   -0.77125161886215210
  -3.1999999999999987E-002   -0.92880487442016602
  -3.0899999999999997E-002    -1.1108264923095703
  -2.9799999999999993E-002    -1.3118665218353271
  -2.8699999999999989E-002    -1.5332590341567993
  -2.7599999999999986E-002    -1.7851552963256836
  -2.6499999999999996E-002    -2.0812132358551025
  -2.5399999999999992E-002    -2.4307000637054443
  -2.4299999999999988E-002    -2.8351833820343018
  -2.3199999999999985E-002    -3.2923245429992676
  -2.2099999999999995E-002    -3.8026790618896484
  -2.0999999999999991E-002    -4.3727364540100098
  -1.9899999999999987E-002    -5.0116567611694336
  -1.8799999999999983E-002    -5.7261586189270020
  -1.7699999999999994E-002    -6.5192990303039551
  -1.6599999999999990E-002    -7.3937807083129883
  -1.5499999999999986E-002    -8.3566360473632812
  -1.4399999999999996E-002    -9.4179706573486328
  -1.3299999999999992E-002    -10.585052490234375
  -1.2199999999999989E-002    -11.857191085815430
  -1.1099999999999985E-002    -13.226813316345215
  -9.9999999999999950E-003    -14.686738967895508
  -8.8999999999999913E-003    -16.234783172607422
  -7.7999999999999875E-003    -17.872152328491211
  -6.6999999999999837E-003    -19.597152709960938
  -5.5999999999999939E-003    -21.400138854980469
  -4.4999999999999901E-003    -23.266723632812500
  -3.3999999999999864E-003    -25.184514999389648
  -2.2999999999999826E-003    -27.142358779907227
  -1.1999999999999927E-003    -29.126617431640625
  -9.9999999999988987E-005    -31.108158111572266
   1.0000000000000148E-003    -33.041790008544922
   2.1000000000000185E-003    -34.878795623779297
   3.2000000000000084E-003    -36.579387664794922
   4.3000000000000121E-003    -38.118289947509766
   5.4000000000000159E-003    -39.472900390625000
   6.5000000000000058E-003    -40.606838226318359
   7.6000000000000234E-003    -41.466808319091797
   8.7000000000000133E-003    -41.988796234130859
   9.8000000000000032E-003    -42.114868164062500
   1.0900000000000021E-002    -41.796321868896484
   1.2000000000000011E-002    -40.987163543701172
   1.3100000000000001E-002    -39.632705688476562
   1.4200000000000018E-002    -37.674751281738281
   1.5300000000000008E-002    -35.060085296630859
   1.6400000000000026E-002    -31.754484176635742
   1.7500000000000016E-002    -27.746515274047852
   1.8600000000000005E-002    -23.031494140625000
   1.9700000000000023E-002    -17.592826843261719
   2.0800000000000013E-002    -11.411109924316406
   2.1900000000000003E-002    -4.4756140708923340
   2.3000000000000020E-002     3.2069032192230225
   2.4100000000000010E-002     11.601064682006836
   2.5200000000000000E-002     20.655908584594727
   2.6300000000000018E-002     30.303314208984375
   2.7400000000000008E-002     40.465862274169922
   2.8500000000000025E-002     51.056644439697266
   2.9600000000000015E-002     61.962745666503906
   3.0700000000000005E-002     73.058120727539062
   3.1800000000000023E-002     84.212020874023438
   3.2900000000000013E-002     95.294181823730469
   3.4000000000000002E-002     106.17311096191406
   3.5100000000000020E-002     116.68952178955078
   3.6200000000000010E-002     126.67750549316406
   3.7300000000000028E-002     135.94886779785156
   3.8400000000000017E-002     144.34394836425781
   3.9500000000000007E-002     151.71670532226562
   4.0600000000000025E-002     157.92308044433594
   4.1700000000000015E-002     162.80632019042969
   4.2800000000000005E-002     166.21562194824219
   4.3900000000000022E-002     168.02433776855469
   4.5000000000000012E-002     168.14356994628906
   4.6100000000000002E-002     166.53082275390625
   4.7200000000000020E-002     163.16040039062500
   4.8300000000000010E-002     158.00869750976562
   4.9400000000000027E-002     151.05165100097656
   5.0500000000000017E-002     142.29284667968750
   5.1600000000000007E-002     131.79649353027344
   5.2700000000000025E-002     119.67980957031250
   5.3800000000000014E-002     106.08840179443359
   5.4900000000000004E-002     91.168167114257812
   5.6000000000000022E-002     75.057296752929688
   5.7100000000000012E-002     57.917442321777344
   5.8200000000000002E-002     39.958808898925781
   5.9300000000000019E-002     21.436441421508789
   6.0400000000000009E-002     2.6180737018585205
   6.1500000000000027E-002    -16.250072479248047
   6.2600000000000017E-002    -34.946601867675781
   6.3700000000000007E-002    -53.253505706787109
   6.4800000000000024E-002    -70.933441162109375
   6.5900000000000014E-002    -87.741798400878906
   6.7000000000000004E-002    -103.45480346679688
   6.8100000000000022E-002    -117.88881683349609
   6.9200000000000012E-002    -130.89503479003906
   7.0300000000000029E-002    -142.33218383789062
   7.1400000000000019E-002    -152.06379699707031
   7.2500000000000009E-002    -159.97778320312500
   7.3600000000000027E-002    -166.01805114746094
   7.4700000000000016E-002    -170.18226623535156
   7.5800000000000006E-002    -172.50100708007812
   7.6900000000000024E-002    -173.00018310546875
   7.8000000000000014E-002    -171.71838378906250
   7.9100000000000004E-002    -168.71380615234375
   8.0200000000000021E-002    -164.12501525878906
   8.1300000000000011E-002    -158.13435363769531
   8.2400000000000029E-002    -150.92304992675781
   8.3500000000000019E-002    -142.64102172851562
   8.4600000000000009E-002    -133.40357971191406
   8.5700000000000026E-002    -123.35471343994141
   8.6800000000000016E-002    -112.69660186767578
   8.7900000000000006E-002    -101.67592620849609
   8.9000000000000024E-002    -90.523185729980469
   9.0100000000000013E-002    -79.405517578125000
   9.1200000000000003E-002    -68.413116455078125
   9.2300000000000021E-002    -57.648719787597656
   9.3400000000000011E-002    -47.260807037353516
   9.4500000000000028E-002    -37.422008514404297
   9.5600000000000018E-002    -28.279108047485352
   9.6700000000000008E-002    -19.887641906738281
   9.7800000000000026E-002    -12.234576225280762
   9.8900000000000016E-002    -5.3100438117980957
  0.10000000000000001         0.85819250345230103
  0.10110000000000002          6.2086215019226074
  0.10220000000000001          10.710487365722656
  0.10330000000000003          14.404027938842773
  0.10440000000000002          17.382961273193359
  0.10550000000000001          19.744115829467773
  0.10660000000000003          21.534486770629883
  0.10770000000000002          22.775789260864258
  0.10880000000000001          23.520975112915039
  0.10990000000000003          23.865848541259766
  0.11100000000000002          23.929908752441406
  0.11210000000000001          23.800352096557617
  0.11320000000000002          23.515804290771484
  0.11430000000000001          23.099079132080078
  0.11540000000000003          22.602218627929688
  0.11650000000000002          22.116975784301758
  0.11760000000000001          21.725908279418945
  0.11870000000000003          21.454530715942383
  0.11980000000000002          21.274633407592773
  0.12090000000000001          21.161745071411133
  0.12200000000000003          21.147626876831055
  0.12310000000000001          21.305715560913086
  0.12420000000000003          21.682914733886719
  0.12530000000000002          22.244203567504883
  0.12640000000000001          22.894590377807617
  0.12750000000000003          23.559478759765625
  0.12860000000000002          24.239389419555664
  0.12970000000000001          24.992841720581055
  0.13080000000000003          25.850559234619141
  0.13190000000000002          26.758144378662109
  0.13300000000000001          27.601833343505859
  0.13410000000000000          28.294780731201172
  0.13520000000000004          28.841789245605469
  0.13630000000000003          29.311759948730469
  0.13740000000000002          29.751003265380859
  0.13850000000000001          30.121225357055664
  0.13960000000000000          30.323913574218750
  0.14070000000000005          30.288988113403320
  0.14180000000000004          30.031011581420898
  0.14290000000000003          29.621574401855469
  0.14400000000000002          29.111677169799805
  0.14510000000000001          28.484493255615234
  0.14620000000000000          27.682374954223633
  0.14730000000000004          26.678215026855469
  0.14840000000000003          25.513689041137695
  0.14950000000000002          24.262964248657227
  0.15060000000000001          22.967142105102539
  0.15170000000000000          21.609645843505859
  0.15280000000000005          20.155633926391602
  0.15390000000000004          18.612993240356445
  0.15500000000000003          17.037956237792969
  0.15610000000000002          15.490564346313477
  0.15720000000000001          13.976042747497559
  0.15830000000000000          12.453473091125488
  0.15940000000000004          10.894935607910156
  0.16050000000000003          9.3380231857299805
  0.16160000000000002          7.8648691177368164
  0.16270000000000001          6.5296974182128906
  0.16380000000000000          5.3089289665222168
  0.16490000000000005          4.1318588256835938
  0.16600000000000004          2.9572515487670898
  0.16710000000000003          1.8246182203292847
  0.16820000000000002         0.82132953405380249
  0.16930000000000001         -6.8703694269061089E-003
  0.17040000000000000        -0.70719993114471436
  0.17150000000000004         -1.3745294809341431
  0.17260000000000003         -2.0609591007232666
  0.17370000000000002         -2.7206330299377441
  0.17480000000000001         -3.2587587833404541
  0.17590000000000000         -3.6237883567810059
  0.17700000000000005         -3.8599698543548584
  0.17810000000000004         -4.0632882118225098
  0.17920000000000003         -4.2897510528564453
  0.18030000000000002         -4.5085735321044922
  0.18140000000000001         -4.6452884674072266
  0.18250000000000000         -4.6657032966613770
  0.18360000000000004         -4.6145586967468262
  0.18470000000000003         -4.5687565803527832
  0.18580000000000002         -4.5615162849426270
  0.18690000000000001         -4.5566902160644531
  0.18800000000000000         -4.4929103851318359
  0.18910000000000005         -4.3523306846618652
  0.19020000000000004         -4.1760716438293457
  0.19130000000000003         -4.0161828994750977
  0.19240000000000002         -3.8812050819396973
  0.19350000000000001         -3.7338476181030273
  0.19460000000000005         -3.5428903102874756
  0.19570000000000004         -3.3264551162719727
  0.19680000000000003         -3.1367292404174805
  0.19790000000000002         -3.0016884803771973
  0.19900000000000001         -2.8906154632568359
  0.20010000000000000         -2.7445421218872070
  0.20120000000000005         -2.5411062240600586
  0.20230000000000004         -2.3238320350646973
  0.20340000000000003         -2.1587662696838379
  0.20450000000000002         -2.0628821849822998
  0.20560000000000000         -1.9820034503936768
  0.20670000000000005         -1.8446738719940186
  0.20780000000000004         -1.6384886503219604
  0.20890000000000003         -1.4285711050033569
