 -0.12000000000000000          0.0000000000000000
 -0.11889999999999999          0.0000000000000000
 -0.11780000000000000          0.0000000000000000
 -0.11670000000000000          0.0000000000000000
 -0.11559999999999999          0.0000000000000000
 -0.11449999999999999          0.0000000000000000
 -0.11340000000000000          0.0000000000000000
 -0.11230000000000000          0.0000000000000000
 -0.11119999999999999          0.0000000000000000
 -0.11009999999999999          0.0000000000000000
 -0.10900000000000000         -1.3681446919898505E-022
 -0.10790000000000000         -6.1396016840908389E-022
 -0.10679999999999999          2.3942563096278740E-021
 -0.10569999999999999          2.1034839470118368E-020
 -0.10460000000000000          2.1566050982090801E-020
 -0.10349999999999999         -2.2026767641945536E-019
 -0.10239999999999999         -8.2446249706017843E-019
 -0.10130000000000000          3.0054030744071581E-020
 -0.10020000000000000          7.2992989783384202E-018
  -9.9099999999999994E-002     1.8444776046811606E-017
  -9.7999999999999990E-002    -4.9228628452133876E-018
  -9.6899999999999986E-002    -1.3023343322271681E-016
  -9.5799999999999996E-002    -2.8734997165561101E-016
  -9.4699999999999993E-002     2.1403298349809591E-017
  -9.3599999999999989E-002     1.4985450675356537E-015
  -9.2499999999999999E-002     3.3372541197656614E-015
  -9.1399999999999995E-002     8.7091371771315525E-016
  -9.0299999999999991E-002    -1.2080782846258988E-014
  -8.9200000000000002E-002    -2.9863572958933535E-014
  -8.8099999999999984E-002    -1.8414321784521355E-014
  -8.6999999999999994E-002     6.9296958037264045E-014
  -8.5899999999999990E-002     2.0931134158807402E-013
  -8.4799999999999986E-002     2.0174562975067145E-013
  -8.3699999999999997E-002    -2.6064976457566835E-013
  -8.2599999999999993E-002    -1.1531934261677090E-012
  -8.1499999999999989E-002    -1.5255127890079212E-012
  -8.0399999999999999E-002     3.2595738716674483E-013
  -7.9299999999999995E-002     4.9272331006933179E-012
  -7.8199999999999992E-002     8.6686994388296412E-012
  -7.7100000000000002E-002     3.5987695028855127E-012
  -7.5999999999999984E-002    -1.5483152954187673E-011
  -7.4899999999999994E-002    -3.8212242398083518E-011
  -7.3799999999999991E-002    -3.3572346291865784E-011
  -7.2699999999999987E-002     2.8813751731804338E-011
  -7.1599999999999997E-002     1.3082843142164791E-010
  -7.0499999999999993E-002     1.7261861384731958E-010
  -6.9399999999999989E-002     2.1561637891798213E-011
  -6.8300000000000000E-002    -3.3484609529566001E-010
  -6.7199999999999996E-002    -6.3862010124537960E-010
  -6.6099999999999992E-002    -4.2859216176083237E-010
  -6.5000000000000002E-002     5.4630838741687171E-010
  -6.3899999999999985E-002     1.7901796711683460E-009
  -6.2799999999999995E-002     1.9986634569590933E-009
  -6.1699999999999991E-002    -1.5524951116341335E-011
  -6.0599999999999994E-002    -3.7397054342136471E-009
  -5.9499999999999990E-002    -6.1736020739999731E-009
  -5.8399999999999994E-002    -3.4634848322667722E-009
  -5.7299999999999990E-002     5.1644990506360955E-009
  -5.6199999999999986E-002     1.4221380517653870E-008
  -5.5099999999999996E-002     1.3885760097309685E-008
  -5.3999999999999992E-002    -1.6702748073527118E-009
  -5.2899999999999989E-002    -2.5029294192790985E-008
  -5.1799999999999985E-002    -3.5526969810462106E-008
  -5.0699999999999995E-002    -1.4347497412359189E-008
  -4.9599999999999991E-002     3.3375105346067357E-008
  -4.8499999999999988E-002     7.0533616280954448E-008
  -4.7399999999999998E-002     5.1406303214207583E-008
  -4.6299999999999994E-002    -3.2274069639015579E-008
  -4.5199999999999990E-002    -1.2197324394946918E-007
  -4.4099999999999986E-002    -1.2192735709959379E-007
  -4.2999999999999997E-002     1.3916451990780843E-008
  -4.1899999999999993E-002     2.0452657167879806E-007
  -4.0799999999999989E-002     2.6528081775722967E-007
  -3.9699999999999985E-002     5.8376663503167947E-008
  -3.8599999999999995E-002    -3.3104507224379631E-007
  -3.7499999999999992E-002    -5.7300024991491227E-007
  -3.6399999999999988E-002    -3.2487250223312003E-007
  -3.5299999999999984E-002     4.0901645093072148E-007
  -3.4199999999999994E-002     1.1127415291412035E-006
  -3.3099999999999991E-002     1.0516158681639354E-006
  -3.1999999999999987E-002    -7.8043576934305747E-008
  -3.0899999999999997E-002    -1.6556391528865788E-006
  -2.9799999999999993E-002    -2.3642012365598930E-006
  -2.8699999999999989E-002    -1.1966209285674267E-006
  -2.7599999999999986E-002     1.4627993323301780E-006
  -2.6499999999999996E-002     3.7159222756599775E-006
  -2.5399999999999992E-002     3.4356398828094825E-006
  -2.4299999999999988E-002     1.7504228821962897E-007
  -2.3199999999999985E-002    -3.9414048842445482E-006
  -2.2099999999999995E-002    -5.5000409702188335E-006
  -2.0999999999999991E-002    -2.6411905764689436E-006
  -1.9899999999999987E-002     2.8355909762467491E-006
  -1.8799999999999983E-002     6.3232423599401955E-006
  -1.7699999999999994E-002     4.1662747207737993E-006
  -1.6599999999999990E-002    -2.5604711026971927E-006
  -1.5499999999999986E-002    -7.9248557085520588E-006
  -1.4399999999999996E-002    -5.7507922974764369E-006
  -1.3299999999999992E-002     4.2570723053358961E-006
  -1.2199999999999989E-002     1.4421572814171668E-005
  -1.1099999999999985E-002     1.4156097677187063E-005
  -9.9999999999999950E-003    -7.0530830953430268E-007
  -8.8999999999999913E-003    -2.1953070245217532E-005
  -7.7999999999999875E-003    -3.2804560760268942E-005
  -6.6999999999999837E-003    -2.0409828721312806E-005
  -5.5999999999999939E-003     1.2068286196154077E-005
  -4.4999999999999901E-003     4.4425978558138013E-005
  -3.3999999999999864E-003     5.2425220928853378E-005
  -2.2999999999999826E-003     2.6264187908964232E-005
  -1.1999999999999927E-003    -1.9971563233411871E-005
  -9.9999999999988987E-005    -5.6681052228668705E-005
   1.0000000000000148E-003    -5.9911486459895968E-005
   2.1000000000000185E-003    -2.9245789846754633E-005
   3.2000000000000084E-003     1.2185293599031866E-005
   4.3000000000000121E-003     3.6320223443908617E-005
   5.4000000000000159E-003     3.2695497793611139E-005
   6.5000000000000058E-003     1.6067191609181464E-005
   7.6000000000000234E-003     1.1856656783493236E-005
   8.7000000000000133E-003     3.0711747967870906E-005
   9.8000000000000032E-003     5.3949413995724171E-005
   1.0900000000000021E-002     4.4682983570965007E-005
   1.2000000000000011E-002    -2.0631603547371924E-005
   1.3100000000000001E-002    -1.2353177589830011E-004
   1.4200000000000018E-002    -2.0259674056433141E-004
   1.5300000000000008E-002    -1.8734722107183188E-004
   1.6400000000000026E-002    -4.8673100536689162E-005
   1.7500000000000016E-002     1.6799368313513696E-004
   1.8600000000000005E-002     3.5396165912970901E-004
   1.9700000000000023E-002     3.9367665885947645E-004
   2.0800000000000013E-002     2.3605280148331076E-004
   2.1900000000000003E-002    -6.4243955421261489E-005
   2.3000000000000020E-002    -3.6688018008135259E-004
   2.4100000000000010E-002    -5.2142114145681262E-004
   2.5200000000000000E-002    -4.5399641385301948E-004
   2.6300000000000018E-002    -2.0830876019317657E-004
   2.7400000000000008E-002     8.8558328570798039E-005
   2.8500000000000025E-002     3.1256224610842764E-004
   2.9600000000000015E-002     4.1764130583032966E-004
   3.0700000000000005E-002     4.4112582691013813E-004
   3.1800000000000023E-002     4.3598090996965766E-004
   3.2900000000000013E-002     3.9047942846082151E-004
   3.4000000000000002E-002     2.1528419165406376E-004
   3.5100000000000020E-002    -1.7263148038182408E-004
   3.6200000000000010E-002    -7.2732777334749699E-004
   3.7300000000000028E-002    -1.2226544786244631E-003
   3.8400000000000017E-002    -1.3452501734718680E-003
   3.9500000000000007E-002    -8.9426484191790223E-004
   4.0600000000000025E-002     4.8885536671150476E-005
   4.1700000000000015E-002     1.1179535649716854E-003
   4.2800000000000005E-002     1.8511728849261999E-003
   4.3900000000000022E-002     1.9522004295140505E-003
   4.5000000000000012E-002     1.4415996847674251E-003
   4.6100000000000002E-002     5.9648021124303341E-004
   4.7200000000000020E-002    -2.6327511295676231E-004
   4.8300000000000010E-002    -9.6944859251379967E-004
   4.9400000000000027E-002    -1.5339411329478025E-003
   5.0500000000000017E-002    -2.0101512782275677E-003
   5.1600000000000007E-002    -2.3293658159673214E-003
   5.2700000000000025E-002    -2.2748857736587524E-003
   5.3800000000000014E-002    -1.6360805602744222E-003
   5.4900000000000004E-002    -4.2309385025873780E-004
   5.6000000000000022E-002     1.0449821129441261E-003
   5.7100000000000012E-002     2.2807235363870859E-003
   5.8200000000000002E-002     2.9262045864015818E-003
   5.9300000000000019E-002     3.0075937975198030E-003
   6.0400000000000009E-002     2.9601994901895523E-003
   6.1500000000000027E-002     3.3877803944051266E-003
   6.2600000000000017E-002     4.7015179879963398E-003
   6.3700000000000007E-002     6.8736509419977665E-003
   6.4800000000000024E-002     9.4763562083244324E-003
   6.5900000000000014E-002     1.1994731612503529E-002
   6.7000000000000004E-002     1.4215797185897827E-002
   6.8100000000000022E-002     1.6425760462880135E-002
   6.9200000000000012E-002     1.9259994849562645E-002
   7.0300000000000029E-002     2.3289715871214867E-002
   7.1400000000000019E-002     2.8646267950534821E-002
   7.2500000000000009E-002     3.5004887729883194E-002
   7.3600000000000027E-002     4.2017526924610138E-002
   7.4700000000000016E-002     4.9927148967981339E-002
   7.5800000000000006E-002     5.9881992638111115E-002
   7.6900000000000024E-002     7.3605865240097046E-002
   7.8000000000000014E-002     9.2539146542549133E-002
   7.9100000000000004E-002    0.11701876670122147
   8.0200000000000021E-002    0.14614868164062500
   8.1300000000000011E-002    0.17858235538005829
   8.2400000000000029E-002    0.21377478539943695
   8.3500000000000019E-002    0.25285464525222778
   8.4600000000000009E-002    0.29849806427955627
   8.5700000000000026E-002    0.35388219356536865
   8.6800000000000016E-002    0.42144662141799927
   8.7900000000000006E-002    0.50235581398010254
   8.9000000000000024E-002    0.59698301553726196
   9.0100000000000013E-002    0.70599830150604248
   9.1200000000000003E-002    0.83119803667068481
   9.2300000000000021E-002    0.97550702095031738
   9.3400000000000011E-002     1.1422121524810791
   9.4500000000000028E-002     1.3340513706207275
   9.5600000000000018E-002     1.5528266429901123
   9.6700000000000008E-002     1.7999155521392822
   9.7800000000000026E-002     2.0770704746246338
   9.8900000000000016E-002     2.3871543407440186
  0.10000000000000001          2.7340061664581299
  0.10110000000000002          3.1218273639678955
  0.10220000000000001          3.5542221069335938
  0.10330000000000003          4.0336894989013672
  0.10440000000000002          4.5616674423217773
  0.10550000000000001          5.1392498016357422
  0.10660000000000003          5.7675809860229492
  0.10770000000000002          6.4482388496398926
  0.10880000000000001          7.1827092170715332
  0.10990000000000003          7.9713425636291504
  0.11100000000000002          8.8120880126953125
  0.11210000000000001          9.7007255554199219
  0.11320000000000002          10.631317138671875
  0.11430000000000001          11.598142623901367
  0.11540000000000003          12.595424652099609
  0.11650000000000002          13.617533683776855
  0.11760000000000001          14.655831336975098
  0.11870000000000003          15.698257446289062
  0.11980000000000002          16.728700637817383
  0.12090000000000001          17.727886199951172
  0.12200000000000003          18.676687240600586
  0.12310000000000001          19.555904388427734
  0.12420000000000003          20.346849441528320
  0.12530000000000002          21.026453018188477
  0.12640000000000001          21.570579528808594
  0.12750000000000003          21.951759338378906
  0.12860000000000002          22.142204284667969
  0.12970000000000001          22.111471176147461
  0.13080000000000003          21.831485748291016
  0.13190000000000002          21.275218963623047
  0.13300000000000001          20.419286727905273
  0.13410000000000000          19.238019943237305
  0.13520000000000004          17.709642410278320
  0.13630000000000003          15.817687034606934
  0.13740000000000002          13.543042182922363
  0.13850000000000001          10.872376441955566
  0.13960000000000000          7.8001098632812500
  0.14070000000000005          4.3243846893310547
  0.14180000000000004         0.45387402176856995
  0.14290000000000003         -3.7981550693511963
  0.14400000000000002         -8.4096879959106445
  0.14510000000000001         -13.353487014770508
  0.14620000000000000         -18.594264984130859
  0.14730000000000004         -24.090908050537109
  0.14840000000000003         -29.787807464599609
  0.14950000000000002         -35.624263763427734
  0.15060000000000001         -41.531261444091797
  0.15170000000000000         -47.437889099121094
  0.15280000000000005         -53.261848449707031
  0.15390000000000004         -58.927684783935547
  0.15500000000000003         -64.345382690429688
  0.15610000000000002         -69.424217224121094
  0.15720000000000001         -74.073265075683594
  0.15830000000000000         -78.197807312011719
  0.15940000000000004         -81.712226867675781
  0.16050000000000003         -84.539024353027344
  0.16160000000000002         -86.605384826660156
  0.16270000000000001         -87.841285705566406
  0.16380000000000000         -88.187149047851562
  0.16490000000000005         -87.589378356933594
  0.16600000000000004         -86.018730163574219
  0.16710000000000003         -83.453529357910156
  0.16820000000000002         -79.890434265136719
  0.16930000000000001         -75.341201782226562
  0.17040000000000000         -69.825103759765625
  0.17150000000000004         -63.380882263183594
  0.17260000000000003         -56.064586639404297
  0.17370000000000002         -47.950660705566406
  0.17480000000000001         -39.131134033203125
  0.17590000000000000         -29.707729339599609
  0.17700000000000005         -19.791049957275391
  0.17810000000000004         -9.4994354248046875
  0.17920000000000003          1.0389331579208374
  0.18030000000000002          11.686101913452148
  0.18140000000000001          22.302368164062500
  0.18250000000000000          32.748588562011719
  0.18360000000000004          42.888526916503906
  0.18470000000000003          52.586776733398438
  0.18580000000000002          61.712406158447266
  0.18690000000000001          70.144416809082031
  0.18800000000000000          77.772644042968750
  0.18910000000000005          84.508255004882812
  0.19020000000000004          90.270751953125000
  0.19130000000000003          94.998901367187500
  0.19240000000000002          98.643280029296875
  0.19350000000000001          101.16543579101562
  0.19460000000000005          102.54722595214844
  0.19570000000000004          102.79686737060547
  0.19680000000000003          101.94715118408203
  0.19790000000000002          100.03543853759766
  0.19900000000000001          97.114196777343750
  0.20010000000000000          93.242980957031250
  0.20120000000000005          88.503860473632812
  0.20230000000000004          82.990905761718750
  0.20340000000000003          76.806053161621094
  0.20450000000000002          70.058418273925781
  0.20560000000000000          62.855102539062500
  0.20670000000000005          55.300453186035156
  0.20780000000000004          47.512496948242188
  0.20890000000000003          39.604854583740234
