 -0.12000000000000000          0.0000000000000000
 -0.11889999999999999          0.0000000000000000
 -0.11780000000000000          0.0000000000000000
 -0.11670000000000000          0.0000000000000000
 -0.11559999999999999          0.0000000000000000
 -0.11449999999999999          0.0000000000000000
 -0.11340000000000000          0.0000000000000000
 -0.11230000000000000          0.0000000000000000
 -0.11119999999999999          0.0000000000000000
 -0.11009999999999999          0.0000000000000000
 -0.10900000000000000         -1.2226400542792857E-034
 -0.10790000000000000          2.1680939029421199E-033
 -0.10679999999999999         -2.4605024573445826E-031
 -0.10569999999999999         -3.3919806378570747E-031
 -0.10460000000000000         -3.8251648822650379E-031
 -0.10349999999999999         -4.6154814820742888E-029
 -0.10239999999999999         -2.1671601329002716E-028
 -0.10130000000000000          1.3446556389632453E-028
 -0.10020000000000000          2.8166819807230599E-027
  -9.9099999999999994E-002     2.1918014917219827E-027
  -9.7999999999999990E-002    -2.9867466407489072E-026
  -9.6899999999999986E-002    -8.2741752966957850E-026
  -9.5799999999999996E-002     1.1411889885032572E-025
  -9.4699999999999993E-002     9.6244018247641965E-025
  -9.3599999999999989E-002     1.1862489945804176E-024
  -9.2499999999999999E-002    -4.4009453385621991E-024
  -9.1399999999999995E-002    -1.7561081891170994E-023
  -9.0299999999999991E-002    -1.0657300992535081E-023
  -8.9200000000000002E-002     7.9776159126018427E-023
  -8.8099999999999984E-002     2.3055304351797019E-022
  -8.6999999999999994E-002     7.8258296081064574E-023
  -8.5899999999999990E-002    -9.7172194276421632E-022
  -8.4799999999999986E-002    -2.4197854136208619E-021
  -8.3699999999999997E-002    -7.1913908125462278E-022
  -8.2599999999999993E-002     8.8778524413381834E-021
  -8.1499999999999989E-002     2.1299349858027805E-020
  -8.0399999999999999E-002     8.5948597366170144E-021
  -7.9299999999999995E-002    -6.3573269708144114E-020
  -7.8199999999999992E-002    -1.6004052677249870E-019
  -7.7100000000000002E-002    -9.5450322511751606E-020
  -7.5999999999999984E-002     3.5973588531563642E-019
  -7.4899999999999994E-002     1.0296129049479502E-018
  -7.3799999999999991E-002     8.5995950548181964E-019
  -7.2699999999999987E-002    -1.5569125247072551E-018
  -7.1599999999999997E-002    -5.6480975831723174E-018
  -7.0499999999999993E-002    -6.2452057665595397E-018
  -6.9399999999999989E-002     4.4419102585730054E-018
  -6.8300000000000000E-002     2.6146429737166232E-017
  -6.7199999999999996E-002     3.7162147810128836E-017
  -6.6099999999999992E-002    -8.4268714711109987E-019
  -6.5000000000000002E-002    -9.9893474058231324E-017
  -6.3899999999999985E-002    -1.8351768189608388E-016
  -6.2799999999999995E-002    -8.5901786788790765E-017
  -6.1699999999999991E-002     2.9823188333832581E-016
  -6.0599999999999994E-002     7.5482298185250668E-016
  -5.9499999999999990E-002     6.6010495189389303E-016
  -5.8399999999999994E-002    -5.7699519084004436E-016
  -5.7299999999999990E-002    -2.5606441270207940E-015
  -5.6199999999999986E-002    -3.2816320072183132E-015
  -5.5099999999999996E-002    -1.5213736113157820E-016
  -5.3999999999999992E-002     6.9110006854376706E-015
  -5.2899999999999989E-002     1.2531132476622207E-014
  -5.1799999999999985E-002     7.3892858859178102E-015
  -5.0699999999999995E-002    -1.3187981116229500E-014
  -4.9599999999999991E-002    -3.8118986455835599E-014
  -4.8499999999999988E-002    -3.9418643316916496E-014
  -4.7399999999999998E-002     7.8440307702443320E-015
  -4.6299999999999994E-002     9.0730754073037323E-014
  -4.5199999999999990E-002     1.3993122524418034E-013
  -4.4099999999999986E-002     6.5385298900471484E-014
  -4.2999999999999997E-002    -1.5180951385296987E-013
  -4.1899999999999993E-002    -3.7690757090889926E-013
  -4.0799999999999989E-002    -3.5567295636473872E-013
  -3.9699999999999985E-002     8.3783593127564893E-014
  -3.8599999999999995E-002     7.7036949952882794E-013
  -3.7499999999999992E-002     1.1285775916233809E-012
  -3.6399999999999988E-002     5.2941901080086340E-013
  -3.5299999999999984E-002    -1.0541846258774190E-012
  -3.4199999999999994E-002    -2.6102557615370614E-012
  -3.3099999999999991E-002    -2.4913857869096612E-012
  -3.1999999999999987E-002     2.4471616681849551E-013
  -3.0899999999999997E-002     4.4166840323933698E-012
  -2.9799999999999993E-002     6.6768621881374557E-012
  -2.8699999999999989E-002     3.6819475419946901E-012
  -2.7599999999999986E-002    -4.5328554278134536E-012
  -2.6499999999999996E-002    -1.2776899330213531E-011
  -2.5399999999999992E-002    -1.3154583325403202E-011
  -2.4299999999999988E-002    -1.4194693597618935E-012
  -2.3199999999999985E-002     1.7167677002216664E-011
  -2.2099999999999995E-002     2.8462704415588291E-011
  -2.0999999999999991E-002     1.8876329319073015E-011
  -1.9899999999999987E-002    -1.1621845846798706E-011
  -1.8799999999999983E-002    -4.3872454280613482E-011
  -1.7699999999999994E-002    -4.9617858433048667E-011
  -1.6599999999999990E-002    -1.3974404966532461E-011
  -1.5499999999999986E-002     4.6075216558749688E-011
  -1.4399999999999996E-002     8.5842853658757434E-011
  -1.3299999999999992E-002     6.3889935009164844E-011
  -1.2199999999999989E-002    -1.9615732649302942E-011
  -1.1099999999999985E-002    -1.0990255927545434E-010
  -9.9999999999999950E-003    -1.2995142462113307E-010
  -8.8999999999999913E-003    -4.2788474152732903E-011
  -7.7999999999999875E-003     1.0387993937266415E-010
  -6.6999999999999837E-003     1.9638553283574112E-010
  -5.5999999999999939E-003     1.3848681923445127E-010
  -4.4999999999999901E-003    -5.7637200567839386E-011
  -3.3999999999999864E-003    -2.5273974579853586E-010
  -2.2999999999999826E-003    -2.7082897036123654E-010
  -1.1999999999999927E-003    -4.6908140566293000E-011
  -9.9999999999988987E-005     2.8468047363894300E-010
   1.0000000000000148E-003     4.5581577401421214E-010
   2.1000000000000185E-003     2.6629243254916446E-010
   3.2000000000000084E-003    -2.2101541430341598E-010
   4.3000000000000121E-003    -6.6435329459935133E-010
   5.4000000000000159E-003    -6.6565053469247459E-010
   6.5000000000000058E-003    -9.8136491988309871E-011
   7.6000000000000234E-003     7.1638972531928857E-010
   8.7000000000000133E-003     1.1669486488230518E-009
   9.8000000000000032E-003     7.9261486263249026E-010
   1.0900000000000021E-002    -3.0310765009033958E-010
   1.2000000000000011E-002    -1.4119098112885808E-009
   1.3100000000000001E-002    -1.6657026868927005E-009
   1.4200000000000018E-002    -7.0073896685229897E-010
   1.5300000000000008E-002     9.5698249324982498E-010
   1.6400000000000026E-002     2.1493615776080333E-009
   1.7500000000000016E-002     1.8949690705483135E-009
   1.8600000000000005E-002     1.9344949253596866E-010
   1.9700000000000023E-002    -1.8230799092577854E-009
   2.0800000000000013E-002    -2.6219169058094849E-009
   2.1900000000000003E-002    -1.4378728208086500E-009
   2.3000000000000020E-002     9.9809782660997826E-010
   2.4100000000000010E-002     2.8331630375078021E-009
   2.5200000000000000E-002     2.4439823498312307E-009
   2.6300000000000018E-002    -1.8055051898002716E-010
   2.7400000000000008E-002    -3.1564384439519699E-009
   2.8500000000000025E-002    -3.9435916754371192E-009
   2.9600000000000015E-002    -1.3521125330484551E-009
   3.0700000000000005E-002     3.1994096261200866E-009
   3.1800000000000023E-002     6.3399805405595089E-009
   3.2900000000000013E-002     5.1217727836672111E-009
   3.4000000000000002E-002    -5.1152637681184387E-010
   3.5100000000000020E-002    -7.1373764676252449E-009
   3.6200000000000010E-002    -9.9269863440554218E-009
   3.7300000000000028E-002    -6.1478822033222968E-009
   3.8400000000000017E-002     2.4532269549126795E-009
   3.9500000000000007E-002     1.0400680316990929E-008
   4.0600000000000025E-002     1.2168662522071827E-008
   4.1700000000000015E-002     6.2506302356268861E-009
   4.2800000000000005E-002    -3.4982494678814646E-009
   4.3900000000000022E-002    -1.0509459080765282E-008
   4.5000000000000012E-002    -1.0341793199586391E-008
   4.6100000000000002E-002    -4.0100411879961939E-009
   4.7200000000000020E-002     2.9595064177101449E-009
   4.8300000000000010E-002     5.1881094975669839E-009
   4.9400000000000027E-002     2.0802441991207843E-009
   5.0500000000000017E-002    -1.6292717175403482E-009
   5.1600000000000007E-002    -3.1752228624171153E-010
   5.2700000000000025E-002     6.5839373952769620E-009
   5.3800000000000014E-002     1.2587551445619738E-008
   5.4900000000000004E-002     8.9097413891181532E-009
   5.6000000000000022E-002    -6.8994072677242002E-009
   5.7100000000000012E-002    -2.5694310679114096E-008
   5.8200000000000002E-002    -3.0905024317462448E-008
   5.9300000000000019E-002    -1.1288030954403894E-008
   6.0400000000000009E-002     2.6578645062613759E-008
   6.1500000000000027E-002     5.7287898869162746E-008
   6.2600000000000017E-002     5.1679101886747958E-008
   6.3700000000000007E-002     2.4458662872817172E-010
   6.4800000000000024E-002    -7.2109145321519463E-008
   6.5900000000000014E-002    -1.1466831750794881E-007
   6.7000000000000004E-002    -8.2858278460662405E-008
   6.8100000000000022E-002     2.5022190541790224E-008
   6.9200000000000012E-002     1.5344677706252696E-007
   7.0300000000000029E-002     2.1457702814586810E-007
   7.1400000000000019E-002     1.4378662172020995E-007
   7.2500000000000009E-002    -4.7675456471552025E-008
   7.3600000000000027E-002    -2.6172901357313094E-007
   7.4700000000000016E-002    -3.6114502677264682E-007
   7.5800000000000006E-002    -2.5437520889681764E-007
   7.6900000000000024E-002     3.4143571525646621E-008
   7.8000000000000014E-002     3.5885099691768119E-007
   7.9100000000000004E-002     5.2718945653396077E-007
   8.0200000000000021E-002     4.1529918348715000E-007
   8.1300000000000011E-002     5.4405944638347137E-008
   8.2400000000000029E-002    -3.7219717796688201E-007
   8.3500000000000019E-002    -6.2896924646338448E-007
   8.4600000000000009E-002    -5.6873341236496344E-007
   8.5700000000000026E-002    -2.2594069548631524E-007
   8.6800000000000016E-002     2.0151665580669942E-007
   8.7900000000000006E-002     4.7678858550170844E-007
   8.9000000000000024E-002     4.7792786972422618E-007
   9.0100000000000013E-002     2.7824430048895010E-007
   9.1200000000000003E-002     9.1862702333855850E-008
   9.2300000000000021E-002     1.1060492255410281E-007
   9.3400000000000011E-002     3.3708425917211571E-007
   9.4500000000000028E-002     5.3518107279160176E-007
   9.5600000000000018E-002     3.5513681950760656E-007
   9.6700000000000008E-002    -4.2049282455991488E-007
   9.7800000000000026E-002    -1.6547332961636130E-006
   9.8900000000000016E-002    -2.8123006359237479E-006
  0.10000000000000001         -3.1605873118678574E-006
  0.10110000000000002         -2.1403286609711358E-006
  0.10220000000000001          2.8399313123372849E-007
  0.10330000000000003          3.4985528145625722E-006
  0.10440000000000002          6.4384598772448953E-006
  0.10550000000000001          8.0335057646152563E-006
  0.10660000000000003          7.6761443779105321E-006
  0.10770000000000002          5.4545289458474144E-006
  0.10880000000000001          2.0082693481526803E-006
  0.10990000000000003         -1.9276417333458085E-006
  0.11100000000000002         -6.0387424127839040E-006
  0.11210000000000001         -1.0702732652134728E-005
  0.11320000000000002         -1.6839794625411741E-005
  0.11430000000000001         -2.5412517061340623E-005
  0.11540000000000003         -3.6876448575640097E-005
  0.11650000000000002         -5.0949496653629467E-005
  0.11760000000000001         -6.6909349698107690E-005
  0.11870000000000003         -8.4311883256305009E-005
  0.11980000000000002         -1.0372931137681007E-004
  0.12090000000000001         -1.2702761159744114E-004
  0.12200000000000003         -1.5692574379500002E-004
  0.12310000000000001         -1.9601116946432739E-004
  0.12420000000000003         -2.4578339071013033E-004
  0.12530000000000002         -3.0639412580057979E-004
  0.12640000000000001         -3.7743369466625154E-004
  0.12750000000000003         -4.5950891217216849E-004
  0.12860000000000002         -5.5580941261723638E-004
  0.12970000000000001         -6.7272258456796408E-004
  0.13080000000000003         -8.1898941425606608E-004
  0.13190000000000002         -1.0037096217274666E-003
  0.13300000000000001         -1.2342454865574837E-003
  0.13410000000000000         -1.5152783598750830E-003
  0.13520000000000004         -1.8497377168387175E-003
  0.13630000000000003         -2.2412906400859356E-003
  0.13740000000000002         -2.6971653569489717E-003
  0.13850000000000001         -3.2298217993229628E-003
  0.13960000000000000         -3.8565902505069971E-003
  0.14070000000000005         -4.5975795947015285E-003
  0.14180000000000004         -5.4731783457100391E-003
  0.14290000000000003         -6.5027265809476376E-003
  0.14400000000000002         -7.7052023261785507E-003
  0.14510000000000001         -9.1014839708805084E-003
  0.14620000000000000         -1.0716714896261692E-002
  0.14730000000000004         -1.2581158429384232E-002
  0.14840000000000003         -1.4728915877640247E-002
  0.14950000000000002         -1.7195317894220352E-002
  0.15060000000000001         -2.0014740526676178E-002
  0.15170000000000000         -2.3220494389533997E-002
  0.15280000000000005         -2.6847152039408684E-002
  0.15390000000000004         -3.0933924019336700E-002
  0.15500000000000003         -3.5526853054761887E-002
  0.15610000000000002         -4.0678072720766068E-002
  0.15720000000000001         -4.6441938728094101E-002
  0.15830000000000000         -5.2869621664285660E-002
  0.15940000000000004         -6.0004964470863342E-002
  0.16050000000000003         -6.7883618175983429E-002
  0.16160000000000002         -7.6535627245903015E-002
  0.16270000000000001         -8.5989415645599365E-002
  0.16380000000000000         -9.6274107694625854E-002
  0.16490000000000005        -0.10741787403821945
  0.16600000000000004        -0.11944241076707840
  0.16710000000000003        -0.13235606253147125
  0.16820000000000002        -0.14614894986152649
  0.16930000000000001        -0.16079190373420715
  0.17040000000000000        -0.17623892426490784
  0.17150000000000004        -0.19243077933788300
  0.17260000000000003        -0.20929639041423798
  0.17370000000000002        -0.22674949467182159
  0.17480000000000001        -0.24468186497688293
  0.17590000000000000        -0.26295605301856995
  0.17700000000000005        -0.28140088915824890
  0.17810000000000004        -0.29981195926666260
  0.17920000000000003        -0.31795680522918701
  0.18030000000000002        -0.33558163046836853
  0.18140000000000001        -0.35241645574569702
  0.18250000000000000        -0.36817705631256104
  0.18360000000000004        -0.38256168365478516
  0.18470000000000003        -0.39524659514427185
  0.18580000000000002        -0.40588378906250000
  0.18690000000000001        -0.41410437226295471
  0.18800000000000000        -0.41952809691429138
  0.18910000000000005        -0.42177522182464600
  0.19020000000000004        -0.42047473788261414
  0.19130000000000003        -0.41526895761489868
  0.19240000000000002        -0.40581741929054260
  0.19350000000000001        -0.39180225133895874
  0.19460000000000005        -0.37293705344200134
  0.19570000000000004        -0.34897482395172119
  0.19680000000000003        -0.31971508264541626
  0.19790000000000002        -0.28501302003860474
  0.19900000000000001        -0.24478951096534729
  0.20010000000000000        -0.19903554022312164
  0.20120000000000005        -0.14781507849693298
  0.20230000000000004         -9.1266304254531860E-002
  0.20340000000000003         -2.9605057090520859E-002
  0.20450000000000002          3.6867897957563400E-002
  0.20560000000000000         0.10775946080684662
  0.20670000000000005         0.18257853388786316
  0.20780000000000004         0.26073959469795227
  0.20890000000000003         0.34157240390777588
