 -0.12000000000000000          0.0000000000000000
 -0.11889999999999999          0.0000000000000000
 -0.11780000000000000          0.0000000000000000
 -0.11670000000000000          0.0000000000000000
 -0.11559999999999999          0.0000000000000000
 -0.11449999999999999          0.0000000000000000
 -0.11340000000000000          0.0000000000000000
 -0.11230000000000000          0.0000000000000000
 -0.11119999999999999          0.0000000000000000
 -0.11009999999999999          0.0000000000000000
 -0.10900000000000000         -1.3803501023287892E-030
 -0.10790000000000000          1.1042797809364775E-029
 -0.10679999999999999          2.4570227006627587E-028
 -0.10569999999999999         -4.7207971092232160E-028
 -0.10460000000000000         -1.4107175879129038E-027
 -0.10349999999999999         -1.4107175879129038E-027
 -0.10239999999999999         -1.2011803966385574E-026
 -0.10130000000000000         -2.2612890441154742E-026
 -0.10020000000000000          1.0460014571533132E-025
  -9.9099999999999994E-002     6.2758706922614653E-025
  -9.7999999999999990E-002    -1.0120477005012430E-024
  -9.6899999999999986E-002    -2.1428304057213739E-024
  -9.5799999999999996E-002     1.4756736790588888E-024
  -9.4699999999999993E-002     2.3802998235134710E-024
  -9.3599999999999989E-002    -6.6659606349562188E-024
  -9.2499999999999999E-002    -3.0474558599226640E-024
  -9.1399999999999995E-002     6.9322628793910986E-023
  -9.0299999999999991E-002     7.2941133766159767E-023
  -8.9200000000000002E-002    -1.0074706703645828E-022
  -8.8099999999999984E-002    -4.2850990635921400E-023
  -8.6999999999999994E-002     1.3083720070036578E-022
  -8.5899999999999990E-002     1.0571742842694365E-021
  -8.4799999999999986E-002     1.3083711234794440E-022
  -8.3699999999999997E-002    -1.2586684940730000E-021
  -8.2599999999999993E-002     5.9400559733449458E-022
  -8.1499999999999989E-002     3.8361853961371294E-021
  -8.0399999999999999E-002     1.3099556105610092E-020
  -7.9299999999999995E-002     1.3099555297816525E-020
  -7.8199999999999992E-002    -1.7218378373402150E-021
  -7.7100000000000002E-002    -9.1325344049185849E-021
  -7.5999999999999984E-002     3.5331643384964501E-020
  -7.4899999999999994E-002     5.6888530756831863E-021
  -7.3799999999999991E-002    -1.1288228796660290E-019
  -7.2699999999999987E-002    -1.5734646414089885E-019
  -7.1599999999999997E-002    -9.8060891600271890E-020
  -7.0499999999999993E-002     1.9836697110286291E-019
  -6.9399999999999989E-002     5.5408036757253345E-019
  -6.8300000000000000E-002    -3.8775367527258947E-020
  -6.7199999999999996E-002    -1.2244867310980929E-018
  -6.6099999999999992E-002    -1.4616290729593890E-018
  -6.5000000000000002E-002    -4.5377443024161021E-019
  -6.3899999999999985E-002     2.6883609790351040E-018
  -6.2799999999999995E-002     2.6883609790351040E-018
  -6.1699999999999991E-002    -1.5734652876438420E-019
  -6.0599999999999994E-002    -1.3430579020287410E-018
  -5.9499999999999990E-002    -4.9001923061651468E-018
  -5.8399999999999994E-002    -9.6430374890298441E-018
  -5.7299999999999990E-002    -1.5734572743316579E-019
  -5.6199999999999986E-002     1.5019760274280665E-017
  -5.5099999999999996E-002     1.9762605457145362E-017
  -5.3999999999999992E-002     1.3122621539390296E-017
  -5.2899999999999989E-002    -9.6430383162104567E-018
  -5.1799999999999985E-002    -3.6202975641591947E-017
  -5.0699999999999995E-002    -4.6518665651401950E-017
  -4.9599999999999991E-002     7.6683480901707912E-018
  -4.8499999999999988E-002     1.3667375559293628E-016
  -4.7399999999999998E-002     1.8220508523030513E-016
  -4.6299999999999994E-002     3.0434026143745020E-017
  -4.5199999999999990E-002    -2.3516533056645763E-016
  -4.4099999999999986E-002    -4.4005624776016848E-016
  -4.2999999999999997E-002    -4.0970202800192257E-016
  -4.1899999999999993E-002     7.5965362398558775E-017
  -4.0799999999999989E-002     9.1070621384441901E-016
  -3.9699999999999985E-002     1.4722591999626294E-015
  -3.8599999999999995E-002     9.2588335019332156E-016
  -3.7499999999999992E-002    -9.2572357860364572E-016
  -3.6399999999999988E-002    -3.0049872349967961E-015
  -3.5299999999999984E-002    -3.5361857366589646E-015
  -3.4199999999999994E-002    -7.4359804829593349E-016
  -3.3099999999999991E-002     4.5987434644850431E-015
  -3.1999999999999987E-002     8.2412485649251306E-015
  -3.0899999999999997E-002     5.5093691043203545E-015
  -2.9799999999999993E-002    -4.3861043134063235E-015
  -2.8699999999999989E-002    -1.5070787974242987E-014
  -2.7599999999999986E-002    -1.5920705915715636E-014
  -2.6499999999999996E-002     1.3667269680175221E-016
  -2.5399999999999992E-002     2.6393067215795853E-014
  -2.4299999999999988E-002     4.0477424336589005E-014
  -2.3199999999999985E-002     1.8136723676717703E-014
  -2.2099999999999995E-002    -3.9657699731554183E-014
  -2.0999999999999991E-002    -9.0288528335671220E-014
  -1.9899999999999987E-002    -7.3411586597009471E-014
  -1.8799999999999983E-002     3.2949578260060494E-014
  -1.7699999999999994E-002     1.6893645228381604E-013
  -1.6599999999999990E-002     2.0827549483248137E-013
  -1.5499999999999986E-002     5.3347581750349746E-014
  -1.4399999999999996E-002    -2.4582354381241789E-013
  -1.3299999999999992E-002    -4.6145986337675637E-013
  -1.2199999999999989E-002    -3.1964497238315404E-013
  -1.1099999999999985E-002     2.1458918355362483E-013
  -9.9999999999999950E-003     7.8961940068109082E-013
  -8.8999999999999913E-003     8.4595676817789123E-013
  -7.7999999999999875E-003     9.9971612477038618E-014
  -6.6999999999999837E-003    -1.0617447676261604E-012
  -5.5999999999999939E-003    -1.6785423962231705E-012
  -4.4999999999999901E-003    -9.0438859743149913E-013
  -3.3999999999999864E-003     1.0693637815528678E-012
  -2.2999999999999826E-003     2.8022252487186483E-012
  -1.1999999999999927E-003     2.4991688406250656E-012
  -9.9999999999988987E-005    -3.7209685744936383E-013
   1.0000000000000148E-003    -3.9971186083231913E-012
   2.1000000000000185E-003    -5.1160963486507338E-012
   3.2000000000000084E-003    -1.7203097670351331E-012
   4.3000000000000121E-003     4.5486852132126110E-012
   5.4000000000000159E-003     8.6457759354563457E-012
   6.5000000000000058E-003     5.8444464545726049E-012
   7.6000000000000234E-003    -3.5425330204008620E-012
   8.7000000000000133E-003    -1.2696392548416924E-011
   9.8000000000000032E-003    -1.2660452547441636E-011
   1.0900000000000021E-002    -3.3907013481659920E-013
   1.2000000000000011E-002     1.6499990609930570E-011
   1.3100000000000001E-002     2.3105066471185154E-011
   1.4200000000000018E-002     9.6695628934440059E-012
   1.5300000000000008E-002    -1.7551123748793529E-011
   1.6400000000000026E-002    -3.7024446009059631E-011
   1.7500000000000016E-002    -2.7808422231601071E-011
   1.8600000000000005E-002     1.0267902847416188E-011
   1.9700000000000023E-002     5.0021722874937780E-011
   2.0800000000000013E-002     5.4667617654935441E-011
   2.1900000000000003E-002     1.0095004693289056E-011
   2.3000000000000020E-002    -5.5396274373231691E-011
   2.4100000000000010E-002    -8.6230328433245518E-011
   2.5200000000000000E-002    -4.4579496344399061E-011
   2.6300000000000018E-002     4.9041638805480403E-011
   2.7400000000000008E-002     1.2068729349223872E-010
   2.8500000000000025E-002     9.8742888865466227E-011
   2.9600000000000015E-002    -2.0117411209108482E-011
   3.0700000000000005E-002    -1.5275512799117763E-010
   3.1800000000000023E-002    -1.8400102275162311E-010
   3.2900000000000013E-002    -6.0913468713508223E-011
   3.4000000000000002E-002     1.4696772965283600E-010
   3.5100000000000020E-002     2.8422900144597918E-010
   3.6200000000000010E-002     2.2170612568039871E-010
   3.7300000000000028E-002    -3.3343092176174594E-011
   3.8400000000000017E-002    -3.1774993747291091E-010
   3.9500000000000007E-002    -4.0882228158345413E-010
   4.0600000000000025E-002    -1.9341905854730612E-010
   4.1700000000000015E-002     2.0514681620120712E-010
   4.2800000000000005E-002     5.0141946150716876E-010
   4.3900000000000022E-002     4.4160078371824341E-010
   4.5000000000000012E-002     1.2177546297731379E-011
   4.6100000000000002E-002    -5.1156617830727669E-010
   4.7200000000000020E-002    -7.3175610015852044E-010
   4.8300000000000010E-002    -3.7243991224400474E-010
   4.9400000000000027E-002     4.2775349928803053E-010
   5.0500000000000017E-002     1.1100812491449119E-009
   5.1600000000000007E-002     1.0722845944499682E-009
   5.2700000000000025E-002     1.3035399148986215E-010
   5.3800000000000014E-002    -1.3263062870194631E-009
   5.4900000000000004E-002    -2.2115420605928193E-009
   5.6000000000000022E-002    -1.4685409555070805E-009
   5.7100000000000012E-002     8.1019496667167346E-010
   5.8200000000000002E-002     3.0441715814788495E-009
   5.9300000000000019E-002     3.1585560833491400E-009
   6.0400000000000009E-002     7.8532869096648028E-010
   6.1500000000000027E-002    -2.8053463996258188E-009
   6.2600000000000017E-002    -5.4471285260149216E-009
   6.3700000000000007E-002    -4.9299124782464787E-009
   6.4800000000000024E-002     6.0828114767375041E-010
   6.5900000000000014E-002     8.8240641460402003E-009
   6.7000000000000004E-002     1.3037388058023680E-008
   6.8100000000000022E-002     6.2101319642238195E-009
   6.9200000000000012E-002    -1.0690907714661080E-008
   7.0300000000000029E-002    -2.1870738109441845E-008
   7.1400000000000019E-002    -1.3062146031472821E-008
   7.2500000000000009E-002     1.1095836249808144E-008
   7.3600000000000027E-002     2.9445081040080368E-008
   7.4700000000000016E-002     1.7923092343608005E-008
   7.5800000000000006E-002    -2.1003405237252082E-008
   7.6900000000000024E-002    -4.6116248597627418E-008
   7.8000000000000014E-002    -2.5268450443149959E-008
   7.9100000000000004E-002     2.3620433609039537E-008
   8.0200000000000021E-002     5.6817768268047075E-008
   8.1300000000000011E-002     4.3004114047562325E-008
   8.2400000000000029E-002    -8.4310647352481283E-009
   8.3500000000000019E-002    -6.4067634752973390E-008
   8.4600000000000009E-002    -8.0045644779147551E-008
   8.5700000000000026E-002    -3.0392879324381283E-008
   8.6800000000000016E-002     3.9248313044026872E-008
   8.7900000000000006E-002     7.1458956085734826E-008
   8.9000000000000024E-002     6.0637198373569845E-008
   9.0100000000000013E-002     3.7720532475304935E-008
   9.1200000000000003E-002     1.8623312669774350E-008
   9.2300000000000021E-002    -6.3303873254483278E-009
   9.3400000000000011E-002    -6.0821115255293989E-008
   9.4500000000000028E-002    -1.1251092502106985E-007
   9.5600000000000018E-002    -4.2742417605268201E-008
   9.6700000000000008E-002     1.3244275010038109E-007
   9.7800000000000026E-002     2.1901681179770094E-007
   9.8900000000000016E-002     1.3651683161697292E-007
  0.10000000000000001          7.6742585619626880E-009
  0.10110000000000002         -3.8159065240961354E-008
  0.10220000000000001         -1.0334424160873823E-007
  0.10330000000000003         -2.3371458723886462E-007
  0.10440000000000002         -3.3556642620169441E-007
  0.10550000000000001         -2.2149237111079856E-007
  0.10660000000000003          2.6841496492124861E-007
  0.10770000000000002          7.3489633223289275E-007
  0.10880000000000001          6.5545185634618974E-007
  0.10990000000000003         -1.0028876573642265E-007
  0.11100000000000002         -8.8658498498261906E-007
  0.11210000000000001         -9.8639986845228123E-007
  0.11320000000000002         -5.5658512110312586E-007
  0.11430000000000001          6.2674033074472391E-008
  0.11540000000000003          4.3545173866732512E-007
  0.11650000000000002          2.9897026365688362E-007
  0.11760000000000001         -1.3695560596715950E-007
  0.11870000000000003         -1.7362226856221241E-007
  0.11980000000000002          4.5378504864856950E-007
  0.12090000000000001          8.0415537695444073E-007
  0.12200000000000003          6.1674802509514848E-007
  0.12310000000000001         -8.3992595989457186E-008
  0.12420000000000003         -1.0088073167935363E-006
  0.12530000000000002         -1.0413999689262710E-006
  0.12640000000000001          1.5230358485496254E-007
  0.12750000000000003          1.9041551695408998E-006
  0.12860000000000002          2.7148957997269463E-006
  0.12970000000000001          7.5934053711534943E-007
  0.13080000000000003         -2.5895481030602241E-006
  0.13190000000000002         -4.0888071453082375E-006
  0.13300000000000001         -2.7443629733170383E-006
  0.13410000000000000          6.1267354567462462E-007
  0.13520000000000004          3.0652659006591421E-006
  0.13630000000000003          2.4297103209391935E-006
  0.13740000000000002         -6.7473365561454557E-007
  0.13850000000000001         -3.3147332487715175E-006
  0.13960000000000000         -1.8643631847226061E-006
  0.14070000000000005          2.6334139420214342E-006
  0.14180000000000004          5.5341542974929325E-006
  0.14290000000000003          3.8230436985031702E-006
  0.14400000000000002         -1.5873258689680370E-006
  0.14510000000000001         -5.2295472414698452E-006
  0.14620000000000000         -3.5958437365479767E-006
  0.14730000000000004          1.5578592638121336E-006
  0.14840000000000003          5.2693403631565161E-006
  0.14950000000000002          3.0041553600312909E-006
  0.15060000000000001         -3.4654733553907136E-006
  0.15170000000000000         -7.7432505349861458E-006
  0.15280000000000005         -5.6369544836343266E-006
  0.15390000000000004          7.5730383741756668E-007
  0.15500000000000003          5.5952664297365118E-006
  0.15610000000000002          5.1654519666044507E-006
  0.15720000000000001          1.2319341067268397E-006
  0.15830000000000000         -1.4831812222837470E-006
  0.15940000000000004         -7.2183871679953882E-007
  0.16050000000000003          1.6047118833739660E-006
  0.16160000000000002          2.1862858829990728E-006
  0.16270000000000001          3.1101063058258660E-008
  0.16380000000000000         -2.9368613922997611E-006
  0.16490000000000005         -3.6600092698790831E-006
  0.16600000000000004         -8.8963918187801028E-007
  0.16710000000000003          3.0499900276481640E-006
  0.16820000000000002          4.5492488425225019E-006
  0.16930000000000001          2.3085083284968277E-006
  0.17040000000000000         -1.9326023448229535E-006
  0.17150000000000004         -3.0774172046221793E-006
  0.17260000000000003          7.2776731485646451E-007
  0.17370000000000002          4.3292479858791921E-006
  0.17480000000000001          3.6040628401678987E-006
  0.17590000000000000         -1.0403811074866098E-006
  0.17700000000000005         -6.2633439483761322E-006
  0.17810000000000004         -7.5914922490483150E-006
  0.17920000000000003         -3.2077891773951706E-006
  0.18030000000000002          2.2188769435160793E-006
  0.18140000000000001          2.6099883143615443E-006
  0.18250000000000000         -1.4885295058775228E-006
  0.18360000000000004         -5.6277881412825081E-006
  0.18470000000000003         -6.4914916038105730E-006
  0.18580000000000002         -1.7329736010651686E-006
  0.18690000000000001          5.7388770073885098E-006
  0.18800000000000000          9.2018390205339529E-006
  0.18910000000000005          7.5396169449959416E-006
  0.19020000000000004          2.3410989342664834E-006
  0.19130000000000003         -3.5459372611512663E-006
  0.19240000000000002         -5.9455664995766710E-006
  0.19350000000000001         -3.9492706491728313E-006
  0.19460000000000005          1.5739536252112885E-007
  0.19570000000000004          3.4166541809099726E-006
  0.19680000000000003          4.1214689190383069E-006
  0.19790000000000002          2.0762838630616898E-006
  0.19900000000000001         -8.0001200331025757E-007
  0.20010000000000000         -2.5844560695986729E-006
  0.20120000000000005         -2.7922337721975055E-006
  0.20230000000000004         -1.8694561276788590E-006
  0.20340000000000003         -9.1408600155773456E-007
  0.20450000000000002         -3.8343796404660679E-007
  0.20560000000000000          4.0387678268416494E-007
  0.20670000000000005          1.6831357925184420E-006
  0.20780000000000004          2.7938299353991169E-006
  0.20890000000000003          2.9272557640069863E-006
