 -0.12000000000000000          0.0000000000000000
 -0.11889999999999999          0.0000000000000000
 -0.11780000000000000          0.0000000000000000
 -0.11670000000000000         -5.7401463389396667E-002
 -0.11559999999999999        -0.15647108852863312
 -0.11449999999999999          2.7559095993638039E-002
 -0.11340000000000000         0.91014462709426880
 -0.11230000000000000          2.1506569385528564
 -0.11119999999999999          2.1453502178192139
 -0.11009999999999999        -0.85900270938873291
 -0.10900000000000000         -6.3606238365173340
 -0.10790000000000000         -10.390034675598145
 -0.10679999999999999         -7.8118948936462402
 -0.10569999999999999          2.8420813083648682
 -0.10460000000000000          16.399642944335938
 -0.10349999999999999          23.664459228515625
 -0.10239999999999999          18.290483474731445
 -0.10130000000000000          1.9550166130065918
 -0.10020000000000000         -17.040414810180664
  -9.9099999999999994E-002    -30.254404067993164
  -9.7999999999999990E-002    -34.107128143310547
  -9.6899999999999986E-002    -28.855615615844727
  -9.5799999999999996E-002    -14.297112464904785
  -9.4699999999999993E-002     10.783923149108887
  -9.3599999999999989E-002     42.898296356201172
  -9.2499999999999999E-002     68.407890319824219
  -9.1399999999999995E-002     67.900512695312500
  -9.0299999999999991E-002     31.384035110473633
  -8.9200000000000002E-002    -27.612024307250977
  -8.8099999999999984E-002    -74.336280822753906
  -8.6999999999999994E-002    -74.636253356933594
  -8.5899999999999990E-002    -21.308149337768555
  -8.4799999999999986E-002     56.783721923828125
  -8.3699999999999997E-002     112.15547943115234
  -8.2599999999999993E-002     110.60387420654297
  -8.1499999999999989E-002     53.905529022216797
  -8.0399999999999999E-002    -22.291912078857422
  -7.9299999999999995E-002    -71.654701232910156
  -7.8199999999999992E-002    -64.162933349609375
  -7.7100000000000002E-002    -1.1637985706329346
  -7.5999999999999984E-002     86.296653747558594
  -7.4899999999999994E-002     151.67228698730469
  -7.3799999999999991E-002     153.12074279785156
  -7.2699999999999987E-002     72.989654541015625
  -7.1599999999999997E-002    -72.296119689941406
  -7.0499999999999993E-002    -240.81349182128906
  -6.9399999999999989E-002    -391.92904663085938
  -6.8300000000000000E-002    -515.47692871093750
  -6.7199999999999996E-002    -640.01184082031250
  -6.6099999999999992E-002    -810.20861816406250
  -6.5000000000000002E-002    -1050.4858398437500
  -6.3899999999999985E-002    -1348.0704345703125
  -6.2799999999999995E-002    -1674.3378906250000
  -6.1699999999999991E-002    -2027.6473388671875
  -6.0599999999999994E-002    -2457.5039062500000
  -5.9499999999999990E-002    -3044.3044433593750
  -5.8399999999999994E-002    -3850.7937011718750
  -5.7299999999999990E-002    -4890.6904296875000
  -5.6199999999999986E-002    -6146.2719726562500
  -5.5099999999999996E-002    -7620.0981445312500
  -5.3999999999999992E-002    -9373.1660156250000
  -5.2899999999999989E-002    -11514.670898437500
  -5.1799999999999985E-002    -14155.958007812500
  -5.0699999999999995E-002    -17376.173828125000
  -4.9599999999999991E-002    -21232.742187500000
  -4.8499999999999988E-002    -25803.478515625000
  -4.7399999999999998E-002    -31217.478515625000
  -4.6299999999999994E-002    -37646.546875000000
  -4.5199999999999990E-002    -45273.742187500000
  -4.4099999999999986E-002    -54280.726562500000
  -4.2999999999999997E-002    -64868.035156250000
  -4.1899999999999993E-002    -77285.343750000000
  -4.0799999999999989E-002    -91827.007812500000
  -3.9699999999999985E-002    -108792.31250000000
  -3.8599999999999995E-002    -128451.00781250000
  -3.7499999999999992E-002    -151063.54687500000
  -3.6399999999999988E-002    -176948.14062500000
  -3.5299999999999984E-002    -206539.39062500000
  -3.4199999999999994E-002    -240372.21875000000
  -3.3099999999999991E-002    -279001.25000000000
  -3.1999999999999987E-002    -322915.12500000000
  -3.0899999999999997E-002    -372524.65625000000
  -2.9799999999999993E-002    -428235.50000000000
  -2.8699999999999989E-002    -490525.62500000000
  -2.7599999999999986E-002    -559968.37500000000
  -2.6499999999999996E-002    -637177.25000000000
  -2.5399999999999992E-002    -722717.12500000000
  -2.4299999999999988E-002    -817071.37500000000
  -2.3199999999999985E-002    -920642.68750000000
  -2.2099999999999995E-002    -1033780.9375000000
  -2.0999999999999991E-002    -1156786.7500000000
  -1.9899999999999987E-002    -1289883.5000000000
  -1.8799999999999983E-002    -1433217.7500000000
  -1.7699999999999994E-002    -1586857.3750000000
  -1.6599999999999990E-002    -1750772.6250000000
  -1.5499999999999986E-002    -1924755.7500000000
  -1.4399999999999996E-002    -2108337.5000000000
  -1.3299999999999992E-002    -2300718.0000000000
  -1.2199999999999989E-002    -2500839.2500000000
  -1.1099999999999985E-002    -2707521.7500000000
  -9.9999999999999950E-003    -2919504.2500000000
  -8.8999999999999913E-003    -3135410.7500000000
  -7.7999999999999875E-003    -3353501.5000000000
  -6.6999999999999837E-003    -3571549.7500000000
  -5.5999999999999939E-003    -3786855.7500000000
  -4.4999999999999901E-003    -3996418.0000000000
  -3.3999999999999864E-003    -4197153.5000000000
  -2.2999999999999826E-003    -4385925.0000000000
  -1.1999999999999927E-003    -4559437.0000000000
  -9.9999999999988987E-005    -4714090.0000000000
   1.0000000000000148E-003    -4845885.5000000000
   2.1000000000000185E-003    -4950680.0000000000
   3.2000000000000084E-003    -5024326.0000000000
   4.3000000000000121E-003    -5062810.5000000000
   5.4000000000000159E-003    -5062208.0000000000
   6.5000000000000058E-003    -5018559.5000000000
   7.6000000000000234E-003    -4928068.0000000000
   8.7000000000000133E-003    -4787151.0000000000
   9.8000000000000032E-003    -4592702.0000000000
   1.0900000000000021E-002    -4342109.0000000000
   1.2000000000000011E-002    -4033303.5000000000
   1.3100000000000001E-002    -3664776.0000000000
   1.4200000000000018E-002    -3235591.2500000000
   1.5300000000000008E-002    -2745614.0000000000
   1.6400000000000026E-002    -2195520.2500000000
   1.7500000000000016E-002    -1586964.7500000000
   1.8600000000000005E-002    -922357.62500000000
   1.9700000000000023E-002    -204958.14062500000
   2.0800000000000013E-002     561064.43750000000
   2.1900000000000003E-002     1370337.5000000000
   2.3000000000000020E-002     2216583.2500000000
   2.4100000000000010E-002     3092641.2500000000
   2.5200000000000000E-002     3990686.0000000000
   2.6300000000000018E-002     4902398.5000000000
   2.7400000000000008E-002     5818704.5000000000
   2.8500000000000025E-002     6729771.5000000000
   2.9600000000000015E-002     7625167.5000000000
   3.0700000000000005E-002     8494245.0000000000
   3.1800000000000023E-002     9326583.0000000000
   3.2900000000000013E-002     10112048.000000000
   3.4000000000000002E-002     10840682.000000000
   3.5100000000000020E-002     11502593.000000000
   3.6200000000000010E-002     12088144.000000000
   3.7300000000000028E-002     12588515.000000000
   3.8400000000000017E-002     12996012.000000000
   3.9500000000000007E-002     13304232.000000000
   4.0600000000000025E-002     13507915.000000000
   4.1700000000000015E-002     13602859.000000000
   4.2800000000000005E-002     13585960.000000000
   4.3900000000000022E-002     13455545.000000000
   4.5000000000000012E-002     13211611.000000000
   4.6100000000000002E-002     12855857.000000000
   4.7200000000000020E-002     12391495.000000000
   4.8300000000000010E-002     11823014.000000000
   4.9400000000000027E-002     11156199.000000000
   5.0500000000000017E-002     10398113.000000000
   5.1600000000000007E-002     9557052.0000000000
   5.2700000000000025E-002     8642461.0000000000
   5.3800000000000014E-002     7664668.5000000000
   5.4900000000000004E-002     6634779.0000000000
   5.6000000000000022E-002     5564420.5000000000
   5.7100000000000012E-002     4465687.5000000000
   5.8200000000000002E-002     3350898.2500000000
   5.9300000000000019E-002     2232319.0000000000
   6.0400000000000009E-002     1121930.8750000000
   6.1500000000000027E-002     31120.953125000000
   6.2600000000000017E-002    -1029074.6875000000
   6.3700000000000007E-002    -2047990.2500000000
   6.4800000000000024E-002    -3015796.5000000000
   6.5900000000000014E-002    -3923900.7500000000
   6.7000000000000004E-002    -4765076.5000000000
   6.8100000000000022E-002    -5533240.5000000000
   6.9200000000000012E-002    -6223263.0000000000
   7.0300000000000029E-002    -6830938.0000000000
   7.1400000000000019E-002    -7353170.5000000000
   7.2500000000000009E-002    -7788396.5000000000
   7.3600000000000027E-002    -8136567.5000000000
   7.4700000000000016E-002    -8398940.0000000000
   7.5800000000000006E-002    -8577609.0000000000
   7.6900000000000024E-002    -8675311.0000000000
   7.8000000000000014E-002    -8695463.0000000000
   7.9100000000000004E-002    -8642399.0000000000
   8.0200000000000021E-002    -8521578.0000000000
   8.1300000000000011E-002    -8339169.0000000000
   8.2400000000000029E-002    -8101516.5000000000
   8.3500000000000019E-002    -7814952.5000000000
   8.4600000000000009E-002    -7485717.5000000000
   8.5700000000000026E-002    -7120273.0000000000
   8.6800000000000016E-002    -6725319.5000000000
   8.7900000000000006E-002    -6307670.5000000000
   8.9000000000000024E-002    -5873729.0000000000
   9.0100000000000013E-002    -5429382.0000000000
   9.1200000000000003E-002    -4980045.0000000000
   9.2300000000000021E-002    -4530795.0000000000
   9.3400000000000011E-002    -4086376.0000000000
   9.4500000000000028E-002    -3651040.7500000000
   9.5600000000000018E-002    -3228430.5000000000
   9.6700000000000008E-002    -2821590.5000000000
   9.7800000000000026E-002    -2433141.5000000000
   9.8900000000000016E-002    -2065349.3750000000
  0.10000000000000001         -1719988.3750000000
  0.10110000000000002         -1398206.0000000000
  0.10220000000000001         -1100510.6250000000
  0.10330000000000003         -827102.12500000000
  0.10440000000000002         -578107.37500000000
  0.10550000000000001         -353584.18750000000
  0.10660000000000003         -153274.82812500000
  0.10770000000000002          23693.708984375000
  0.10880000000000001          178732.65625000000
  0.10990000000000003          313350.37500000000
  0.11100000000000002          428778.06250000000
  0.11210000000000001          525934.75000000000
  0.11320000000000002          605825.75000000000
  0.11430000000000001          669867.18750000000
  0.11540000000000003          719837.43750000000
  0.11650000000000002          757526.25000000000
  0.11760000000000001          784296.18750000000
  0.11870000000000003          801075.75000000000
  0.11980000000000002          808762.81250000000
  0.12090000000000001          808528.68750000000
  0.12200000000000003          801763.68750000000
  0.12310000000000001          789788.31250000000
  0.12420000000000003          773527.81250000000
  0.12530000000000002          753555.18750000000
  0.12640000000000001          730433.75000000000
  0.12750000000000003          704905.25000000000
  0.12860000000000002          677784.56250000000
  0.12970000000000001          649655.87500000000
  0.13080000000000003          620818.12500000000
  0.13190000000000002          591445.50000000000
  0.13300000000000001          561876.75000000000
  0.13410000000000000          532647.00000000000
  0.13520000000000004          504218.21875000000
  0.13630000000000003          476711.00000000000
  0.13740000000000002          449935.84375000000
  0.13850000000000001          423735.87500000000
  0.13960000000000000          398336.96875000000
  0.14070000000000005          374232.75000000000
  0.14180000000000004          351756.46875000000
  0.14290000000000003          330732.03125000000
  0.14400000000000002          310645.46875000000
  0.14510000000000001          291146.03125000000
  0.14620000000000000          272411.87500000000
  0.14730000000000004          254986.59375000000
  0.14840000000000003          239213.01562500000
  0.14950000000000002          224843.96875000000
  0.15060000000000001          211242.95312500000
  0.15170000000000000          197969.59375000000
  0.15280000000000005          185192.62500000000
  0.15390000000000004          173476.57812500000
  0.15500000000000003          163179.53125000000
  0.15610000000000002          154057.59375000000
  0.15720000000000001          145471.62500000000
  0.15830000000000000          136996.21875000000
  0.15940000000000004          128786.25781250000
  0.16050000000000003          121340.97656250000
  0.16160000000000002          114941.07812500000
  0.16270000000000001          109331.57812500000
  0.16380000000000000          103981.38281250000
  0.16490000000000005          98613.335937500000
  0.16600000000000004          93447.882812500000
  0.16710000000000003          88918.718750000000
  0.16820000000000002          85155.250000000000
  0.16930000000000001          81833.437500000000
  0.17040000000000000          78517.843750000000
  0.17150000000000004          75120.968750000000
  0.17260000000000003          71981.523437500000
  0.17370000000000002          69450.171875000000
  0.17480000000000001          67449.421875000000
  0.17590000000000000          65523.058593750000
  0.17700000000000005          63323.027343750000
  0.17810000000000004          61025.656250000000
  0.17920000000000003          59187.468750000000
  0.18030000000000002          58173.644531250000
  0.18140000000000001          57751.195312500000
  0.18250000000000000          57308.328125000000
  0.18360000000000004          56515.562500000000
  0.18470000000000003          55734.671875000000
  0.18580000000000002          55729.152343750000
  0.18690000000000001          56936.203125000000
  0.18800000000000000          59050.347656250000
  0.18910000000000005          61373.855468750000
  0.19020000000000004          63597.593750000000
  0.19130000000000003          66220.070312500000
  0.19240000000000002          70170.101562500000
  0.19350000000000001          75997.304687500000
  0.19460000000000005          83451.648437500000
  0.19570000000000004          91880.679687500000
  0.19680000000000003          101036.17968750000
  0.19790000000000002          111462.06250000000
  0.19900000000000001          124079.16406250000
  0.20010000000000000          139414.25000000000
  0.20120000000000005          157262.76562500000
  0.20230000000000004          177129.65625000000
  0.20340000000000003          198964.57812500000
  0.20450000000000002          223415.48437500000
  0.20560000000000000          251353.90625000000
  0.20670000000000005          283179.90625000000
  0.20780000000000004          318637.34375000000
  0.20890000000000003          357331.18750000000
