 -0.12000000000000000          0.0000000000000000
 -0.11889999999999999          0.0000000000000000
 -0.11780000000000000          0.0000000000000000
 -0.11670000000000000          0.0000000000000000
 -0.11559999999999999          0.0000000000000000
 -0.11449999999999999          0.0000000000000000
 -0.11340000000000000          0.0000000000000000
 -0.11230000000000000          0.0000000000000000
 -0.11119999999999999          1.0279843671161310E-023
 -0.11009999999999999         -1.9274702978565976E-022
 -0.10900000000000000          2.3129644079150150E-022
 -0.10790000000000000          6.1679047511927204E-022
 -0.10679999999999999         -6.5790985359044963E-021
 -0.10569999999999999          1.6447746541709632E-020
 -0.10460000000000000          6.5790986166838530E-020
 -0.10349999999999999          9.2107381926043649E-020
 -0.10239999999999999         -1.3158197233367706E-019
 -0.10130000000000000         -8.1580822329891894E-019
 -0.10020000000000000          0.0000000000000000
  -9.9099999999999994E-002     1.6842492251915511E-018
  -9.7999999999999990E-002    -4.2106230629788776E-019
  -9.6899999999999986E-002     1.0105495144354153E-017
  -9.5799999999999996E-002    -1.6842492458710664E-017
  -9.4699999999999993E-002     6.7369969007662042E-018
  -9.3599999999999989E-002     1.3473993801532408E-017
  -9.2499999999999999E-002     3.3684984917421327E-017
  -9.1399999999999995E-002     1.0779195041225927E-016
  -9.0299999999999991E-002    -2.6947987933937062E-016
  -8.9200000000000002E-002    -3.5032382725931404E-016
  -8.8099999999999984E-002     5.3895975206129634E-017
  -8.6999999999999994E-002     6.4675168923866580E-016
  -8.5899999999999990E-002     6.4675168923866580E-016
  -8.4799999999999986E-002    -2.0480471041550404E-015
  -8.3699999999999997E-002    -4.3116780164903707E-016
  -8.2599999999999993E-002     0.0000000000000000
  -8.1499999999999989E-002    -8.6233560329807414E-016
  -8.0399999999999999E-002     5.1740135139093264E-015
  -7.9299999999999995E-002     7.7610206943804633E-015
  -7.8199999999999992E-002     0.0000000000000000
  -7.7100000000000002E-002    -1.3797369652769186E-014
  -7.5999999999999984E-002    -2.5870068416579579E-014
  -7.4899999999999994E-002     0.0000000000000000
  -7.3799999999999991E-002     2.7594739305538372E-014
  -7.2699999999999987E-002     1.3797369652769186E-014
  -7.1599999999999997E-002     3.4493424555439439E-014
  -7.0499999999999993E-002     2.7594739305538372E-014
  -6.9399999999999989E-002    -1.7936579955676879E-013
  -6.8300000000000000E-002    -1.3797369822175776E-013
  -6.7199999999999996E-002     2.7594739305538372E-014
  -6.6099999999999992E-002     3.2423819488688888E-013
  -6.5000000000000002E-002     4.4151582888861396E-013
  -6.3899999999999985E-002     2.2075791444430698E-013
  -6.2799999999999995E-002    -4.4151582888861396E-013
  -6.1699999999999991E-002    -1.1589790542207434E-012
  -6.0599999999999994E-002    -1.0899922457674460E-012
  -5.9499999999999990E-002     3.8632636044193258E-013
  -5.8399999999999994E-002     1.9868212977613986E-012
  -5.7299999999999990E-002     2.4283370453348496E-012
  -5.6199999999999986E-002     1.3521422479942369E-012
  -5.5099999999999996E-002    -1.6556843786610931E-012
  -5.3999999999999992E-002    -5.7397055858166013E-012
  -5.2899999999999989E-002    -5.2981898382431503E-012
  -5.1799999999999985E-002     0.0000000000000000
  -5.0699999999999995E-002     7.9472851910455944E-012
  -4.9599999999999991E-002     1.0154863928912850E-011
  -4.8499999999999988E-002     7.0642532622178233E-012
  -4.7399999999999998E-002    -1.0154863928912850E-011
  -4.6299999999999994E-002    -2.1192759352972601E-011
  -4.5199999999999990E-002    -1.0596379676486301E-011
  -4.4099999999999986E-002     7.9472851910455944E-012
  -4.2999999999999997E-002     2.4724887068283685E-011
  -4.1899999999999993E-002     3.1568383324076521E-011
  -4.0799999999999989E-002     8.8303166861924964E-012
  -3.9699999999999985E-002    -2.2958822343266405E-011
  -3.8599999999999995E-002    -6.0046155547777147E-011
  -3.7499999999999992E-002    -6.5344341049211607E-011
  -3.6399999999999988E-002    -2.1551491494187225E-011
  -3.5299999999999984E-002     7.0642533489539971E-011
  -3.4199999999999994E-002     1.5894570382091189E-010
  -3.3099999999999991E-002     1.6247782286260559E-010
  -3.1999999999999987E-002     3.7087329735063790E-011
  -3.0899999999999997E-002    -1.8543665214476590E-010
  -2.9799999999999993E-002    -3.8853392725357594E-010
  -2.8699999999999989E-002    -3.6734115749226248E-010
  -2.7599999999999986E-002    -2.1192759352972601E-011
  -2.6499999999999996E-002     5.6867238695801348E-010
  -2.5399999999999992E-002     8.8126561603729670E-010
  -2.4299999999999988E-002     4.2385520093723983E-010
  -2.3199999999999985E-002    -6.7816829929512323E-010
  -2.2099999999999995E-002    -1.5258787566807541E-009
  -2.0999999999999991E-002    -9.7199714943485560E-010
  -1.9899999999999987E-002     1.0455094567873857E-009
  -1.8799999999999983E-002     2.9104723076045502E-009
  -1.7699999999999994E-002     2.3170749763323784E-009
  -1.6599999999999990E-002    -1.7166135179991215E-009
  -1.5499999999999986E-002    -6.2871854389356940E-009
  -1.4399999999999996E-002    -6.3154423912692437E-009
  -1.3299999999999992E-002     1.1020234724767874E-009
  -1.2199999999999989E-002     1.1585375325751102E-008
  -1.1099999999999985E-002     1.5202273218051232E-008
  -9.9999999999999950E-003     4.4646082386634589E-009
  -8.8999999999999913E-003    -1.6106497469081660E-008
  -7.7999999999999875E-003    -2.9048209171378403E-008
  -6.6999999999999837E-003    -1.7801918161808317E-008
  -5.5999999999999939E-003     1.5626127947143686E-008
  -4.4999999999999901E-003     4.6468656478282355E-008
  -3.3999999999999864E-003     4.1566067920939531E-008
  -2.2999999999999826E-003    -8.3640756542990857E-009
  -1.1999999999999927E-003    -6.8918858175948117E-008
  -9.9999999999988987E-005    -8.0666708868193382E-008
   1.0000000000000148E-003    -1.1246291009570086E-008
   2.1000000000000185E-003     9.6412925643107883E-008
   3.2000000000000084E-003     1.4998822450706939E-007
   4.3000000000000121E-003     6.7364716471729480E-008
   5.4000000000000159E-003    -1.2495250700794713E-007
   6.5000000000000058E-003    -2.6793298957272782E-007
   7.6000000000000234E-003    -1.8006781488111301E-007
   8.7000000000000133E-003     1.2433085316843062E-007
   9.8000000000000032E-003     4.0622282426738821E-007
   1.0900000000000021E-002     3.9667193618697638E-007
   1.2000000000000011E-002    -1.4919702806537316E-008
   1.3100000000000001E-002    -6.1012542573735118E-007
   1.4200000000000018E-002    -7.5457529646882904E-007
   1.5300000000000008E-002    -1.8491388686925347E-007
   1.6400000000000026E-002     7.5954852718496113E-007
   1.7500000000000016E-002     1.2541593150672270E-006
   1.8600000000000005E-002     6.6731763581628911E-007
   1.9700000000000023E-002    -7.7220767025210080E-007
   2.0800000000000013E-002    -1.7957896716325195E-006
   2.1900000000000003E-002    -1.2442128536349628E-006
   2.3000000000000020E-002     4.9551499614608474E-007
   2.4100000000000010E-002     2.1158850813662866E-006
   2.5200000000000000E-002     1.8880206198446103E-006
   2.6300000000000018E-002     1.4467590681022102E-008
   2.7400000000000008E-002    -2.3365159904642496E-006
   2.8500000000000025E-002    -2.7850112473970512E-006
   2.9600000000000015E-002    -5.4976845831333776E-007
   3.0700000000000005E-002     2.0688655695266789E-006
   3.1800000000000023E-002     2.5462959456490353E-006
   3.2900000000000013E-002     1.2586804132297402E-006
   3.4000000000000002E-002     2.3148145089635364E-007
   3.5100000000000020E-002    -6.9444433847820619E-007
   3.6200000000000010E-002    -7.5231469054415356E-007
   3.7300000000000028E-002    -1.6203701989070396E-006
   3.8400000000000017E-002    -3.2986106361931888E-006
   3.9500000000000007E-002    -3.4722216923910310E-007
   4.0600000000000025E-002     3.7615736800944433E-006
   4.1700000000000015E-002     5.6712956393312197E-006
   4.2800000000000005E-002     2.3148145089635364E-007
   4.3900000000000022E-002    -1.2152776434959378E-005
   4.5000000000000012E-002    -1.3773146747553255E-005
   4.6100000000000002E-002    -2.3148145089635364E-007
   4.7200000000000020E-002     2.0833331291214563E-005
   4.8300000000000010E-002     1.8981478206114843E-005
   4.9400000000000027E-002     1.0185183782596141E-005
   5.0500000000000017E-002    -1.1574072686926229E-006
   5.1600000000000007E-002    -1.4814812857366633E-005
   5.2700000000000025E-002    -2.7314810722600669E-005
   5.3800000000000014E-002    -1.7592590666026808E-005
   5.4900000000000004E-002    -9.2592581495409831E-006
   5.6000000000000022E-002     2.4074070097412914E-005
   5.7100000000000012E-002     3.7037032143416582E-006
   5.8200000000000002E-002    -1.8518516071708291E-006
   5.9300000000000019E-002     2.7777774448622949E-005
   6.0400000000000009E-002     3.2407402613898739E-005
   6.1500000000000027E-002    -1.9444441932137124E-005
   6.2600000000000017E-002    -3.3333330065943301E-005
   6.3700000000000007E-002    -1.2962961591256317E-005
   6.4800000000000024E-002     3.5185181332053617E-005
   6.5900000000000014E-002     4.2592586396494880E-005
   6.7000000000000004E-002    -1.4814812857366633E-005
   6.8100000000000022E-002    -4.9999995098914951E-005
   6.9200000000000012E-002    -9.2592581495409831E-006
   7.0300000000000029E-002    -2.4074070097412914E-005
   7.1400000000000019E-002    -5.3703697631135583E-005
   7.2500000000000009E-002    -3.7037032143416582E-006
   7.3600000000000027E-002     1.4814813039265573E-004
   7.4700000000000016E-002     1.2592591519933194E-004
   7.5800000000000006E-002     3.3333330065943301E-005
   7.6900000000000024E-002    -9.6296280389651656E-005
   7.8000000000000014E-002    -2.4814810603857040E-004
   7.9100000000000004E-002    -5.5555548897245899E-005
   8.0200000000000021E-002     8.5185172792989761E-005
   8.1300000000000011E-002    -3.3333330065943301E-005
   8.2400000000000029E-002    -1.0370369273005053E-004
   8.3500000000000019E-002    -7.7777767728548497E-005
   8.4600000000000009E-002     1.9999998039565980E-004
   8.5700000000000026E-002     5.5555551080033183E-004
   8.6800000000000016E-002     9.2592577857431024E-005
   8.7900000000000006E-002    -3.5925922566093504E-004
   8.9000000000000024E-002    -7.6296285260468721E-004
   9.0100000000000013E-002    -3.3333330065943301E-005
   9.1200000000000003E-002     8.1851839786395431E-004
   9.2300000000000021E-002     8.9259247761219740E-004
   9.3400000000000011E-002    -4.2592586396494880E-005
   9.4500000000000028E-002    -8.3888875087723136E-004
   9.5600000000000018E-002    -9.3703693710267544E-004
   9.6700000000000008E-002    -4.7870364505797625E-004
   9.7800000000000026E-002     7.6805544085800648E-004
   9.8900000000000016E-002     1.2282405514270067E-003
  0.10000000000000001          1.1388887651264668E-004
  0.10110000000000002         -1.0351850651204586E-003
  0.10220000000000001         -8.2592578837648034E-004
  0.10330000000000003          1.5925924526527524E-004
  0.10440000000000002          7.8518508234992623E-004
  0.10550000000000001          7.6296285260468721E-004
  0.10660000000000003          3.4074069117195904E-004
  0.10770000000000002         -4.0740735130384564E-004
  0.10880000000000001         -1.0518516646698117E-003
  0.10990000000000003         -5.3333328105509281E-004
  0.11100000000000002          2.2222219558898360E-004
  0.11210000000000001          6.6666660131886601E-004
  0.11320000000000002          5.6296290131285787E-004
  0.11430000000000001          1.6296294052153826E-004
  0.11540000000000003         -2.8148145065642893E-004
  0.11650000000000002         -4.4444437662605196E-005
  0.11760000000000001         -2.9629625714733265E-005
  0.11870000000000003         -3.2592588104307652E-004
  0.11980000000000002         -7.7037024311721325E-004
  0.12090000000000001         -6.2222214182838798E-004
  0.12200000000000003          1.0370369273005053E-004
  0.12310000000000001          9.6296286210417747E-004
  0.12420000000000003          8.5925916209816933E-004
  0.12530000000000002          3.8518512155860662E-004
  0.12640000000000001         -4.2962958104908466E-004
  0.12750000000000003         -7.9999992158263922E-004
  0.12860000000000002         -6.2222214182838798E-004
  0.12970000000000001          5.6296290131285787E-004
  0.13080000000000003          6.2222214182838798E-004
  0.13190000000000002          1.7777775065042078E-004
  0.13300000000000001         -8.1481470260769129E-004
  0.13410000000000000         -5.4074067156761885E-004
  0.13520000000000004          8.5925916209816933E-004
  0.13630000000000003          1.5555553836748004E-003
  0.13740000000000002          7.9629616811871529E-004
  0.13850000000000001         -1.7370368586853147E-003
  0.13960000000000000         -2.3574070073664188E-003
  0.14070000000000005         -5.4444436682388186E-004
  0.14180000000000004          1.7629627836868167E-003
  0.14290000000000003          1.7888887086883187E-003
  0.14400000000000002          6.5185176208615303E-004
  0.14510000000000001         -1.4444442931562662E-003
  0.14620000000000000         -1.2666664551943541E-003
  0.14730000000000004          1.0370369273005053E-004
  0.14840000000000003          1.3703701552003622E-003
  0.14950000000000002          1.1185184121131897E-003
  0.15060000000000001         -4.5185178169049323E-004
  0.15170000000000000         -2.5037033483386040E-003
  0.15280000000000005         -1.6740738647058606E-003
  0.15390000000000004          8.4444432286545634E-004
  0.15500000000000003          2.5777774862945080E-003
  0.15610000000000002          1.4666664646938443E-003
  0.15720000000000001         -1.0518516646698117E-003
  0.15830000000000000         -2.2370368242263794E-003
  0.15940000000000004         -1.4962961431592703E-003
  0.16050000000000003          1.8518515862524509E-003
  0.16160000000000002          3.0666661914438009E-003
  0.16270000000000001          6.5185176208615303E-004
  0.16380000000000000         -2.4444442242383957E-003
  0.16490000000000005         -3.2148144673556089E-003
  0.16600000000000004         -4.7407401143573225E-004
  0.16710000000000003          3.2444440294057131E-003
  0.16820000000000002          4.1777770966291428E-003
  0.16930000000000001          1.0518516646698117E-003
  0.17040000000000000         -3.3259254414588213E-003
  0.17150000000000004         -4.6518510207533836E-003
  0.17260000000000003         -1.3407405931502581E-003
  0.17370000000000002          2.8962958604097366E-003
  0.17480000000000001          3.8296291604638100E-003
  0.17590000000000000          8.0740731209516525E-004
  0.17700000000000005         -2.7851848863065243E-003
  0.17810000000000004         -3.1037032604217529E-003
  0.17920000000000003          4.1481477092020214E-004
  0.18030000000000002          3.8962957914918661E-003
  0.18140000000000001          3.1555551104247570E-003
  0.18250000000000000         -1.5259257052093744E-003
  0.18360000000000004         -5.4666660726070404E-003
  0.18470000000000003         -4.3962956406176090E-003
  0.18580000000000002          8.8518508709967136E-004
  0.18690000000000001          5.4481476545333862E-003
  0.18800000000000000          4.4592586345970631E-003
  0.18910000000000005         -9.1481470735743642E-004
  0.19020000000000004         -5.1592583768069744E-003
  0.19130000000000003         -3.5296292044222355E-003
  0.19240000000000002          2.3592589423060417E-003
  0.19350000000000001          6.4037027768790722E-003
  0.19460000000000005          4.0814811363816261E-003
  0.19570000000000004         -2.5666663423180580E-003
  0.19680000000000003         -7.2222212329506874E-003
  0.19790000000000002         -5.0814808346331120E-003
  0.19900000000000001          1.6518515767529607E-003
  0.20010000000000000          6.4925919286906719E-003
  0.20120000000000005          4.6814810484647751E-003
  0.20230000000000004         -1.5740739181637764E-003
  0.20340000000000003         -5.8962954208254814E-003
  0.20450000000000002         -3.8407403044402599E-003
  0.20560000000000000          2.2814811673015356E-003
  0.20670000000000005          5.9925918467342854E-003
  0.20780000000000004          3.3925920724868774E-003
  0.20890000000000003         -2.7370366733521223E-003
