 -0.12000000000000000          0.0000000000000000
 -0.11889999999999999          0.0000000000000000
 -0.11780000000000000          0.0000000000000000
 -0.11670000000000000          0.0000000000000000
 -0.11559999999999999          0.0000000000000000
 -0.11449999999999999          0.0000000000000000
 -0.11340000000000000          0.0000000000000000
 -0.11230000000000000          0.0000000000000000
 -0.11119999999999999          0.0000000000000000
 -0.11009999999999999          1.5973725288899042E-038
 -0.10900000000000000          7.5247950308878825E-026
 -0.10790000000000000          4.8817404802839136E-025
 -0.10679999999999999         -4.9098944329872540E-025
 -0.10569999999999999         -1.3376990471145257E-023
 -0.10460000000000000         -3.6807479909323130E-023
 -0.10349999999999999          7.2478406891893044E-023
 -0.10239999999999999          6.4707990660203074E-022
 -0.10130000000000000          1.0840047436975340E-021
 -0.10020000000000000         -2.9471382976736210E-021
  -9.9099999999999994E-002    -1.7106376179752339E-020
  -9.7999999999999990E-002    -2.4543427820229888E-020
  -9.6899999999999986E-002     4.9792518251212979E-020
  -9.5799999999999996E-002     2.7946335769188349E-019
  -9.4699999999999993E-002     4.2573401560217196E-019
  -9.3599999999999989E-002    -4.1023753645896466E-019
  -9.2499999999999999E-002    -3.0699269878961081E-018
  -9.1399999999999995E-002    -5.3844188736676781E-018
  -9.0299999999999991E-002     7.8100956211251096E-019
  -8.9200000000000002E-002     2.3850404658565975E-017
  -8.8099999999999984E-002     5.0403251391723123E-017
  -8.6999999999999994E-002     2.2417805592578082E-017
  -8.5899999999999990E-002    -1.3081676099069098E-016
  -8.4799999999999986E-002    -3.5689812641890896E-016
  -8.3699999999999997E-002    -3.2450083672201916E-016
  -8.2599999999999993E-002     4.5311307535373629E-016
  -8.1499999999999989E-002     1.9264015262260212E-015
  -8.0399999999999999E-002     2.5861569711495052E-015
  -7.9299999999999995E-002    -3.0309763763491263E-016
  -7.8199999999999992E-002    -7.7808615941364526E-015
  -7.7100000000000002E-002    -1.4527971992189597E-014
  -7.5999999999999984E-002    -7.9915627338275803E-015
  -7.4899999999999994E-002     2.1540910128218507E-014
  -7.3799999999999991E-002     6.1022442253326755E-014
  -7.2699999999999987E-002     6.3639665640114755E-014
  -7.1599999999999997E-002    -2.4163544361498505E-014
  -7.0499999999999993E-002    -1.9105943498304325E-013
  -6.9399999999999989E-002    -2.9785858024830300E-013
  -6.8300000000000000E-002    -1.2555217011436858E-013
  -6.7199999999999996E-002     4.0985425231629519E-013
  -6.6099999999999992E-002     9.9682111523434449E-013
  -6.5000000000000002E-002     9.3207733198294652E-013
  -6.3899999999999985E-002    -3.5299091124074072E-013
  -6.2799999999999995E-002    -2.4368547544421877E-012
  -6.1699999999999991E-002    -3.5275816556012656E-012
  -6.0599999999999994E-002    -1.4622053567940252E-012
  -5.9499999999999990E-002     3.9901146622891159E-012
  -5.8399999999999994E-002     9.2905145382395233E-012
  -5.7299999999999990E-002     8.3549573509626147E-012
  -5.6199999999999986E-002    -2.3072780665226164E-012
  -5.5099999999999996E-002    -1.7766208643132188E-011
  -5.3999999999999992E-002    -2.4484730215542568E-011
  -5.2899999999999989E-002    -9.7999646592142928E-012
  -5.1799999999999985E-002     2.3505988822060086E-011
  -5.0699999999999995E-002     5.0936952572517815E-011
  -4.9599999999999991E-002     4.0471771767239452E-011
  -4.8499999999999988E-002    -1.6678040892786663E-011
  -4.7399999999999998E-002    -8.3745024803679059E-011
  -4.6299999999999994E-002    -9.4267781081112407E-011
  -4.5199999999999990E-002    -9.4317574583658558E-012
  -4.4099999999999986E-002     1.2471362831334220E-010
  -4.2999999999999997E-002     1.8411971947072298E-010
  -4.1899999999999993E-002     6.3976102193639098E-011
  -4.0799999999999989E-002    -1.9441805110265444E-010
  -3.9699999999999985E-002    -3.7242989248117338E-010
  -3.8599999999999995E-002    -2.2246243736029514E-010
  -3.7499999999999992E-002     2.7476249053750922E-010
  -3.6399999999999988E-002     7.6859285602632686E-010
  -3.5299999999999984E-002     7.2231426395663525E-010
  -3.4199999999999994E-002    -1.1465216276384176E-010
  -3.3099999999999991E-002    -1.3050490688115600E-009
  -3.1999999999999987E-002    -1.8405152957255420E-009
  -3.0899999999999997E-002    -8.8699153577540393E-010
  -2.9799999999999993E-002     1.3239203067173890E-009
  -2.8699999999999989E-002     3.2823750384379834E-009
  -2.7599999999999986E-002     3.1359821406336830E-009
  -2.6499999999999996E-002     2.8768826210127597E-010
  -2.5399999999999992E-002    -3.6456742069647635E-009
  -2.4299999999999988E-002    -5.6315587748654135E-009
  -2.3199999999999985E-002    -3.5600686842935103E-009
  -2.2099999999999995E-002     1.6327265095488563E-009
  -2.0999999999999991E-002     6.1104179494010425E-009
  -1.9899999999999987E-002     6.0035190152515777E-009
  -1.8799999999999983E-002     9.6617180922421562E-010
  -1.7699999999999994E-002    -4.8030783794674791E-009
  -1.6599999999999990E-002    -5.6863123099048301E-009
  -1.5499999999999986E-002     8.0579827532840778E-011
  -1.4399999999999996E-002     7.6021953177016306E-009
  -1.3299999999999992E-002     8.4238109820937094E-009
  -1.2199999999999989E-002    -1.8493534481585188E-009
  -1.1099999999999985E-002    -1.7567042931432046E-008
  -9.9999999999999950E-003    -2.4965071787617578E-008
  -8.8999999999999913E-003    -1.2503152291284976E-008
  -7.7999999999999875E-003     1.7613409397656576E-008
  -6.6999999999999837E-003     4.6881400095344255E-008
  -5.5999999999999939E-003     5.1469569939396280E-008
  -4.4999999999999901E-003     2.0398099209722860E-008
  -3.3999999999999864E-003    -3.2869976962507184E-008
  -2.2999999999999826E-003    -7.6149582639574934E-008
  -1.1999999999999927E-003    -7.9611297110201345E-008
  -9.9999999999988987E-005    -3.7452856815881430E-008
   1.0000000000000148E-003     2.6673395936436676E-008
   2.1000000000000185E-003     7.5711085401059936E-008
   3.2000000000000084E-003     8.5095614110742397E-008
   4.3000000000000121E-003     5.8417764847712213E-008
   5.4000000000000159E-003     2.0457655125472886E-008
   6.5000000000000058E-003    -6.3641749648127685E-009
   7.6000000000000234E-003    -2.1723641552294140E-008
   8.7000000000000133E-003    -4.5135010395829716E-008
   9.8000000000000032E-003    -9.1695106618770951E-008
   1.0900000000000021E-002    -1.4593962305297329E-007
   1.2000000000000011E-002    -1.5916803874914118E-007
   1.3100000000000001E-002    -7.9882823911225307E-008
   1.4200000000000018E-002     9.9481553661485083E-008
   1.5300000000000008E-002     3.1394816346620559E-007
   1.6400000000000026E-002     4.4376440655468307E-007
   1.7500000000000016E-002     3.7814868392157420E-007
   1.8600000000000005E-002     9.1081311381860555E-008
   1.9700000000000023E-002    -3.2012246720119615E-007
   2.0800000000000013E-002    -6.6648840402197327E-007
   2.1900000000000003E-002    -7.6100087653683762E-007
   2.3000000000000020E-002    -5.2388804760988397E-007
   2.4100000000000010E-002    -3.5306850776267949E-008
   2.5200000000000000E-002     5.0120166861241380E-007
   2.6300000000000018E-002     8.6548982380922261E-007
   2.7400000000000008E-002     9.3134383405411891E-007
   2.8500000000000025E-002     7.1069013074514527E-007
   2.9600000000000015E-002     3.0903854053567631E-007
   3.0700000000000005E-002    -1.6328982610512413E-007
   3.1800000000000023E-002    -6.4565722368578049E-007
   3.2900000000000013E-002    -1.1001471875716052E-006
   3.4000000000000002E-002    -1.4332858881971196E-006
   3.5100000000000020E-002    -1.4567852986146276E-006
   3.6200000000000010E-002    -9.6190467502297171E-007
   3.7300000000000028E-002     1.1050585868604833E-007
   3.8400000000000017E-002     1.5228733900586675E-006
   3.9500000000000007E-002     2.7547432637221172E-006
   4.0600000000000025E-002     3.2198702228924437E-006
   4.1700000000000015E-002     2.5781671411094107E-006
   4.2800000000000005E-002     9.4500967406903763E-007
   4.3900000000000022E-002    -1.1471174730106965E-006
   4.5000000000000012E-002    -3.0139178761602850E-006
   4.6100000000000002E-002    -4.1348198465129894E-006
   4.7200000000000020E-002    -4.3177683437532575E-006
   4.8300000000000010E-002    -3.6393930713526975E-006
   4.9400000000000027E-002    -2.2623951281272331E-006
   5.0500000000000017E-002    -3.1340749728744928E-007
   5.1600000000000007E-002     2.0728341496580010E-006
   5.2700000000000025E-002     4.6048553485888988E-006
   5.3800000000000014E-002     6.7560781644714208E-006
   5.4900000000000004E-002     7.8892589954191496E-006
   5.6000000000000022E-002     7.5477919381225684E-006
   5.7100000000000012E-002     5.7185752666553050E-006
   5.8200000000000002E-002     2.8538829610623673E-006
   5.9300000000000019E-002    -4.1083467294803605E-007
   6.0400000000000009E-002    -3.6935271054969079E-006
   6.1500000000000027E-002    -7.1839799602453603E-006
   6.2600000000000017E-002    -1.1631203051365102E-005
   6.3700000000000007E-002    -1.7996022506849881E-005
   6.4800000000000024E-002    -2.6988736863132407E-005
   6.5900000000000014E-002    -3.8800044421806892E-005
   6.7000000000000004E-002    -5.3218678658598426E-005
   6.8100000000000022E-002    -7.0072805101522182E-005
   6.9200000000000012E-002    -8.9698325609794519E-005
   7.0300000000000029E-002    -1.1309701949358790E-004
   7.1400000000000019E-002    -1.4165892207530410E-004
   7.2500000000000009E-002    -1.7666757048574603E-004
   7.3600000000000027E-002    -2.1903404558544666E-004
   7.4700000000000016E-002    -2.6960842660630162E-004
   7.5800000000000006E-002    -3.3000466646628928E-004
   7.6900000000000024E-002    -4.0341861313211811E-004
   7.8000000000000014E-002    -4.9479078734297125E-004
   7.9100000000000004E-002    -6.1004259623591501E-004
   8.0200000000000021E-002    -7.5478700455283547E-004
   8.1300000000000011E-002    -9.3339860904968449E-004
   8.2400000000000029E-002    -1.1492053745315292E-003
   8.3500000000000019E-002    -1.4058537781239549E-003
   8.4600000000000009E-002    -1.7090897308663742E-003
   8.5700000000000026E-002    -2.0678865257652080E-003
   8.6800000000000016E-002    -2.4943097960205664E-003
   8.7900000000000006E-002    -3.0024065636100536E-003
   8.9000000000000024E-002    -3.6070586647840948E-003
   9.0100000000000013E-002    -4.3237078934911036E-003
   9.1200000000000003E-002    -5.1691564731303624E-003
   9.2300000000000021E-002    -6.1628236435358232E-003
   9.3400000000000011E-002    -7.3275552131240942E-003
   9.4500000000000028E-002    -8.6895078420645387E-003
   9.5600000000000018E-002    -1.0277321562171737E-002
   9.6700000000000008E-002    -1.2121362611652312E-002
   9.7800000000000026E-002    -1.4253724366427519E-002
   9.8900000000000016E-002    -1.6709033399821563E-002
  0.10000000000000001         -1.9525624811650773E-002
  0.10110000000000002         -2.2746281698347831E-002
  0.10220000000000001         -2.6418069377543516E-002
  0.10330000000000003         -3.0591428279879002E-002
  0.10440000000000002         -3.5318955779078280E-002
  0.10550000000000001         -4.0654554963114951E-002
  0.10660000000000003         -4.6653334051374160E-002
  0.10770000000000002         -5.3371977061037308E-002
  0.10880000000000001         -6.0868952423338771E-002
  0.10990000000000003         -6.9203719496732291E-002
  0.11100000000000002         -7.8434683382517176E-002
  0.11210000000000001         -8.8616758584983052E-002
  0.11320000000000002         -9.9799312651165123E-002
  0.11430000000000001        -0.11202529072762409
  0.11540000000000003        -0.12533156573773410
  0.11650000000000002        -0.13974867761136200
  0.11760000000000001        -0.15529917180539404
  0.11870000000000003        -0.17199416458608083
  0.11980000000000002        -0.18982911109925829
  0.12090000000000001        -0.20878025889398338
  0.12200000000000003        -0.22880288958551340
  0.12310000000000001        -0.24983097612859836
  0.12420000000000003        -0.27177724242212592
  0.12530000000000002        -0.29453209042551537
  0.12640000000000001        -0.31796017289164291
  0.12750000000000003        -0.34189748764040906
  0.12860000000000002        -0.36614921689036545
  0.12970000000000001        -0.39048895239833270
  0.13080000000000003        -0.41465821862224239
  0.13190000000000002        -0.43836724758151890
  0.13300000000000001        -0.46129858493808845
  0.13410000000000000        -0.48310890793804478
  0.13520000000000004        -0.50343048572544613
  0.13630000000000003        -0.52187228202824343
  0.13740000000000002        -0.53802210092549241
  0.13850000000000001        -0.55145019292836261
  0.13960000000000000        -0.56171709299092498
  0.14070000000000005        -0.56838226318364449
  0.14180000000000004        -0.57100963592534448
  0.14290000000000003        -0.56917279958730160
  0.14400000000000002        -0.56246256828313290
  0.14510000000000001        -0.55049532651906385
  0.14620000000000000        -0.53292244672780309
  0.14730000000000004        -0.50944203138356337
  0.14840000000000003        -0.47980731725697451
  0.14950000000000002        -0.44383254647259390
  0.15060000000000001        -0.40139997005466782
  0.15170000000000000        -0.35246890783313700
  0.15280000000000005        -0.29708296060565470
  0.15390000000000004        -0.23537474870684608
  0.15500000000000003        -0.16757099330427561
  0.15610000000000002         -9.3997932970540765E-002
  0.15720000000000001         -1.5079219825576157E-002
  0.15830000000000000          6.8664573132988543E-002
  0.15940000000000004         0.15661506354809238
  0.16050000000000003         0.24805867671967780
  0.16160000000000002         0.34219279885294107
  0.16270000000000001         0.43813800811770492
  0.16380000000000000         0.53494870662692995
  0.16490000000000005         0.63162159919743444
  0.16600000000000004         0.72710728645330269
  0.16710000000000003         0.82032257318503143
  0.16820000000000002         0.91016685962684307
  0.16930000000000001         0.99554413557060750
  0.17040000000000000          1.0753811597824989
  0.17150000000000004          1.1486413478852286
  0.17260000000000003          1.2143378257752502
  0.17370000000000002          1.2715502977372315
  0.17480000000000001          1.3194468021393975
  0.17590000000000000          1.3573040962220437
  0.17700000000000005          1.3845212459565444
  0.17810000000000004          1.4006268978120158
  0.17920000000000003          1.4052838087083188
  0.18030000000000002          1.3982940912247990
  0.18140000000000001          1.3796070814133969
  0.18250000000000000          1.3493276834489181
  0.18360000000000004          1.3077200651170062
  0.18470000000000003          1.2552027702332744
  0.18580000000000002          1.1923396587372981
  0.18690000000000001          1.1198256015778687
  0.18800000000000000          1.0384756326676448
  0.18910000000000005         0.94921797513971384
  0.19020000000000004         0.85308015346535881
  0.19130000000000003         0.75117266178139008
  0.19240000000000002         0.64466917514807998
  0.19350000000000001         0.53478449583059584
  0.19460000000000005         0.42275711894040330
  0.19570000000000004         0.30982661247257376
  0.19680000000000003         0.19721215963366570
  0.19790000000000002          8.6105719208736206E-002
  0.19900000000000001         -2.2340372204771940E-002
  0.20010000000000000        -0.12703774869442119
  0.20120000000000005        -0.22698663175107148
  0.20230000000000004        -0.32129332423212165
  0.20340000000000003        -0.40917599201205279
  0.20450000000000002        -0.48995998501781346
  0.20560000000000000        -0.56307500600819260
  0.20670000000000005        -0.62806701660161368
  0.20780000000000004        -0.68461155891424175
  0.20890000000000003        -0.73251694440847903
