 -0.12000000000000000          0.0000000000000000
 -0.11889999999999999          0.0000000000000000
 -0.11780000000000000          0.0000000000000000
 -0.11670000000000000          0.0000000000000000
 -0.11559999999999999          0.0000000000000000
 -0.11449999999999999          0.0000000000000000
 -0.11340000000000000          0.0000000000000000
 -0.11230000000000000          0.0000000000000000
 -0.11119999999999999          0.0000000000000000
 -0.11009999999999999          0.0000000000000000
 -0.10900000000000000         -1.2739962097020651E-015
 -0.10790000000000000         -6.7209832432812717E-015
 -0.10679999999999999          1.7897677426475384E-014
 -0.10569999999999999          2.8173234687019211E-013
 -0.10460000000000000          1.1270913672853378E-012
 -0.10349999999999999          1.5984856667483616E-012
 -0.10239999999999999         -4.2414665529788564E-012
 -0.10130000000000000         -2.7640991925870217E-011
 -0.10020000000000000         -6.4331054372424035E-011
  -9.9099999999999994E-002    -4.0259705291756376E-011
  -9.7999999999999990E-002     2.2180993153320117E-010
  -9.6899999999999986E-002     8.4290674440268276E-010
  -9.5799999999999996E-002     1.3762015971252595E-009
  -9.4699999999999993E-002     2.3869392573594439E-010
  -9.3599999999999989E-002    -4.7275512393696317E-009
  -9.2499999999999999E-002    -1.3060174275381087E-008
  -9.1399999999999995E-002    -1.6488961307459249E-008
  -9.0299999999999991E-002     2.3642561242098736E-009
  -8.9200000000000002E-002     5.7333583214358441E-008
  -8.8099999999999984E-002     1.2835874940719805E-007
  -8.6999999999999994E-002     1.3317144009761250E-007
  -8.5899999999999990E-002    -5.0371571802543258E-008
  -8.4799999999999986E-002    -4.6644740336887480E-007
  -8.3699999999999997E-002    -9.0036905930901412E-007
  -8.2599999999999993E-002    -8.0314839578932151E-007
  -8.1499999999999989E-002     4.3470981836435385E-007
  -8.0399999999999999E-002     2.7818098260468105E-006
  -7.9299999999999995E-002     4.8235792746709194E-006
  -7.8199999999999992E-002     3.8552739169972483E-006
  -7.7100000000000002E-002    -2.3980887817742769E-006
  -7.5999999999999984E-002    -1.2777647498296574E-005
  -7.4899999999999994E-002    -2.0568500985973515E-005
  -7.3799999999999991E-002    -1.5420111594721675E-005
  -7.2699999999999987E-002     9.2223881438258104E-006
  -7.1599999999999997E-002     4.6395405661314726E-005
  -7.0499999999999993E-002     7.1707363531459123E-005
  -6.9399999999999989E-002     5.3373445553006604E-005
  -6.8300000000000000E-002    -2.3859149223426357E-005
  -6.7199999999999996E-002    -1.3431000115815550E-004
  -6.6099999999999992E-002    -2.0832987502217293E-004
  -6.5000000000000002E-002    -1.6515470633748919E-004
  -6.3899999999999985E-002     2.7952193704550155E-005
  -6.2799999999999995E-002     3.0650821281597018E-004
  -6.1699999999999991E-002     5.1250704564154148E-004
  -6.0599999999999994E-002     4.6806465252302587E-004
  -5.9499999999999990E-002     8.9437387941870838E-005
  -5.8399999999999994E-002    -5.2372261416167021E-004
  -5.7299999999999990E-002    -1.0856938315555453E-003
  -5.6199999999999986E-002    -1.2286852579563856E-003
  -5.5099999999999996E-002    -6.8170228041708469E-004
  -5.3999999999999992E-002     5.4125447059050202E-004
  -5.2899999999999989E-002     2.0225739572197199E-003
  -5.1799999999999985E-002     2.9786843806505203E-003
  -5.0699999999999995E-002     2.5333743542432785E-003
  -4.9599999999999991E-002     2.3090004106052220E-004
  -4.8499999999999988E-002    -3.3921527210623026E-003
  -4.7399999999999998E-002    -6.5796324051916599E-003
  -4.6299999999999994E-002    -6.9159101694822311E-003
  -4.5199999999999990E-002    -2.7509105857461691E-003
  -4.4099999999999986E-002     5.1503828726708889E-003
  -4.2999999999999997E-002     1.2971655465662479E-002
  -4.1899999999999993E-002     1.5275478363037109E-002
  -4.0799999999999989E-002     8.3234198391437531E-003
  -3.9699999999999985E-002    -6.5492787398397923E-003
  -3.8599999999999995E-002    -2.2118153050541878E-002
  -3.7499999999999992E-002    -2.8489673510193825E-002
  -3.6399999999999988E-002    -1.9109649583697319E-002
  -3.5299999999999984E-002     4.1466634720563889E-003
  -3.4199999999999994E-002     3.0574675649404526E-002
  -3.3099999999999991E-002     4.5839708298444748E-002
  -3.1999999999999987E-002     3.9794288575649261E-002
  -3.0899999999999997E-002     1.2079305946826935E-002
  -2.9799999999999993E-002    -2.7548266574740410E-002
  -2.8699999999999989E-002    -6.3359059393405914E-002
  -2.7599999999999986E-002    -7.9040989279747009E-002
  -2.6499999999999996E-002    -6.2237970530986786E-002
  -2.5399999999999992E-002    -9.0840533375740051E-003
  -2.4299999999999988E-002     6.9894872605800629E-002
  -2.3199999999999985E-002    0.14514586329460144
  -2.2099999999999995E-002    0.17235983908176422
  -2.0999999999999991E-002    0.11212239414453506
  -1.9899999999999987E-002    -3.9522964507341385E-002
  -1.8799999999999983E-002   -0.22868268191814423
  -1.7699999999999994E-002   -0.35312229394912720
  -1.6599999999999990E-002   -0.31211611628532410
  -1.5499999999999986E-002    -7.5243711471557617E-002
  -1.4399999999999996E-002    0.27447438240051270
  -1.3299999999999992E-002    0.56210666894912720
  -1.2199999999999989E-002    0.60824823379516602
  -1.1099999999999985E-002    0.33667793869972229
  -9.9999999999999950E-003   -0.16464555263519287
  -8.8999999999999913E-003   -0.67223238945007324
  -7.7999999999999875E-003   -0.93338453769683838
  -6.6999999999999837E-003   -0.79086893796920776
  -5.5999999999999939E-003   -0.25981402397155762
  -4.4999999999999901E-003    0.47484508156776428
  -3.3999999999999864E-003     1.1269562244415283
  -2.2999999999999826E-003     1.4080946445465088
  -1.1999999999999927E-003     1.1282390356063843
  -9.9999999999988987E-005    0.28279149532318115
   1.0000000000000148E-003   -0.89490628242492676
   2.1000000000000185E-003    -1.9559332132339478
   3.2000000000000084E-003    -2.3723132610321045
   4.3000000000000121E-003    -1.7759995460510254
   5.4000000000000159E-003   -0.20378325879573822
   6.5000000000000058E-003     1.8035207986831665
   7.6000000000000234E-003     3.3607168197631836
   8.7000000000000133E-003     3.6338708400726318
   9.8000000000000032E-003     2.2913420200347900
   1.0900000000000021E-002   -0.24143120646476746
   1.2000000000000011E-002    -2.8974900245666504
   1.3100000000000001E-002    -4.4368472099304199
   1.4200000000000018E-002    -4.0550255775451660
   1.5300000000000008E-002    -1.8307069540023804
   1.6400000000000026E-002     1.2246141433715820
   1.7500000000000016E-002     3.5740227699279785
   1.8600000000000005E-002     3.8707201480865479
   1.9700000000000023E-002     1.6789011955261230
   2.0800000000000013E-002    -2.1432244777679443
   2.1900000000000003E-002    -5.6390242576599121
   2.3000000000000020E-002    -6.5353603363037109
   2.4100000000000010E-002    -3.3291923999786377
   2.5200000000000000E-002     3.8129701614379883
   2.6300000000000018E-002     12.826431274414062
   2.7400000000000008E-002     20.400915145874023
   2.8500000000000025E-002     23.297573089599609
   2.9600000000000015E-002     19.759944915771484
   3.0700000000000005E-002     10.374659538269043
   3.1800000000000023E-002    -2.0108926296234131
   3.2900000000000013E-002    -13.278295516967773
   3.4000000000000002E-002    -19.525560379028320
   3.5100000000000020E-002    -18.484851837158203
   3.6200000000000010E-002    -10.367935180664062
   3.7300000000000028E-002     2.1605367660522461
   3.8400000000000017E-002     14.929798126220703
   3.9500000000000007E-002     23.889757156372070
   4.0600000000000025E-002     26.894496917724609
   4.1700000000000015E-002     24.914632797241211
   4.2800000000000005E-002     22.022060394287109
   4.3900000000000022E-002     23.909559249877930
   4.5000000000000012E-002     35.381175994873047
   4.6100000000000002E-002     57.851959228515625
   4.7200000000000020E-002     88.070503234863281
   4.8300000000000010E-002     118.86324310302734
   4.9400000000000027E-002     141.85179138183594
   5.0500000000000017E-002     151.17683410644531
   5.1600000000000007E-002     146.69090270996094
   5.2700000000000025E-002     135.12451171875000
   5.3800000000000014E-002     128.37600708007812
   5.4900000000000004E-002     139.22607421875000
   5.6000000000000022E-002     176.11883544921875
   5.7100000000000012E-002     239.22589111328125
   5.8200000000000002E-002     320.05508422851562
   5.9300000000000019E-002     405.20458984375000
   6.0400000000000009E-002     482.87786865234375
   6.1500000000000027E-002     548.98645019531250
   6.2600000000000017E-002     609.62469482421875
   6.3700000000000007E-002     678.49639892578125
   6.4800000000000024E-002     770.42694091796875
   6.5900000000000014E-002     894.48937988281250
   6.7000000000000004E-002     1050.8289794921875
   6.8100000000000022E-002     1232.7001953125000
   6.9200000000000012E-002     1432.2430419921875
   7.0300000000000029E-002     1647.3201904296875
   7.1400000000000019E-002     1884.7200927734375
   7.2500000000000009E-002     2158.9633789062500
   7.3600000000000027E-002     2487.3591308593750
   7.4700000000000016E-002     2884.5544433593750
   7.5800000000000006E-002     3359.7304687500000
   7.6900000000000024E-002     3918.1364746093750
   7.8000000000000014E-002     4565.3349609375000
   7.9100000000000004E-002     5311.6928710937500
   8.0200000000000021E-002     6175.4287109375000
   8.1300000000000011E-002     7180.5439453125000
   8.2400000000000029E-002     8353.1826171875000
   8.3500000000000019E-002     9718.1962890625000
   8.4600000000000009E-002     11300.204101562500
   8.5700000000000026E-002     13128.032226562500
   8.6800000000000016E-002     15238.125976562500
   8.7900000000000006E-002     17677.552734375000
   8.9000000000000024E-002     20503.136718750000
   9.0100000000000013E-002     23769.820312500000
   9.1200000000000003E-002     27524.531250000000
   9.2300000000000021E-002     31810.691406250000
   9.3400000000000011E-002     36665.535156250000
   9.4500000000000028E-002     42138.722656250000
   9.5600000000000018E-002     48294.375000000000
   9.6700000000000008E-002     55220.855468750000
   9.7800000000000026E-002     63009.058593750000
   9.8900000000000016E-002     71748.664062500000
  0.10000000000000001          81515.070312500000
  0.10110000000000002          92363.539062500000
  0.10220000000000001          104337.36718750000
  0.10330000000000003          117490.67187500000
  0.10440000000000002          131880.04687500000
  0.10550000000000001          147558.25000000000
  0.10660000000000003          164573.03125000000
  0.10770000000000002          182950.85937500000
  0.10880000000000001          202730.03125000000
  0.10990000000000003          223912.06250000000
  0.11100000000000002          246493.07812500000
  0.11210000000000001          270462.90625000000
  0.11320000000000002          295771.53125000000
  0.11430000000000001          322352.56250000000
  0.11540000000000003          350110.03125000000
  0.11650000000000002          378934.46875000000
  0.11760000000000001          408645.93750000000
  0.11870000000000003          439081.90625000000
  0.11980000000000002          470053.59375000000
  0.12090000000000001          501395.34375000000
  0.12200000000000003          532945.12500000000
  0.12310000000000001          564469.93750000000
  0.12420000000000003          595625.62500000000
  0.12530000000000002          626091.31250000000
  0.12640000000000001          655529.75000000000
  0.12750000000000003          683622.56250000000
  0.12860000000000002          710050.56250000000
  0.12970000000000001          734550.81250000000
  0.13080000000000003          756827.43750000000
  0.13190000000000002          776584.37500000000
  0.13300000000000001          793477.31250000000
  0.13410000000000000          807157.25000000000
  0.13520000000000004          817248.18750000000
  0.13630000000000003          823392.56250000000
  0.13740000000000002          825419.31250000000
  0.13850000000000001          823160.50000000000
  0.13960000000000000          816477.31250000000
  0.14070000000000005          805265.56250000000
  0.14180000000000004          789443.37500000000
  0.14290000000000003          768855.25000000000
  0.14400000000000002          743411.93750000000
  0.14510000000000001          713034.56250000000
  0.14620000000000000          677838.87500000000
  0.14730000000000004          638025.75000000000
  0.14840000000000003          593784.62500000000
  0.14950000000000002          545358.06250000000
  0.15060000000000001          493010.34375000000
  0.15170000000000000          436954.68750000000
  0.15280000000000005          377509.00000000000
  0.15390000000000004          315048.43750000000
  0.15500000000000003          249993.98437500000
  0.15610000000000002          182779.03125000000
  0.15720000000000001          113845.50781250000
  0.15830000000000000          43667.308593750000
  0.15940000000000004         -27240.107421875000
  0.16050000000000003         -98311.109375000000
  0.16160000000000002         -169016.96875000000
  0.16270000000000001         -238825.34375000000
  0.16380000000000000         -307264.50000000000
  0.16490000000000005         -373853.21875000000
  0.16600000000000004         -438100.81250000000
  0.16710000000000003         -499515.56250000000
  0.16820000000000002         -557633.68750000000
  0.16930000000000001         -612076.68750000000
  0.17040000000000000         -662480.62500000000
  0.17150000000000004         -708471.81250000000
  0.17260000000000003         -749715.18750000000
  0.17370000000000002         -785886.68750000000
  0.17480000000000001         -816804.87500000000
  0.17590000000000000         -842342.37500000000
  0.17700000000000005         -862489.56250000000
  0.17810000000000004         -877173.06250000000
  0.17920000000000003         -886365.81250000000
  0.18030000000000002         -890049.25000000000
  0.18140000000000001         -888287.81250000000
  0.18250000000000000         -881295.93750000000
  0.18360000000000004         -869251.75000000000
  0.18470000000000003         -852472.31250000000
  0.18580000000000002         -831184.81250000000
  0.18690000000000001         -805749.18750000000
  0.18800000000000000         -776510.43750000000
  0.18910000000000005         -743818.93750000000
  0.19020000000000004         -708134.75000000000
  0.19130000000000003         -669881.25000000000
  0.19240000000000002         -629505.87500000000
  0.19350000000000001         -587463.43750000000
  0.19460000000000005         -544211.56250000000
  0.19570000000000004         -500212.31250000000
  0.19680000000000003         -455864.68750000000
  0.19790000000000002         -411544.87500000000
  0.19900000000000001         -367654.93750000000
  0.20010000000000000         -324630.93750000000
  0.20120000000000005         -282917.68750000000
  0.20230000000000004         -242886.90625000000
  0.20340000000000003         -204871.21875000000
  0.20450000000000002         -169088.42187500000
  0.20560000000000000         -135700.00000000000
  0.20670000000000005         -104875.82812500000
  0.20780000000000004         -76806.164062500000
  0.20890000000000003         -51705.808593750000
