 -0.12000000000000000          0.0000000000000000
 -0.11889999999999999          0.0000000000000000
 -0.11780000000000000          0.0000000000000000
 -0.11670000000000000          0.0000000000000000
 -0.11559999999999999          0.0000000000000000
 -0.11449999999999999          8.3474100498156792E-022
 -0.11340000000000000         -1.9172950019212052E-021
 -0.11230000000000000         -1.3016738685746055E-020
 -0.11119999999999999          1.3447156139815627E-020
 -0.11009999999999999         -8.5300079687992901E-020
 -0.10900000000000000         -3.5099548137309485E-019
 -0.10790000000000000         -1.3254116580211472E-019
 -0.10679999999999999          7.5370582935391043E-019
 -0.10569999999999999          3.7250479455063048E-020
 -0.10460000000000000         -2.5490244728020779E-018
 -0.10349999999999999         -3.5325972286383625E-018
 -0.10239999999999999         -2.4229673690266132E-019
 -0.10130000000000000          1.9795356432728480E-018
 -0.10020000000000000          4.2013682043941164E-018
  -9.9099999999999994E-002    -2.0288505383910651E-017
  -9.7999999999999990E-002    -4.4778380212986336E-017
  -9.6899999999999986E-002    -3.0803395374474449E-017
  -9.5799999999999996E-002     1.7362573997047254E-017
  -9.4699999999999993E-002     5.2706922927919358E-017
  -9.3599999999999989E-002     4.9586410536842662E-017
  -9.2499999999999999E-002     1.2274915267117377E-017
  -9.1399999999999995E-002    -4.2132073923474041E-017
  -9.0299999999999991E-002    -6.2348070309249518E-017
  -8.9200000000000002E-002     2.8556627246992616E-017
  -8.8099999999999984E-002    -2.0712749879874424E-019
  -8.6999999999999994E-002     5.2201006857572738E-018
  -8.5899999999999990E-002    -4.0639145266713834E-017
  -8.4799999999999986E-002    -1.3083982940361209E-016
  -8.3699999999999997E-002    -8.4276568791026178E-017
  -8.2599999999999993E-002    -2.0866823415221180E-016
  -8.1499999999999989E-002    -2.5341027135780500E-017
  -8.0399999999999999E-002     4.8280052136371546E-016
  -7.9299999999999995E-002     1.4482464511826804E-015
  -7.8199999999999992E-002     2.1059733580771570E-015
  -7.7100000000000002E-002     1.2251061032612573E-015
  -7.5999999999999984E-002    -1.6046473791240428E-015
  -7.4899999999999994E-002    -4.1950640789661150E-015
  -7.3799999999999991E-002    -3.0244721691571972E-015
  -7.2699999999999987E-002     2.5396612150931737E-015
  -7.1599999999999997E-002     8.0354119354458103E-015
  -7.0499999999999993E-002     7.0348762893582967E-015
  -6.9399999999999989E-002    -2.9578886032394312E-015
  -6.8300000000000000E-002    -1.4865348603215929E-014
  -6.7199999999999996E-002    -1.8703736001939204E-014
  -6.6099999999999992E-002    -1.1874537946899091E-014
  -6.5000000000000002E-002    -1.4894768386814676E-015
  -6.3899999999999985E-002     7.1347482501031567E-015
  -6.2799999999999995E-002     2.0956003384951967E-014
  -6.1699999999999991E-002     3.9427232231001655E-014
  -6.0599999999999994E-002     4.8188226141592655E-014
  -5.9499999999999990E-002     2.5527702781497075E-014
  -5.8399999999999994E-002    -2.9682639945136438E-014
  -5.7299999999999990E-002    -8.7081200811443132E-014
  -5.6199999999999986E-002    -8.6765379494861683E-014
  -5.5099999999999996E-002    -3.1603212190619732E-015
  -5.3999999999999992E-002     7.0187440386580702E-014
  -5.2899999999999989E-002     2.0994706014377910E-014
  -5.1799999999999985E-002    -8.1809498140694020E-014
  -5.0699999999999995E-002    -5.9884985425390225E-014
  -4.9599999999999991E-002     1.9946173076927642E-013
  -4.8499999999999988E-002     5.3649034000013973E-013
  -4.7399999999999998E-002     5.4966193272290575E-013
  -4.6299999999999994E-002    -7.3939362662048258E-014
  -4.5199999999999990E-002    -1.1045501535980606E-012
  -4.4099999999999986E-002    -1.6756341323156954E-012
  -4.2999999999999997E-002    -9.4691355451148596E-013
  -4.1899999999999993E-002     1.0509764716490344E-012
  -4.0799999999999989E-002     2.6724922188442468E-012
  -3.9699999999999985E-002     2.6747228563939185E-012
  -3.8599999999999995E-002     8.4759895499844640E-013
  -3.7499999999999992E-002    -1.5134514735198890E-012
  -3.6399999999999988E-002    -2.8241549723806436E-012
  -3.5299999999999984E-002    -2.4192913297693686E-012
  -3.4199999999999994E-002    -1.0516095372975487E-012
  -3.3099999999999991E-002    -1.3294714721473477E-012
  -3.1999999999999987E-002    -2.9027615814497532E-012
  -3.0899999999999997E-002    -4.6511093587664476E-012
  -2.9799999999999993E-002    -2.1980689837719503E-012
  -2.8699999999999989E-002     7.6774238008670004E-012
  -2.7599999999999986E-002     1.7342847644097326E-011
  -2.6499999999999996E-002     1.9025631764479911E-011
  -2.5399999999999992E-002     8.9445300124890714E-012
  -2.4299999999999988E-002    -8.2789322272680543E-012
  -2.3199999999999985E-002    -2.4382024177427297E-011
  -2.2099999999999995E-002    -2.3399469861740130E-011
  -2.0999999999999991E-002    -2.5303459414566243E-012
  -1.9899999999999987E-002     2.8422111886250434E-011
  -1.8799999999999983E-002     4.4529664677828151E-011
  -1.7699999999999994E-002     3.0947407830828055E-011
  -1.6599999999999990E-002    -1.3445031546432951E-011
  -1.5499999999999986E-002    -4.8314321293707607E-011
  -1.4399999999999996E-002    -1.5961397134556243E-011
  -1.3299999999999992E-002     2.5914673185134518E-011
  -1.2199999999999989E-002     5.7147231391496689E-011
  -1.1099999999999985E-002     7.7176084967156555E-011
  -9.9999999999999950E-003     5.3510501585307679E-011
  -8.8999999999999913E-003     8.5578861705459808E-012
  -7.7999999999999875E-003     3.9385959771376378E-012
  -6.6999999999999837E-003     1.5600472302867985E-012
  -5.5999999999999939E-003     1.2625940223887078E-011
  -4.4999999999999901E-003    -3.2326672588789407E-011
  -3.3999999999999864E-003    -6.6075582505487063E-011
  -2.2999999999999826E-003    -5.2768945463244066E-011
  -1.1999999999999927E-003     2.7759903750701476E-011
  -9.9999999999988987E-005     1.7327023149604770E-010
   1.0000000000000148E-003     2.2466944971100133E-010
   2.1000000000000185E-003     1.3042054936018843E-010
   3.2000000000000084E-003    -6.4661678789157406E-011
   4.3000000000000121E-003    -2.4466166939629552E-011
   5.4000000000000159E-003     1.9274784546219337E-010
   6.5000000000000058E-003     1.9933225903212559E-010
   7.6000000000000234E-003    -1.5260180619147690E-010
   8.7000000000000133E-003    -4.1042477749719808E-010
   9.8000000000000032E-003    -3.5454411628776938E-010
   1.0900000000000021E-002     1.7189207002221707E-010
   1.2000000000000011E-002     7.0729122558788049E-010
   1.3100000000000001E-002     3.6880165588115688E-010
   1.4200000000000018E-002    -6.9568784066831313E-010
   1.5300000000000008E-002    -1.2134366844662736E-009
   1.6400000000000026E-002    -5.3014870271539394E-010
   1.7500000000000016E-002     1.2869538768001121E-009
   1.8600000000000005E-002     2.8844640009850764E-009
   1.9700000000000023E-002     2.8059001788705018E-009
   2.0800000000000013E-002     8.0029977089779436E-010
   2.1900000000000003E-002    -1.6601711116948081E-009
   2.3000000000000020E-002    -2.2608275251911891E-009
   2.4100000000000010E-002     1.3886750083180743E-010
   2.5200000000000000E-002     3.4897569278768970E-009
   2.6300000000000018E-002     4.3959982320984636E-009
   2.7400000000000008E-002     1.8174682869798175E-009
   2.8500000000000025E-002    -1.7772374683033831E-009
   2.9600000000000015E-002    -3.6376099910029325E-009
   3.0700000000000005E-002    -2.1368720126702101E-009
   3.1800000000000023E-002     1.3177915425544029E-009
   3.2900000000000013E-002     3.1770477360026916E-009
   3.4000000000000002E-002     2.5535640268969928E-009
   3.5100000000000020E-002     7.1111722066419247E-010
   3.6200000000000010E-002     2.5792937230484370E-010
   3.7300000000000028E-002     1.9558523689511276E-009
   3.8400000000000017E-002     3.8151086734217188E-009
   3.9500000000000007E-002     2.8420690245667402E-009
   4.0600000000000025E-002    -1.4293405348198007E-009
   4.1700000000000015E-002    -6.2385279164800522E-009
   4.2800000000000005E-002    -7.9644566497449887E-009
   4.3900000000000022E-002    -6.0514229183183943E-009
   4.5000000000000012E-002    -1.6466852326146864E-009
   4.6100000000000002E-002     1.0192376942441683E-009
   4.7200000000000020E-002     9.4249452686767654E-010
   4.8300000000000010E-002    -2.0980411852278280E-010
   4.9400000000000027E-002    -4.6580667101281392E-010
   5.0500000000000017E-002     4.2544984202308456E-010
   5.1600000000000007E-002     9.2233598536495265E-010
   5.2700000000000025E-002    -3.7337011260518693E-010
   5.3800000000000014E-002    -2.9955946612147955E-009
   5.4900000000000004E-002    -5.5102633567116754E-009
   5.6000000000000022E-002    -5.6587103891558854E-009
   5.7100000000000012E-002    -2.5446393880912410E-009
   5.8200000000000002E-002     2.6129871599778198E-009
   5.9300000000000019E-002     6.3365397373615906E-009
   6.0400000000000009E-002     6.4569816160542359E-009
   6.1500000000000027E-002     3.4583129693288583E-009
   6.2600000000000017E-002     5.6720006469390682E-010
   6.3700000000000007E-002     1.1537164557040569E-009
   6.4800000000000024E-002     3.9988989897210558E-009
   6.5900000000000014E-002     4.6212669246870064E-009
   6.7000000000000004E-002     4.6637671502480771E-010
   6.8100000000000022E-002    -5.6782907265073845E-009
   6.9200000000000012E-002    -8.1302182763920428E-009
   7.0300000000000029E-002    -4.8279242825799429E-009
   7.1400000000000019E-002     1.1049988701827829E-009
   7.2500000000000009E-002     4.2952552625763474E-009
   7.3600000000000027E-002     2.3766240087041979E-009
   7.4700000000000016E-002    -1.1194888349663756E-009
   7.5800000000000006E-002    -1.6936763103103658E-009
   7.6900000000000024E-002     9.2295043829793144E-010
   7.8000000000000014E-002     3.7367624550199707E-009
   7.9100000000000004E-002     2.1766490831964802E-009
   8.0200000000000021E-002    -3.2196116883653758E-009
   8.1300000000000011E-002    -7.7554282995606627E-009
   8.2400000000000029E-002    -6.7342087461952360E-009
   8.3500000000000019E-002     1.6671303226800660E-010
   8.4600000000000009E-002     7.6054122999380525E-009
   8.5700000000000026E-002     8.9134459813067224E-009
   8.6800000000000016E-002     2.7284434711560834E-009
   8.7900000000000006E-002    -4.2452992232711040E-009
   8.9000000000000024E-002    -5.4468944910013306E-009
   9.0100000000000013E-002    -8.0463907758954178E-010
   9.1200000000000003E-002     3.9451721889349756E-009
   9.2300000000000021E-002     3.8908360977529810E-009
   9.3400000000000011E-002    -2.1475859979247502E-010
   9.4500000000000028E-002    -3.4957607919494649E-009
   9.5600000000000018E-002    -3.4783931290860437E-009
   9.6700000000000008E-002    -1.8118404554456902E-009
   9.7800000000000026E-002    -3.3719540493137856E-009
   9.8900000000000016E-002    -8.2304376647357458E-009
  0.10000000000000001         -1.1618995543472010E-008
  0.10110000000000002         -8.8768876693734455E-009
  0.10220000000000001          7.1292260983568667E-010
  0.10330000000000003          1.0804659389407334E-008
  0.10440000000000002          1.4729878650143746E-008
  0.10550000000000001          1.2183839714907663E-008
  0.10660000000000003          7.1102457255278750E-009
  0.10770000000000002          3.5962075539686111E-009
  0.10880000000000001          1.7492801651641798E-009
  0.10990000000000003         -9.4912844250671924E-010
  0.11100000000000002         -5.9510183447741838E-009
  0.11210000000000001         -1.1033574942587165E-008
  0.11320000000000002         -1.2169347307633416E-008
  0.11430000000000001         -7.3537131939360734E-009
  0.11540000000000003          1.7014022413164298E-009
  0.11650000000000002          1.0281480555818234E-008
  0.11760000000000001          1.4944745885259181E-008
  0.11870000000000003          1.5718084611648919E-008
  0.11980000000000002          1.3408165244754855E-008
  0.12090000000000001          8.5169125085826636E-009
  0.12200000000000003          8.1128986861855878E-010
  0.12310000000000001         -7.7368511597342149E-009
  0.12420000000000003         -1.3040399871044883E-008
  0.12530000000000002         -1.1603801475246200E-008
  0.12640000000000001         -4.2157961566147151E-009
  0.12750000000000003          4.2119125964745763E-009
  0.12860000000000002          8.0505850874601492E-009
  0.12970000000000001          6.3680727357962041E-009
  0.13080000000000003          3.0722271393557321E-009
  0.13190000000000002          2.4294182221495930E-009
  0.13300000000000001          3.9377199279044817E-009
  0.13410000000000000          3.3666149867883632E-009
  0.13520000000000004         -2.0444892445681262E-009
  0.13630000000000003         -1.0001074635113127E-008
  0.13740000000000002         -1.3870550041872320E-008
  0.13850000000000001         -9.2969152376554121E-009
  0.13960000000000000          1.1743482852821785E-009
  0.14070000000000005          1.0121908644578070E-008
  0.14180000000000004          1.1594360138644788E-008
  0.14290000000000003          6.7748131549194568E-009
  0.14400000000000002          2.3317101582875921E-009
  0.14510000000000001          3.2484581691250014E-009
  0.14620000000000000          7.1229835363340044E-009
  0.14730000000000004          7.3226948948956760E-009
  0.14840000000000003          7.9122258744845908E-010
  0.14950000000000002         -8.2678051072093695E-009
  0.15060000000000001         -1.1895278539952869E-008
  0.15170000000000000         -6.2012719403981009E-009
  0.15280000000000005          4.5836969775336911E-009
  0.15390000000000004          1.2267481253047663E-008
  0.15500000000000003          1.2234155910562095E-008
  0.15610000000000002          7.2980901322239333E-009
  0.15720000000000001          4.1187648847085256E-009
  0.15830000000000000          5.5934576970173566E-009
  0.15940000000000004          7.6036874574469948E-009
  0.16050000000000003          4.1016963159279385E-009
  0.16160000000000002         -5.4418918260523697E-009
  0.16270000000000001         -1.4318473517960228E-008
  0.16380000000000000         -1.4847737261902694E-008
  0.16490000000000005         -6.2728724437022265E-009
  0.16600000000000004          4.4822328071347783E-009
  0.16710000000000003          9.1402831969844556E-009
  0.16820000000000002          6.0565752413310747E-009
  0.16930000000000001          1.4805339176859889E-009
  0.17040000000000000          1.8744543694992899E-009
  0.17150000000000004          7.1643926347064735E-009
  0.17260000000000003          1.0809627859487136E-008
  0.17370000000000002          6.9909567024240005E-009
  0.17480000000000001         -2.6222690685528960E-009
  0.17590000000000000         -1.0070940525963579E-008
  0.17700000000000005         -8.4468547711935571E-009
  0.17810000000000004          1.0556752139123660E-009
  0.17920000000000003          1.0170557729338725E-008
  0.18030000000000002          1.1064163807361638E-008
  0.18140000000000001          3.1158073898751582E-009
  0.18250000000000000         -6.9657337675721465E-009
  0.18360000000000004         -1.1929423671119821E-008
  0.18470000000000003         -1.0204503020361244E-008
  0.18580000000000002         -5.9341012104141555E-009
  0.18690000000000001         -4.1061065658709595E-009
  0.18800000000000000         -5.9081113334968904E-009
  0.18910000000000005         -8.3957827357039605E-009
  0.19020000000000004         -7.9839352906674321E-009
  0.19130000000000003         -4.0810150814252211E-009
  0.19240000000000002          9.8484942423482380E-010
  0.19350000000000001          4.8575197197919806E-009
  0.19460000000000005          7.2188104383030804E-009
  0.19570000000000004          8.8182492419264236E-009
  0.19680000000000003          9.6345491584770571E-009
  0.19790000000000002          8.6470528515292244E-009
  0.19900000000000001          5.4860387344035644E-009
  0.20010000000000000          1.7995706036444403E-009
  0.20120000000000005          1.8578717730921568E-010
  0.20230000000000004          1.3516422425752239E-009
  0.20340000000000003          2.9947750945780172E-009
  0.20450000000000002          1.9591026578780202E-009
  0.20560000000000000         -2.2685042733172622E-009
  0.20670000000000005         -6.4434537705437833E-009
  0.20780000000000004         -6.3464318245110007E-009
  0.20890000000000003         -1.1825352919103693E-009
