 -0.12000000000000000          0.0000000000000000
 -0.11889999999999999          0.0000000000000000
 -0.11780000000000000          0.0000000000000000
 -0.11670000000000000          0.0000000000000000
 -0.11559999999999999          0.0000000000000000
 -0.11449999999999999         -5.5109117630755414E-016
 -0.11340000000000000          2.4303170966574056E-015
 -0.11230000000000000         -5.3312290969635343E-014
 -0.11119999999999999         -2.4473904348433495E-013
 -0.11009999999999999          1.0235113809004687E-013
 -0.10900000000000000          2.1658300153326593E-012
 -0.10790000000000000          2.2103638364079359E-012
 -0.10679999999999999         -1.1652969388042944E-011
 -0.10569999999999999         -3.4410658350525480E-011
 -0.10460000000000000          8.0622650482781166E-013
 -0.10349999999999999          1.7196896684446017E-010
 -0.10239999999999999          3.2096386659574705E-010
 -0.10130000000000000         -1.0431056712834064E-010
 -0.10020000000000000         -1.4216583466009070E-009
  -9.9099999999999994E-002    -2.2817667755248294E-009
  -9.7999999999999990E-002     5.2114712545403563E-010
  -9.6899999999999986E-002     8.1412192542984485E-009
  -9.5799999999999996E-002     1.3264780385213726E-008
  -9.4699999999999993E-002     8.3193224531541432E-010
  -9.3599999999999989E-002    -3.4439231910710077E-008
  -9.2499999999999999E-002    -6.3209732559244003E-008
  -9.1399999999999995E-002    -2.5378781742801948E-008
  -9.0299999999999991E-002     1.0710430586868824E-007
  -8.9200000000000002E-002     2.4360198835893243E-007
  -8.8099999999999984E-002     1.7872750390779402E-007
  -8.6999999999999994E-002    -2.2113725606232038E-007
  -8.5899999999999990E-002    -7.4547244821587810E-007
  -8.4799999999999986E-002    -7.9884409842634341E-007
  -8.3699999999999997E-002     1.3828446299157804E-007
  -8.2599999999999993E-002     1.7494470512247062E-006
  -8.1499999999999989E-002     2.5969868602260249E-006
  -8.0399999999999999E-002     1.0503649718884844E-006
  -7.9299999999999995E-002    -2.8642289180424996E-006
  -7.8199999999999992E-002    -6.3448555920331273E-006
  -7.7100000000000002E-002    -5.2484997468127403E-006
  -7.5999999999999984E-002     2.0502488951024134E-006
  -7.4899999999999994E-002     1.1426051059970632E-005
  -7.3799999999999991E-002     1.4372673831530847E-005
  -7.2699999999999987E-002     4.7837852434895467E-006
  -7.1599999999999997E-002    -1.3644649698107969E-005
  -7.0499999999999993E-002    -2.6977990273735486E-005
  -6.9399999999999989E-002    -2.0857090930803679E-005
  -6.8300000000000000E-002     5.6684971241338644E-006
  -6.7199999999999996E-002     3.4900804166682065E-005
  -6.6099999999999992E-002     4.1803094063652679E-005
  -6.5000000000000002E-002     1.5466226614080369E-005
  -6.3899999999999985E-002    -2.7614487407845445E-005
  -6.2799999999999995E-002    -5.3297317208489403E-005
  -6.1699999999999991E-002    -3.8075722841313109E-005
  -6.0599999999999994E-002     7.8425291576422751E-006
  -5.9499999999999990E-002     4.5857901568524539E-005
  -5.8399999999999994E-002     4.2082476284122095E-005
  -5.7299999999999990E-002     1.0933267446944228E-007
  -5.6199999999999986E-002    -3.8724687328794971E-005
  -5.5099999999999996E-002    -3.2333337003365159E-005
  -5.3999999999999992E-002     1.9412864276091568E-005
  -5.2899999999999989E-002     6.7893131927121431E-005
  -5.1799999999999985E-002     5.6638684327481315E-005
  -5.0699999999999995E-002    -2.3529943064204417E-005
  -4.9599999999999991E-002    -1.1644704500213265E-004
  -4.8499999999999988E-002    -1.4118537364993244E-004
  -4.7399999999999998E-002    -6.0069676692364737E-005
  -4.6299999999999994E-002     8.4217143012210727E-005
  -4.5199999999999990E-002     1.9579095533117652E-004
  -4.4099999999999986E-002     1.9546783005353063E-004
  -4.2999999999999997E-002     7.7213459007907659E-005
  -4.1899999999999993E-002    -9.0017369075212628E-005
  -4.0799999999999989E-002    -2.0968831086065620E-004
  -3.9699999999999985E-002    -2.1550439123529941E-004
  -3.8599999999999995E-002    -1.0500601638341323E-004
  -3.7499999999999992E-002     6.0181533626746386E-005
  -3.6399999999999988E-002     1.8119398737326264E-004
  -3.5299999999999984E-002     1.7106751329265535E-004
  -3.4199999999999994E-002     1.6687701645423658E-005
  -3.3099999999999991E-002    -1.8101744353771210E-004
  -3.1999999999999987E-002    -2.4142944312188774E-004
  -3.0899999999999997E-002    -3.1235711503541097E-005
  -2.9799999999999993E-002     3.8605474401265383E-004
  -2.8699999999999989E-002     7.1478757308796048E-004
  -2.7599999999999986E-002     5.9549813158810139E-004
  -2.6499999999999996E-002    -9.7475676739122719E-005
  -2.5399999999999992E-002    -1.0571600869297981E-003
  -2.4299999999999988E-002    -1.6544893151149154E-003
  -2.3199999999999985E-002    -1.3471530983224511E-003
  -2.2099999999999995E-002    -1.1190839722985402E-004
  -2.0999999999999991E-002     1.4439806109294295E-003
  -1.9899999999999987E-002     2.4195399601012468E-003
  -1.8799999999999983E-002     2.1893340162932873E-003
  -1.7699999999999994E-002     8.0618140054866672E-004
  -1.6599999999999990E-002    -1.0302949231117964E-003
  -1.5499999999999986E-002    -2.3822209332138300E-003
  -1.4399999999999996E-002    -2.5639594532549381E-003
  -1.3299999999999992E-002    -1.4407621929422021E-003
  -1.2199999999999989E-002     5.4014229681342840E-004
  -1.1099999999999985E-002     2.5095080491155386E-003
  -9.9999999999999950E-003     3.4554158337414265E-003
  -8.8999999999999913E-003     2.6067679282277822E-003
  -7.7999999999999875E-003    -1.5258164785336703E-004
  -6.6999999999999837E-003    -4.0709488093852997E-003
  -5.5999999999999939E-003    -7.7854371629655361E-003
  -4.4999999999999901E-003    -1.0053845122456551E-002
  -3.3999999999999864E-003    -1.0543995536863804E-002
  -2.2999999999999826E-003    -1.0079206898808479E-002
  -1.1999999999999927E-003    -1.0071019642055035E-002
  -9.9999999999988987E-005    -1.1523411609232426E-002
   1.0000000000000148E-003    -1.4397718012332916E-002
   2.1000000000000185E-003    -1.7865287140011787E-002
   3.2000000000000084E-003    -2.1222740411758423E-002
   4.3000000000000121E-003    -2.4670829996466637E-002
   5.4000000000000159E-003    -2.9298845678567886E-002
   6.5000000000000058E-003    -3.6345213651657104E-002
   7.6000000000000234E-003    -4.6422757208347321E-002
   8.7000000000000133E-003    -5.9347186237573624E-002
   9.8000000000000032E-003    -7.4579775333404541E-002
   1.0900000000000021E-002    -9.1776192188262939E-002
   1.2000000000000011E-002   -0.11099464446306229
   1.3100000000000001E-002   -0.13264255225658417
   1.4200000000000018E-002   -0.15751366317272186
   1.5300000000000008E-002   -0.18699321150779724
   1.6400000000000026E-002   -0.22302462160587311
   1.7500000000000016E-002   -0.26745188236236572
   1.8600000000000005E-002   -0.32103803753852844
   1.9700000000000023E-002   -0.38313925266265869
   2.0800000000000013E-002   -0.45274391770362854
   2.1900000000000003E-002   -0.53039157390594482
   2.3000000000000020E-002   -0.61936277151107788
   2.4100000000000010E-002   -0.72479391098022461
   2.5200000000000000E-002   -0.85105544328689575
   2.6300000000000018E-002   -0.99938249588012695
   2.7400000000000008E-002    -1.1677868366241455
   2.8500000000000025E-002    -1.3535584211349487
   2.9600000000000015E-002    -1.5564155578613281
   3.0700000000000005E-002    -1.7798548936843872
   3.1800000000000023E-002    -2.0298557281494141
   3.2900000000000013E-002    -2.3122618198394775
   3.4000000000000002E-002    -2.6309278011322021
   3.5100000000000020E-002    -2.9875464439392090
   3.6200000000000010E-002    -3.3824903964996338
   3.7300000000000028E-002    -3.8153107166290283
   3.8400000000000017E-002    -4.2849345207214355
   3.9500000000000007E-002    -4.7897410392761230
   4.0600000000000025E-002    -5.3289957046508789
   4.1700000000000015E-002    -5.9037380218505859
   4.2800000000000005E-002    -6.5165009498596191
   4.3900000000000022E-002    -7.1686840057373047
   4.5000000000000012E-002    -7.8575654029846191
   4.6100000000000002E-002    -8.5755844116210938
   4.7200000000000020E-002    -9.3136062622070312
   4.8300000000000010E-002    -10.064298629760742
   4.9400000000000027E-002    -10.823343276977539
   5.0500000000000017E-002    -11.587217330932617
   5.1600000000000007E-002    -12.347916603088379
   5.2700000000000025E-002    -13.091083526611328
   5.3800000000000014E-002    -13.798368453979492
   5.4900000000000004E-002    -14.452561378479004
   5.6000000000000022E-002    -15.039449691772461
   5.7100000000000012E-002    -15.547072410583496
   5.8200000000000002E-002    -15.960316658020020
   5.9300000000000019E-002    -16.258346557617188
   6.0400000000000009E-002    -16.418323516845703
   6.1500000000000027E-002    -16.417850494384766
   6.2600000000000017E-002    -16.238161087036133
   6.3700000000000007E-002    -15.862724304199219
   6.4800000000000024E-002    -15.272279739379883
   6.5900000000000014E-002    -14.447242736816406
   6.7000000000000004E-002    -13.367761611938477
   6.8100000000000022E-002    -12.020649909973145
   6.9200000000000012E-002    -10.399302482604980
   7.0300000000000029E-002    -8.5004434585571289
   7.1400000000000019E-002    -6.3177471160888672
   7.2500000000000009E-002    -3.8442661762237549
   7.3600000000000027E-002    -1.0795850753784180
   7.4700000000000016E-002     1.9672145843505859
   7.5800000000000006E-002     5.2751698493957520
   7.6900000000000024E-002     8.8175096511840820
   7.8000000000000014E-002     12.571361541748047
   7.9100000000000004E-002     16.512205123901367
   8.0200000000000021E-002     20.607479095458984
   8.1300000000000011E-002     24.812086105346680
   8.2400000000000029E-002     29.070440292358398
   8.3500000000000019E-002     33.327529907226562
   8.4600000000000009E-002     37.532104492187500
   8.5700000000000026E-002     41.630699157714844
   8.6800000000000016E-002     45.563934326171875
   8.7900000000000006E-002     49.266304016113281
   8.9000000000000024E-002     52.667388916015625
   9.0100000000000013E-002     55.700866699218750
   9.1200000000000003E-002     58.305671691894531
   9.2300000000000021E-002     60.432617187500000
   9.3400000000000011E-002     62.032806396484375
   9.4500000000000028E-002     63.054512023925781
   9.5600000000000018E-002     63.448421478271484
   9.6700000000000008E-002     63.176486968994141
   9.7800000000000026E-002     62.222049713134766
   9.8900000000000016E-002     60.578067779541016
  0.10000000000000001          58.243961334228516
  0.10110000000000002          55.220287322998047
  0.10220000000000001          51.515872955322266
  0.10330000000000003          47.159992218017578
  0.10440000000000002          42.202129364013672
  0.10550000000000001          36.704559326171875
  0.10660000000000003          30.731344223022461
  0.10770000000000002          24.345418930053711
  0.10880000000000001          17.616146087646484
  0.10990000000000003          10.629509925842285
  0.11100000000000002          3.4895403385162354
  0.11210000000000001         -3.6926512718200684
  0.11320000000000002         -10.814190864562988
  0.11430000000000001         -17.783760070800781
  0.11540000000000003         -24.511522293090820
  0.11650000000000002         -30.899461746215820
  0.11760000000000001         -36.843757629394531
  0.11870000000000003         -42.245922088623047
  0.11980000000000002         -47.027725219726562
  0.12090000000000001         -51.130008697509766
  0.12200000000000003         -54.501029968261719
  0.12310000000000001         -57.090065002441406
  0.12420000000000003         -58.846435546875000
  0.12530000000000002         -59.735961914062500
  0.12640000000000001         -59.750125885009766
  0.12750000000000003         -58.904148101806641
  0.12860000000000002         -57.226547241210938
  0.12970000000000001         -54.743324279785156
  0.13080000000000003         -51.482955932617188
  0.13190000000000002         -47.489116668701172
  0.13300000000000001         -42.831489562988281
  0.13410000000000000         -37.600971221923828
  0.13520000000000004         -31.889284133911133
  0.13630000000000003         -25.778829574584961
  0.13740000000000002         -19.350908279418945
  0.13850000000000001         -12.698568344116211
  0.13960000000000000         -5.9408731460571289
  0.14070000000000005         0.79414063692092896
  0.14180000000000004          7.3930878639221191
  0.14290000000000003          13.763872146606445
  0.14400000000000002          19.821449279785156
  0.14510000000000001          25.467159271240234
  0.14620000000000000          30.586256027221680
  0.14730000000000004          35.068698883056641
  0.14840000000000003          38.828601837158203
  0.14950000000000002          41.807125091552734
  0.15060000000000001          43.959156036376953
  0.15170000000000000          45.230281829833984
  0.15280000000000005          45.551170349121094
  0.15390000000000004          44.864097595214844
  0.15500000000000003          43.151435852050781
  0.15610000000000002          40.427707672119141
  0.15720000000000001          36.722290039062500
  0.15830000000000000          32.043773651123047
  0.15940000000000004          26.401069641113281
  0.16050000000000003          19.811685562133789
  0.16160000000000002          12.342709541320801
  0.16270000000000001          4.1016736030578613
  0.16380000000000000         -4.7986068725585938
  0.16490000000000005         -14.268146514892578
  0.16600000000000004         -24.225996017456055
  0.16710000000000003         -34.570690155029297
  0.16820000000000002         -45.152126312255859
  0.16930000000000001         -55.795120239257812
  0.17040000000000000         -66.328742980957031
  0.17150000000000004         -76.609802246093750
  0.17260000000000003         -86.510398864746094
  0.17370000000000002         -95.885887145996094
  0.17480000000000001         -104.56534576416016
  0.17590000000000000         -112.35367584228516
  0.17700000000000005         -119.09147644042969
  0.17810000000000004         -124.65335845947266
  0.17920000000000003         -128.94917297363281
  0.18030000000000002         -131.87882995605469
  0.18140000000000001         -133.33110046386719
  0.18250000000000000         -133.19421386718750
  0.18360000000000004         -131.39680480957031
  0.18470000000000003         -127.93075561523438
  0.18580000000000002         -122.82637023925781
  0.18690000000000001         -116.11720275878906
  0.18800000000000000         -107.82372283935547
  0.18910000000000005         -97.980491638183594
  0.19020000000000004         -86.673088073730469
  0.19130000000000003         -74.048820495605469
  0.19240000000000002         -60.284408569335938
  0.19350000000000001         -45.555904388427734
  0.19460000000000005         -30.019906997680664
  0.19570000000000004         -13.839820861816406
  0.19680000000000003          2.7818069458007812
  0.19790000000000002          19.597686767578125
  0.19900000000000001          36.348617553710938
  0.20010000000000000          52.805919647216797
  0.20120000000000005          68.773857116699219
  0.20230000000000004          84.068641662597656
  0.20340000000000003          98.489318847656250
  0.20450000000000002          111.81726074218750
  0.20560000000000000          123.85269165039062
  0.20670000000000005          134.44590759277344
  0.20780000000000004          143.49372863769531
  0.20890000000000003          150.91964721679688
