 -0.12000000000000000          0.0000000000000000
 -0.11889999999999999          0.0000000000000000
 -0.11780000000000000          0.0000000000000000
 -0.11670000000000000          0.0000000000000000
 -0.11559999999999999          0.0000000000000000
 -0.11449999999999999          0.0000000000000000
 -0.11340000000000000          0.0000000000000000
 -0.11230000000000000          0.0000000000000000
 -0.11119999999999999         -2.8468642940367495E-018
 -0.11009999999999999          4.4552837176700688E-016
 -0.10900000000000000          5.7557582831824217E-016
 -0.10790000000000000         -3.1358102031508019E-015
 -0.10679999999999999          2.2214502915125778E-014
 -0.10569999999999999          1.7601594010444033E-013
 -0.10460000000000000          1.9579848267899103E-013
 -0.10349999999999999         -1.3390621077247200E-012
 -0.10239999999999999         -4.6892858519831382E-012
 -0.10130000000000000          5.0611045302600965E-014
 -0.10020000000000000          3.2613418909921421E-011
  -9.9099999999999994E-002     7.1035198556668178E-011
  -9.7999999999999990E-002    -3.2504058472548891E-011
  -9.6899999999999986E-002    -4.4724055014988551E-010
  -9.5799999999999996E-002    -8.0876977337496214E-010
  -9.4699999999999993E-002     3.0206848133929043E-010
  -9.3599999999999989E-002     4.0734886574966822E-009
  -9.2499999999999999E-002     7.2859411837100652E-009
  -9.1399999999999995E-002    -3.7836522803758044E-010
  -9.0299999999999991E-002    -2.6871331826328060E-008
  -8.9200000000000002E-002    -5.2694947072495779E-008
  -8.8099999999999984E-002    -1.7002937724441836E-008
  -8.6999999999999994E-002     1.3138594567863038E-007
  -8.5899999999999990E-002     3.0652952887066931E-007
  -8.4799999999999986E-002     2.0959653568297654E-007
  -8.3699999999999997E-002    -4.5698919848291553E-007
  -8.2599999999999993E-002    -1.4293199228632147E-006
  -8.1499999999999989E-002    -1.4795115248489310E-006
  -8.0399999999999999E-002     8.8177046109194634E-007
  -7.9299999999999995E-002     5.2683103604067583E-006
  -7.8199999999999992E-002     7.5023444878752343E-006
  -7.7100000000000002E-002     1.3000442322663730E-006
  -7.5999999999999984E-002    -1.4703918168379460E-005
  -7.4899999999999994E-002    -2.9093718694639392E-005
  -7.3799999999999991E-002    -1.9715622329385951E-005
  -7.2699999999999987E-002     2.6736721338238567E-005
  -7.1599999999999997E-002     8.7246888142544776E-005
  -7.0499999999999993E-002     9.7181888122577220E-005
  -6.9399999999999989E-002    -4.8198071453953162E-006
  -6.8300000000000000E-002    -1.9547779811546206E-004
  -6.7199999999999996E-002    -3.2205355819314718E-004
  -6.6099999999999992E-002    -1.8077580898534507E-004
  -6.5000000000000002E-002     2.8029919485561550E-004
  -6.3899999999999985E-002     7.8447768464684486E-004
  -6.2799999999999995E-002     8.0418976722285151E-004
  -6.1699999999999991E-002    -1.9879187675542198E-005
  -6.0599999999999994E-002    -1.3700078707188368E-003
  -5.9499999999999990E-002    -2.1675298921763897E-003
  -5.8399999999999994E-002    -1.2645079987123609E-003
  -5.7299999999999990E-002     1.3922071084380150E-003
  -5.6199999999999986E-002     4.1113113984465599E-003
  -5.5099999999999996E-002     4.2785583063960075E-003
  -5.3999999999999992E-002     5.2800279809162021E-004
  -5.2899999999999989E-002    -5.3327400237321854E-003
  -5.1799999999999985E-002    -8.7155066430568695E-003
  -5.0699999999999995E-002    -5.5586695671081543E-003
  -4.9599999999999991E-002     3.5747967194765806E-003
  -4.8499999999999988E-002     1.2370500713586807E-002
  -4.7399999999999998E-002     1.2806634418666363E-002
  -4.6299999999999994E-002     2.1990288514643908E-003
  -4.5199999999999990E-002    -1.2653199024498463E-002
  -4.4099999999999986E-002    -1.9200058653950691E-002
  -4.2999999999999997E-002    -9.5261353999376297E-003
  -4.1899999999999993E-002     1.0783897712826729E-002
  -4.0799999999999989E-002     2.4427995085716248E-002
  -3.9699999999999985E-002     1.6134919598698616E-002
  -3.8599999999999995E-002    -1.1694055050611496E-002
  -3.7499999999999992E-002    -3.6236997693777084E-002
  -3.6399999999999988E-002    -3.0727174133062363E-002
  -3.5299999999999984E-002     1.0427962057292461E-002
  -3.4199999999999994E-002     5.9625528752803802E-002
  -3.3099999999999991E-002     7.2112560272216797E-002
  -3.1999999999999987E-002     2.2485665977001190E-002
  -3.0899999999999997E-002    -6.6728055477142334E-002
  -2.9799999999999993E-002   -0.13202100992202759
  -2.8699999999999989E-002   -0.11305306106805801
  -2.7599999999999986E-002    -3.3097534906119108E-003
  -2.6499999999999996E-002    0.13438218832015991
  -2.5399999999999992E-002    0.20576114952564240
  -2.4299999999999988E-002    0.15265628695487976
  -2.3199999999999985E-002    -5.8831961359828711E-004
  -2.2099999999999995E-002   -0.15995816886425018
  -2.0999999999999991E-002   -0.22726570069789886
  -1.9899999999999987E-002   -0.16960214078426361
  -1.8799999999999983E-002    -3.9266224950551987E-002
  -1.7699999999999994E-002     7.1475751698017120E-002
  -1.6599999999999990E-002    0.10515318065881729
  -1.5499999999999986E-002     8.3386458456516266E-002
  -1.4399999999999996E-002     8.2928620278835297E-002
  -1.3299999999999992E-002    0.15842887759208679
  -1.2199999999999989E-002    0.27149853110313416
  -1.1099999999999985E-002    0.28905028104782104
  -9.9999999999999950E-003     7.0693112909793854E-002
  -8.8999999999999913E-003   -0.39990237355232239
  -7.7999999999999875E-003   -0.93073076009750366
  -6.6999999999999837E-003    -1.1678344011306763
  -5.5999999999999939E-003   -0.78650695085525513
  -4.4999999999999901E-003    0.26024395227432251
  -3.3999999999999864E-003     1.5957876443862915
  -2.2999999999999826E-003     2.5161435604095459
  -1.1999999999999927E-003     2.3390142917633057
  -9.9999999999988987E-005    0.84003955125808716
   1.0000000000000148E-003    -1.4938187599182129
   2.1000000000000185E-003    -3.5998430252075195
   3.2000000000000084E-003    -4.3475260734558105
   4.3000000000000121E-003    -3.1552491188049316
   5.4000000000000159E-003   -0.35491579771041870
   6.5000000000000058E-003     2.9208343029022217
   7.6000000000000234E-003     5.2699022293090820
   8.7000000000000133E-003     5.6718025207519531
   9.8000000000000032E-003     3.9200489521026611
   1.0900000000000021E-002    0.65856409072875977
   1.2000000000000011E-002    -2.9312088489532471
   1.3100000000000001E-002    -5.6078171730041504
   1.4200000000000018E-002    -6.5169811248779297
   1.5300000000000008E-002    -5.4667968750000000
   1.6400000000000026E-002    -2.9406077861785889
   1.7500000000000016E-002    0.17948424816131592
   1.8600000000000005E-002     3.0773181915283203
   1.9700000000000023E-002     5.3897628784179688
   2.0800000000000013E-002     7.2024183273315430
   2.1900000000000003E-002     8.5595884323120117
   2.3000000000000020E-002     8.8230934143066406
   2.4100000000000010E-002     6.5283422470092773
   2.5200000000000000E-002    0.21475425362586975
   2.6300000000000018E-002    -10.002553939819336
   2.7400000000000008E-002    -21.163452148437500
   2.8500000000000025E-002    -27.764299392700195
   2.9600000000000015E-002    -24.143579483032227
   3.0700000000000005E-002    -8.0418491363525391
   3.1800000000000023E-002     16.741891860961914
   3.2900000000000013E-002     40.658588409423828
   3.4000000000000002E-002     52.297512054443359
   3.5100000000000020E-002     44.303916931152344
   3.6200000000000010E-002     18.178697586059570
   3.7300000000000028E-002    -15.117623329162598
   3.8400000000000017E-002    -39.886035919189453
   3.9500000000000007E-002    -43.916999816894531
   4.0600000000000025E-002    -26.045885086059570
   4.1700000000000015E-002     1.4232248067855835
   4.2800000000000005E-002     17.547409057617188
   4.3900000000000022E-002     2.9387075901031494
   4.5000000000000012E-002    -50.077884674072266
   4.6100000000000002E-002    -133.42846679687500
   4.7200000000000020E-002    -228.36915588378906
   4.8300000000000010E-002    -317.21493530273438
   4.9400000000000027E-002    -394.74313354492188
   5.0500000000000017E-002    -471.95605468750000
   5.1600000000000007E-002    -569.50854492187500
   5.2700000000000025E-002    -705.00817871093750
   5.3800000000000014E-002    -882.94494628906250
   5.4900000000000004E-002    -1094.7868652343750
   5.6000000000000022E-002    -1330.1002197265625
   5.7100000000000012E-002    -1591.8161621093750
   5.8200000000000002E-002    -1905.2856445312500
   5.9300000000000019E-002    -2314.1972656250000
   6.0400000000000009E-002    -2864.7929687500000
   6.1500000000000027E-002    -3587.7456054687500
   6.2600000000000017E-002    -4489.1782226562500
   6.3700000000000007E-002    -5557.4921875000000
   6.4800000000000024E-002    -6783.1796875000000
   6.5900000000000014E-002    -8181.0581054687500
   6.7000000000000004E-002    -9802.3798828125000
   6.8100000000000022E-002    -11729.617187500000
   6.9200000000000012E-002    -14056.806640625000
   7.0300000000000029E-002    -16866.996093750000
   7.1400000000000019E-002    -20220.597656250000
   7.2500000000000009E-002    -24162.466796875000
   7.3600000000000027E-002    -28744.199218750000
   7.4700000000000016E-002    -34048.347656250000
   7.5800000000000006E-002    -40198.441406250000
   7.6900000000000024E-002    -47348.503906250000
   7.8000000000000014E-002    -55657.636718750000
   7.9100000000000004E-002    -65267.023437500000
   8.0200000000000021E-002    -76295.234375000000
   8.1300000000000011E-002    -88857.460937500000
   8.2400000000000029E-002    -103096.45312500000
   8.3500000000000019E-002    -119205.83593750000
   8.4600000000000009E-002    -137428.56250000000
   8.5700000000000026E-002    -158029.64062500000
   8.6800000000000016E-002    -181259.43750000000
   8.7900000000000006E-002    -207325.29687500000
   8.9000000000000024E-002    -236390.01562500000
   9.0100000000000013E-002    -268595.12500000000
   9.1200000000000003E-002    -304094.62500000000
   9.2300000000000021E-002    -343077.75000000000
   9.3400000000000011E-002    -385768.31250000000
   9.4500000000000028E-002    -432394.62500000000
   9.5600000000000018E-002    -483143.53125000000
   9.6700000000000008E-002    -538121.31250000000
   9.7800000000000026E-002    -597336.50000000000
   9.8900000000000016E-002    -660708.68750000000
  0.10000000000000001         -728102.81250000000
  0.10110000000000002         -799356.12500000000
  0.10220000000000001         -874286.68750000000
  0.10330000000000003         -952660.93750000000
  0.10440000000000002         -1034156.2500000000
  0.10550000000000001         -1118311.0000000000
  0.10660000000000003         -1204519.6250000000
  0.10770000000000002         -1292035.2500000000
  0.10880000000000001         -1379995.1250000000
  0.10990000000000003         -1467432.6250000000
  0.11100000000000002         -1553282.0000000000
  0.11210000000000001         -1636379.0000000000
  0.11320000000000002         -1715444.6250000000
  0.11430000000000001         -1789093.5000000000
  0.11540000000000003         -1855840.8750000000
  0.11650000000000002         -1914110.3750000000
  0.11760000000000001         -1962260.2500000000
  0.11870000000000003         -1998594.3750000000
  0.11980000000000002         -2021372.8750000000
  0.12090000000000001         -2028867.6250000000
  0.12200000000000003         -2019357.1250000000
  0.12310000000000001         -1991171.2500000000
  0.12420000000000003         -1942730.7500000000
  0.12530000000000002         -1872614.0000000000
  0.12640000000000001         -1779565.2500000000
  0.12750000000000003         -1662535.3750000000
  0.12860000000000002         -1520683.0000000000
  0.12970000000000001         -1353401.5000000000
  0.13080000000000003         -1160306.5000000000
  0.13190000000000002         -941340.93750000000
  0.13300000000000001         -696792.43750000000
  0.13410000000000000         -427324.31250000000
  0.13520000000000004         -134041.43750000000
  0.13630000000000003          181552.85937500000
  0.13740000000000002          517558.34375000000
  0.13850000000000001          871721.25000000000
  0.13960000000000000          1241443.0000000000
  0.14070000000000005          1623791.0000000000
  0.14180000000000004          2015475.3750000000
  0.14290000000000003          2412916.0000000000
  0.14400000000000002          2812286.0000000000
  0.14510000000000001          3209544.0000000000
  0.14620000000000000          3600507.0000000000
  0.14730000000000004          3980880.0000000000
  0.14840000000000003          4346331.5000000000
  0.14950000000000002          4692536.0000000000
  0.15060000000000001          5015263.0000000000
  0.15170000000000000          5310474.5000000000
  0.15280000000000005          5574406.0000000000
  0.15390000000000004          5803626.0000000000
  0.15500000000000003          5995062.0000000000
  0.15610000000000002          6146064.5000000000
  0.15720000000000001          6254429.5000000000
  0.15830000000000000          6318429.5000000000
  0.15940000000000004          6336865.5000000000
  0.16050000000000003          6309076.5000000000
  0.16160000000000002          6234979.0000000000
  0.16270000000000001          6115087.5000000000
  0.16380000000000000          5950508.0000000000
  0.16490000000000005          5742899.5000000000
  0.16600000000000004          5494430.0000000000
  0.16710000000000003          5207696.0000000000
  0.16820000000000002          4885676.5000000000
  0.16930000000000001          4531710.0000000000
  0.17040000000000000          4149458.2500000000
  0.17150000000000004          3742852.0000000000
  0.17260000000000003          3315931.0000000000
  0.17370000000000002          2872865.7500000000
  0.17480000000000001          2417797.7500000000
  0.17590000000000000          1954822.0000000000
  0.17700000000000005          1487920.0000000000
  0.17810000000000004          1020943.1875000000
  0.17920000000000003          557459.37500000000
  0.18030000000000002          100814.15625000000
  0.18140000000000001         -345990.28125000000
  0.18250000000000000         -780214.06250000000
  0.18360000000000004         -1199527.5000000000
  0.18470000000000003         -1601973.5000000000
  0.18580000000000002         -1985998.1250000000
  0.18690000000000001         -2350419.7500000000
  0.18800000000000000         -2694341.5000000000
  0.18910000000000005         -3017144.5000000000
  0.19020000000000004         -3318446.7500000000
  0.19130000000000003         -3598102.0000000000
  0.19240000000000002         -3856190.7500000000
  0.19350000000000001         -4092978.0000000000
  0.19460000000000005         -4308876.0000000000
  0.19570000000000004         -4504329.0000000000
  0.19680000000000003         -4679790.0000000000
  0.19790000000000002         -4835692.0000000000
  0.19900000000000001         -4972436.5000000000
  0.20010000000000000         -5090359.0000000000
  0.20120000000000005         -5189702.0000000000
  0.20230000000000004         -5270565.0000000000
  0.20340000000000003         -5332907.5000000000
  0.20450000000000002         -5376594.0000000000
  0.20560000000000000         -5401401.0000000000
  0.20670000000000005         -5407038.5000000000
  0.20780000000000004         -5393129.5000000000
  0.20890000000000003         -5359231.5000000000
