 -0.12000000000000000          0.0000000000000000
 -0.11889999999999999          0.0000000000000000
 -0.11780000000000000          0.0000000000000000
 -0.11670000000000000          0.0000000000000000
 -0.11559999999999999         -1.2872657606521898E-008
 -0.11449999999999999         -3.8943866798035742E-008
 -0.11340000000000000          5.3619499951196303E-009
 -0.11230000000000000          2.1005033090659708E-007
 -0.11119999999999999          3.3718404779392586E-007
 -0.11009999999999999         -2.6690111099014757E-007
 -0.10900000000000000         -1.7704977608445915E-006
 -0.10790000000000000         -2.4930457129812567E-006
 -0.10679999999999999          5.7413797094341135E-007
 -0.10569999999999999          7.8137454693205655E-006
 -0.10460000000000000          1.2725460692308843E-005
 -0.10349999999999999          4.4163680286146700E-006
 -0.10239999999999999         -2.0291830878704786E-005
 -0.10130000000000000         -4.4594817154575139E-005
 -0.10020000000000000         -3.6724595702253282E-005
  -9.9099999999999994E-002     2.1243597075226717E-005
  -9.7999999999999990E-002     1.0133143950952217E-004
  -9.6899999999999986E-002     1.3178140216041356E-004
  -9.5799999999999996E-002     5.0523613026598468E-005
  -9.4699999999999993E-002    -1.2394234363455325E-004
  -9.3599999999999989E-002    -2.7341596432961524E-004
  -9.2499999999999999E-002    -2.5409465888515115E-004
  -9.1399999999999995E-002    -2.2376201741280966E-005
  -9.0299999999999991E-002     2.9547631856985390E-004
  -8.9200000000000002E-002     4.7180359251797199E-004
  -8.8099999999999984E-002     3.5106259747408330E-004
  -8.6999999999999994E-002    -1.1615863513725344E-005
  -8.5899999999999990E-002    -3.7644605617970228E-004
  -8.4799999999999986E-002    -5.0268339691683650E-004
  -8.3699999999999997E-002    -3.3762597013264894E-004
  -8.2599999999999993E-002    -4.5024597056908533E-005
  -8.1499999999999989E-002     1.5069603978190571E-004
  -8.0399999999999999E-002     1.5887799963820726E-004
  -7.9299999999999995E-002     7.7690732723567635E-005
  -7.8199999999999992E-002     7.0156398578546941E-005
  -7.7100000000000002E-002     1.9475519366096705E-004
  -7.5999999999999984E-002     3.5911024315282702E-004
  -7.4899999999999994E-002     4.2909223702736199E-004
  -7.3799999999999991E-002     3.6325652035884559E-004
  -7.2699999999999987E-002     2.2579685901291668E-004
  -7.1599999999999997E-002     7.5226773333270103E-005
  -7.0499999999999993E-002    -1.3076358300168067E-004
  -6.9399999999999989E-002    -4.9538916209712625E-004
  -6.8300000000000000E-002    -1.0564852273091674E-003
  -6.7199999999999996E-002    -1.7450512386858463E-003
  -6.6099999999999992E-002    -2.5214024353772402E-003
  -6.5000000000000002E-002    -3.5672357771545649E-003
  -6.3899999999999985E-002    -5.2969087846577168E-003
  -6.2799999999999995E-002    -8.0913202837109566E-003
  -6.1699999999999991E-002    -1.1940617114305496E-002
  -6.0599999999999994E-002    -1.6320049762725830E-002
  -5.9499999999999990E-002    -2.0451053977012634E-002
  -5.8399999999999994E-002    -2.3765012621879578E-002
  -5.7299999999999990E-002    -2.6217985898256302E-002
  -5.6199999999999986E-002    -2.8269885107874870E-002
  -5.5099999999999996E-002    -3.0664777383208275E-002
  -5.3999999999999992E-002    -3.4287773072719574E-002
  -5.2899999999999989E-002    -4.0186397731304169E-002
  -5.1799999999999985E-002    -4.9557544291019440E-002
  -5.0699999999999995E-002    -6.3468486070632935E-002
  -4.9599999999999991E-002    -8.2385495305061340E-002
  -4.8499999999999988E-002   -0.10591064393520355
  -4.7399999999999998E-002   -0.13307811319828033
  -4.6299999999999994E-002   -0.16311089694499969
  -4.5199999999999990E-002   -0.19609656929969788
  -4.4099999999999986E-002   -0.23307983577251434
  -4.2999999999999997E-002   -0.27559211850166321
  -4.1899999999999993E-002   -0.32514077425003052
  -4.0799999999999989E-002   -0.38315361738204956
  -3.9699999999999985E-002   -0.45133775472640991
  -3.8599999999999995E-002   -0.53190672397613525
  -3.7499999999999992E-002   -0.62724566459655762
  -3.6399999999999988E-002   -0.73920261859893799
  -3.5299999999999984E-002   -0.86870813369750977
  -3.4199999999999994E-002    -1.0162256956100464
  -3.3099999999999991E-002    -1.1827785968780518
  -3.1999999999999987E-002    -1.3706989288330078
  -3.0899999999999997E-002    -1.5834381580352783
  -2.9799999999999993E-002    -1.8245997428894043
  -2.8699999999999989E-002    -2.0970513820648193
  -2.7599999999999986E-002    -2.4027731418609619
  -2.6499999999999996E-002    -2.7433724403381348
  -2.5399999999999992E-002    -3.1205425262451172
  -2.4299999999999988E-002    -3.5359504222869873
  -2.3199999999999985E-002    -3.9907813072204590
  -2.2099999999999995E-002    -4.4855861663818359
  -2.0999999999999991E-002    -5.0208053588867188
  -1.9899999999999987E-002    -5.5973787307739258
  -1.8799999999999983E-002    -6.2166948318481445
  -1.7699999999999994E-002    -6.8795318603515625
  -1.6599999999999990E-002    -7.5847258567810059
  -1.5499999999999986E-002    -8.3287277221679688
  -1.4399999999999996E-002    -9.1062650680541992
  -1.3299999999999992E-002    -9.9114522933959961
  -1.2199999999999989E-002    -10.738202095031738
  -1.1099999999999985E-002    -11.579501152038574
  -9.9999999999999950E-003    -12.426013946533203
  -8.8999999999999913E-003    -13.266015052795410
  -7.7999999999999875E-003    -14.086014747619629
  -6.6999999999999837E-003    -14.871977806091309
  -5.5999999999999939E-003    -15.609720230102539
  -4.4999999999999901E-003    -16.283885955810547
  -3.3999999999999864E-003    -16.876625061035156
  -2.2999999999999826E-003    -17.367517471313477
  -1.1999999999999927E-003    -17.734359741210938
  -9.9999999999988987E-005    -17.955144882202148
   1.0000000000000148E-003    -18.008340835571289
   2.1000000000000185E-003    -17.873235702514648
   3.2000000000000084E-003    -17.529026031494141
   4.3000000000000121E-003    -16.955123901367188
   5.4000000000000159E-003    -16.132524490356445
   6.5000000000000058E-003    -15.045257568359375
   7.6000000000000234E-003    -13.681089401245117
   8.7000000000000133E-003    -12.030875205993652
   9.8000000000000032E-003    -10.087996482849121
   1.0900000000000021E-002    -7.8497729301452637
   1.2000000000000011E-002    -5.3184871673583984
   1.3100000000000001E-002    -2.5029575824737549
   1.4200000000000018E-002    0.58112365007400513
   1.5300000000000008E-002     3.9110846519470215
   1.6400000000000026E-002     7.4588155746459961
   1.7500000000000016E-002     11.189743995666504
   1.8600000000000005E-002     15.061494827270508
   1.9700000000000023E-002     19.024351119995117
   2.0800000000000013E-002     23.021621704101562
   2.1900000000000003E-002     26.991470336914062
   2.3000000000000020E-002     30.868198394775391
   2.4100000000000010E-002     34.582553863525391
   2.5200000000000000E-002     38.061702728271484
   2.6300000000000018E-002     41.230319976806641
   2.7400000000000008E-002     44.011947631835938
   2.8500000000000025E-002     46.332878112792969
   2.9600000000000015E-002     48.123779296875000
   3.0700000000000005E-002     49.319492340087891
   3.1800000000000023E-002     49.861564636230469
   3.2900000000000013E-002     49.698627471923828
   3.4000000000000002E-002     48.789756774902344
   3.5100000000000020E-002     47.107719421386719
   3.6200000000000010E-002     44.640010833740234
   3.7300000000000028E-002     41.389968872070312
   3.8400000000000017E-002     37.376037597656250
   3.9500000000000007E-002     32.632278442382812
   4.0600000000000025E-002     27.210195541381836
   4.1700000000000015E-002     21.180635452270508
   4.2800000000000005E-002     14.632960319519043
   4.3900000000000022E-002     7.6734390258789062
   4.5000000000000012E-002    0.42276841402053833
   4.6100000000000002E-002    -6.9859251976013184
   4.7200000000000020E-002    -14.407648086547852
   4.8300000000000010E-002    -21.686866760253906
   4.9400000000000027E-002    -28.660306930541992
   5.0500000000000017E-002    -35.161437988281250
   5.1600000000000007E-002    -41.024814605712891
   5.2700000000000025E-002    -46.090492248535156
   5.3800000000000014E-002    -50.206390380859375
   5.4900000000000004E-002    -53.231266021728516
   5.6000000000000022E-002    -55.038227081298828
   5.7100000000000012E-002    -55.519458770751953
   5.8200000000000002E-002    -54.590473175048828
   5.9300000000000019E-002    -52.193244934082031
   6.0400000000000009E-002    -48.297401428222656
   6.1500000000000027E-002    -42.902606964111328
   6.2600000000000017E-002    -36.040027618408203
   6.3700000000000007E-002    -27.773536682128906
   6.4800000000000024E-002    -18.200691223144531
   6.5900000000000014E-002    -7.4508810043334961
   6.7000000000000004E-002     4.3164482116699219
   6.8100000000000022E-002     16.914157867431641
   6.9200000000000012E-002     30.128705978393555
   7.0300000000000029E-002     43.723766326904297
   7.1400000000000019E-002     57.443664550781250
   7.2500000000000009E-002     71.020866394042969
   7.3600000000000027E-002     84.180870056152344
   7.4700000000000016E-002     96.647911071777344
   7.5800000000000006E-002     108.14897155761719
   7.6900000000000024E-002     118.41929626464844
   7.8000000000000014E-002     127.20808410644531
   7.9100000000000004E-002     134.28652954101562
   8.0200000000000021E-002     139.45405578613281
   8.1300000000000011E-002     142.54223632812500
   8.2400000000000029E-002     143.41636657714844
   8.3500000000000019E-002     141.97918701171875
   8.4600000000000009E-002     138.17323303222656
   8.5700000000000026E-002     131.98616027832031
   8.6800000000000016E-002     123.45267486572266
   8.7900000000000006E-002     112.65333557128906
   8.9000000000000024E-002     99.712112426757812
   9.0100000000000013E-002     84.792060852050781
   9.1200000000000003E-002     68.093139648437500
   9.2300000000000021E-002     49.850795745849609
   9.3400000000000011E-002     30.333837509155273
   9.4500000000000028E-002     9.8381757736206055
   9.5600000000000018E-002    -11.320699691772461
   9.6700000000000008E-002    -32.815387725830078
   9.7800000000000026E-002    -54.312995910644531
   9.8900000000000016E-002    -75.479148864746094
  0.10000000000000001         -95.984176635742188
  0.10110000000000002         -115.50955963134766
  0.10220000000000001         -133.75451660156250
  0.10330000000000003         -150.44412231445312
  0.10440000000000002         -165.33245849609375
  0.10550000000000001         -178.20835876464844
  0.10660000000000003         -188.89573669433594
  0.10770000000000002         -197.25703430175781
  0.10880000000000001         -203.19546508789062
  0.10990000000000003         -206.65698242187500
  0.11100000000000002         -207.63163757324219
  0.11210000000000001         -206.14991760253906
  0.11320000000000002         -202.28298950195312
  0.11430000000000001         -196.14057922363281
  0.11540000000000003         -187.86395263671875
  0.11650000000000002         -177.62712097167969
  0.11760000000000001         -165.63053894042969
  0.11870000000000003         -152.09335327148438
  0.11980000000000002         -137.25363159179688
  0.12090000000000001         -121.36205291748047
  0.12200000000000003         -104.67739868164062
  0.12310000000000001         -87.460289001464844
  0.12420000000000003         -69.966751098632812
  0.12530000000000002         -52.443058013916016
  0.12640000000000001         -35.125213623046875
  0.12750000000000003         -18.235141754150391
  0.12860000000000002         -1.9794915914535522
  0.12970000000000001          13.455947875976562
  0.13080000000000003          27.912160873413086
  0.13190000000000002          41.256053924560547
  0.13300000000000001          53.381805419921875
  0.13410000000000000          64.206451416015625
  0.13520000000000004          73.669075012207031
  0.13630000000000003          81.733085632324219
  0.13740000000000002          88.388191223144531
  0.13850000000000001          93.650009155273438
  0.13960000000000000          97.554466247558594
  0.14070000000000005          100.15432739257812
  0.14180000000000004          101.51524353027344
  0.14290000000000003          101.71544647216797
  0.14400000000000002          100.84569549560547
  0.14510000000000001          99.008239746093750
  0.14620000000000000          96.312660217285156
  0.14730000000000004          92.870796203613281
  0.14840000000000003          88.793525695800781
  0.14950000000000002          84.189506530761719
  0.15060000000000001          79.165252685546875
  0.15170000000000000          73.825294494628906
  0.15280000000000005          68.269157409667969
  0.15390000000000004          62.589782714843750
  0.15500000000000003          56.871044158935547
  0.15610000000000002          51.187824249267578
  0.15720000000000001          45.606075286865234
  0.15830000000000000          40.183582305908203
  0.15940000000000004          34.969215393066406
  0.16050000000000003          30.003469467163086
  0.16160000000000002          25.318132400512695
  0.16270000000000001          20.937215805053711
  0.16380000000000000          16.877624511718750
  0.16490000000000005          13.148901939392090
  0.16600000000000004          9.7539577484130859
  0.16710000000000003          6.6906142234802246
  0.16820000000000002          3.9527149200439453
  0.16930000000000001          1.5319947004318237
  0.17040000000000000        -0.58315807580947876
  0.17150000000000004         -2.4082274436950684
  0.17260000000000003         -3.9622566699981689
  0.17370000000000002         -5.2665224075317383
  0.17480000000000001         -6.3411326408386230
  0.17590000000000000         -7.2046632766723633
  0.17700000000000005         -7.8742394447326660
  0.17810000000000004         -8.3677501678466797
  0.17920000000000003         -8.7051448822021484
  0.18030000000000002         -8.9075479507446289
  0.18140000000000001         -8.9942893981933594
  0.18250000000000000         -8.9810800552368164
  0.18360000000000004         -8.8809061050415039
  0.18470000000000003         -8.7059621810913086
  0.18580000000000002         -8.4703607559204102
  0.18690000000000001         -8.1889982223510742
  0.18800000000000000         -7.8753023147583008
  0.18910000000000005         -7.5390887260437012
  0.19020000000000004         -7.1865582466125488
  0.19130000000000003         -6.8224630355834961
  0.19240000000000002         -6.4526743888854980
  0.19350000000000001         -6.0846824645996094
  0.19460000000000005         -5.7257995605468750
  0.19570000000000004         -5.3810863494873047
  0.19680000000000003         -5.0524568557739258
  0.19790000000000002         -4.7400593757629395
  0.19900000000000001         -4.4440555572509766
  0.20010000000000000         -4.1654443740844727
  0.20120000000000005         -3.9057130813598633
  0.20230000000000004         -3.6653845310211182
  0.20340000000000003         -3.4432718753814697
  0.20450000000000002         -3.2370758056640625
  0.20560000000000000         -3.0442464351654053
  0.20670000000000005         -2.8631386756896973
  0.20780000000000004         -2.6928262710571289
  0.20890000000000003         -2.5329859256744385
