 -0.12000000000000000          0.0000000000000000
 -0.11889999999999999          0.0000000000000000
 -0.11780000000000000          0.0000000000000000
 -0.11670000000000000          0.0000000000000000
 -0.11559999999999999          0.0000000000000000
 -0.11449999999999999          0.0000000000000000
 -0.11340000000000000          0.0000000000000000
 -0.11230000000000000          0.0000000000000000
 -0.11119999999999999          0.0000000000000000
 -0.11009999999999999          0.0000000000000000
 -0.10900000000000000          0.0000000000000000
 -0.10790000000000000         -2.6898080968142868E-037
 -0.10679999999999999          4.7698065267795914E-036
 -0.10569999999999999         -5.4157949702935418E-034
 -0.10460000000000000         -7.4146569923096079E-034
 -0.10349999999999999         -1.3831140201553586E-033
 -0.10239999999999999         -1.0228204392408783E-031
 -0.10130000000000000         -4.7815828211223160E-031
 -0.10020000000000000          1.9354240596105222E-031
  -9.9099999999999994E-002     5.7185430370893030E-030
  -9.7999999999999990E-002     5.0155060088568551E-030
  -9.6899999999999986E-002    -5.9989889058056578E-029
  -9.5799999999999996E-002    -1.7701633786388697E-028
  -9.4699999999999993E-002     1.9107164219034135E-028
  -9.3599999999999989E-002     1.9403520781827852E-027
  -9.2499999999999999E-002     2.8008194439221033E-027
  -9.1399999999999995E-002    -7.7417276198154366E-027
  -9.0299999999999991E-002    -3.5833559803917363E-026
  -8.9200000000000002E-002    -3.1187788451235719E-026
  -8.8099999999999984E-002     1.3967399857115382E-025
  -8.6999999999999994E-002     4.7602884413998323E-025
  -8.5899999999999990E-002     3.1184211460068607E-025
  -8.4799999999999986E-002    -1.6617595571056706E-024
  -8.3699999999999997E-002    -5.0116861845497378E-024
  -8.2599999999999993E-002    -3.2438642787371022E-024
  -8.1499999999999989E-002     1.4519592383489742E-023
  -8.0399999999999999E-002     4.3614702655483966E-023
  -7.9299999999999995E-002     3.3428264848666255E-023
  -7.8199999999999992E-002    -9.6246514597976537E-023
  -7.7100000000000002E-002    -3.1866085491323258E-022
  -7.5999999999999984E-002    -3.0623706558424514E-022
  -7.4899999999999994E-002     4.7275810534235751E-022
  -7.3799999999999991E-002     1.9589111128515372E-021
  -7.2699999999999987E-002     2.3646684468577644E-021
  -7.1599999999999997E-002    -1.4662966843271703E-021
  -7.0499999999999993E-002    -1.0061144001118093E-020
  -6.9399999999999989E-002    -1.5205744545484065E-020
  -6.8300000000000000E-002    -2.8893882268036292E-022
  -6.7199999999999996E-002     4.2316401713802015E-020
  -6.6099999999999992E-002     8.1467777759428866E-020
  -6.5000000000000002E-002     4.0462460547697668E-020
  -6.3899999999999985E-002    -1.3829789050108631E-019
  -6.2799999999999995E-002    -3.6327639928312237E-019
  -6.1699999999999991E-002    -3.2728173832545394E-019
  -6.0599999999999994E-002     2.9283382756507725E-019
  -5.9499999999999990E-002     1.3333288104590454E-018
  -5.8399999999999994E-002     1.7450644744046388E-018
  -5.7299999999999990E-002     6.3938890001241088E-020
  -5.6199999999999986E-002    -3.8883523072560875E-018
  -5.5099999999999996E-002    -7.1556499659818489E-018
  -5.3999999999999992E-002    -4.2230527441521940E-018
  -5.2899999999999989E-002     8.0485517325634397E-018
  -5.1799999999999985E-002     2.3345434055661620E-017
  -5.0699999999999995E-002     2.4304975146751708E-017
  -4.9599999999999991E-002    -5.6681277617052890E-018
  -4.8499999999999988E-002    -5.9556792345581179E-017
  -4.7399999999999998E-002    -9.2389126105027746E-017
  -4.6299999999999994E-002    -4.2299902252316150E-017
  -4.5199999999999990E-002     1.0721852895930281E-016
  -4.4099999999999986E-002     2.6554874649160421E-016
  -4.2999999999999997E-002     2.5106607128033177E-016
  -4.1899999999999993E-002    -6.8432268264707755E-017
  -4.0799999999999989E-002    -5.7813047968716114E-016
  -3.9699999999999985E-002    -8.5091262285052105E-016
  -3.8599999999999995E-002    -3.9380639595551156E-016
  -3.7499999999999992E-002     8.4390024883843951E-016
  -3.6399999999999988E-002     2.0890638275928826E-015
  -3.5299999999999984E-002     2.0086213203503785E-015
  -3.4199999999999994E-002    -2.3014308693372967E-016
  -3.3099999999999991E-002    -3.7339414600632420E-015
  -3.1999999999999987E-002    -5.7111895270802685E-015
  -3.0899999999999997E-002    -3.1955624483489620E-015
  -2.9799999999999993E-002     4.0055163165789685E-015
  -2.8699999999999989E-002     1.1493530668762846E-014
  -2.7599999999999986E-002     1.2105794035125513E-014
  -2.6499999999999996E-002     1.5212433270605824E-015
  -2.5399999999999992E-002    -1.6003383107631233E-014
  -2.4299999999999988E-002    -2.7418829197118494E-014
  -2.3199999999999985E-002    -1.9126198766579970E-014
  -2.2099999999999995E-002     1.0350070918320377E-014
  -2.0999999999999991E-002     4.3491736769060360E-014
  -1.9899999999999987E-002     5.1877959258072801E-014
  -1.8799999999999983E-002     1.7923637292242833E-014
  -1.7699999999999994E-002    -4.4641445081554723E-014
  -1.6599999999999990E-002    -9.1235578933337308E-014
  -1.5499999999999986E-002    -7.5385024286313274E-014
  -1.4399999999999996E-002     1.0129943148954983E-014
  -1.3299999999999992E-002     1.1346917058296241E-013
  -1.2199999999999989E-002     1.5068762210246334E-013
  -1.1099999999999985E-002     7.0314420789769488E-014
  -9.9999999999999950E-003    -9.1097966572594585E-014
  -8.8999999999999913E-003    -2.1557840961580060E-013
  -7.7999999999999875E-003    -1.8523217356659905E-013
  -6.6999999999999837E-003     1.2957618647762431E-014
  -5.5999999999999939E-003     2.4681550748507919E-013
  -4.4999999999999901E-003     3.1762748898059301E-013
  -3.3999999999999864E-003     1.2001264240203702E-013
  -2.2999999999999826E-003    -2.3839982180202945E-013
  -1.1999999999999927E-003    -4.7580933333971065E-013
  -9.9999999999988987E-005    -3.4159510615104638E-013
   1.0000000000000148E-003     1.5048919955237133E-013
   2.1000000000000185E-003     6.6119787596463642E-013
   3.2000000000000084E-003     7.3632750287669357E-013
   4.3000000000000121E-003     1.7495887009132127E-013
   5.4000000000000159E-003    -7.2524977559954018E-013
   6.5000000000000058E-003    -1.2894648456635016E-012
   7.6000000000000234E-003    -9.4113866005995916E-013
   8.7000000000000133E-003     2.8659914068709935E-013
   9.8000000000000032E-003     1.6261414957641218E-012
   1.0900000000000021E-002     2.0303318488262834E-012
   1.2000000000000011E-002     9.5928408445911106E-013
   1.3100000000000001E-002    -1.0758726808751673E-012
   1.4200000000000018E-002    -2.7052372928576540E-012
   1.5300000000000008E-002    -2.6174574660475791E-012
   1.6400000000000026E-002    -5.9984932602660801E-013
   1.7500000000000016E-002     2.1111190053046958E-012
   1.8600000000000005E-002     3.5690183447512069E-012
   1.9700000000000023E-002     2.5366416866318131E-012
   2.0800000000000013E-002    -4.4176449065687351E-013
   2.1900000000000003E-002    -3.2314962337964825E-012
   2.3000000000000020E-002    -3.6049624656947499E-012
   2.4100000000000010E-002    -1.0356133268649148E-012
   2.5200000000000000E-002     2.6279267390655336E-012
   2.6300000000000018E-002     4.3409568474539473E-012
   2.7400000000000008E-002     2.2305373693909392E-012
   2.8500000000000025E-002    -2.6032017253624362E-012
   2.9600000000000015E-002    -6.4451118053643341E-012
   3.0700000000000005E-002    -5.5774959303867000E-012
   3.1800000000000023E-002     5.9375480877463249E-013
   3.2900000000000013E-002     8.3702220501913338E-012
   3.4000000000000002E-002     1.1861085898179358E-011
   3.5100000000000020E-002     7.2443622281537223E-012
   3.6200000000000010E-002    -3.8411088545964311E-012
   3.7300000000000028E-002    -1.4594291053438013E-011
   3.8400000000000017E-002    -1.7365463234053635E-011
   3.9500000000000007E-002    -9.1967145704474618E-012
   4.0600000000000025E-002     5.5154427032466646E-012
   4.1700000000000015E-002     1.7572896263140514E-011
   4.2800000000000005E-002     1.9265537082313600E-011
   4.3900000000000022E-002     9.8767556633294618E-012
   4.5000000000000012E-002    -3.8536504716468745E-012
   4.6100000000000002E-002    -1.2872972653121817E-011
   4.7200000000000020E-002    -1.2674720648031546E-011
   4.8300000000000010E-002    -6.3634045949223506E-012
   4.9400000000000027E-002    -1.2639582306142594E-012
   5.0500000000000017E-002    -1.7893456898468441E-012
   5.1600000000000007E-002    -4.8478621290926061E-012
   5.2700000000000025E-002    -2.4841530742170104E-012
   5.3800000000000014E-002     9.6411932257178812E-012
   5.4900000000000004E-002     2.5209638196410644E-011
   5.6000000000000022E-002     2.9238611531923198E-011
   5.7100000000000012E-002     1.0023966899586068E-011
   5.8200000000000002E-002    -2.7293231910641147E-011
   5.9300000000000019E-002    -5.7964057165182936E-011
   6.0400000000000009E-002    -5.2117067605994549E-011
   6.1500000000000027E-002     5.1874086623437954E-013
   6.2600000000000017E-002     7.3917282017443853E-011
   6.3700000000000007E-002     1.1420152323804444E-010
   6.4800000000000024E-002     7.4438316621794343E-011
   6.5900000000000014E-002    -4.4448267982888368E-011
   6.7000000000000004E-002    -1.7782397776500147E-010
   6.8100000000000022E-002    -2.2671305111021667E-010
   6.9200000000000012E-002    -1.2275236382919275E-010
   7.0300000000000029E-002     1.1087260276543276E-010
   7.1400000000000019E-002     3.4929284464801924E-010
   7.2500000000000009E-002     4.2716619130800382E-010
   7.3600000000000027E-002     2.4438526202708033E-010
   7.4700000000000016E-002    -1.4862272523785691E-010
   7.5800000000000006E-002    -5.5008747557039328E-010
   7.6900000000000024E-002    -7.0820299624685390E-010
   7.8000000000000014E-002    -4.7496562238791284E-010
   7.9100000000000004E-002     8.1223409942321467E-011
   8.0200000000000021E-002     6.8478273052008376E-010
   8.1300000000000011E-002     9.9484565030394378E-010
   8.2400000000000029E-002     8.0451117989710497E-010
   8.3500000000000019E-002     1.7610354841046671E-010
   8.4600000000000009E-002    -5.7914173456907747E-010
   8.5700000000000026E-002    -1.0751189938318362E-009
   8.6800000000000016E-002    -1.0763282487502579E-009
   8.7900000000000006E-002    -6.3193711374864847E-010
   8.9000000000000024E-002    -2.7460677828883284E-011
   9.0100000000000013E-002     4.1961448205007912E-010
   9.1200000000000003E-002     5.8493410115545430E-010
   9.2300000000000021E-002     6.2195476546733630E-010
   9.3400000000000011E-002     8.2829165748421474E-010
   9.4500000000000028E-002     1.3632611706171360E-009
   9.5600000000000018E-002     2.0052259852576526E-009
   9.6700000000000008E-002     2.1442052577924642E-009
   9.7800000000000026E-002     1.0801757266420964E-009
   9.8900000000000016E-002    -1.4957198812837191E-009
  0.10000000000000001         -5.1061905814719921E-009
  0.10110000000000002         -8.4485414220125676E-009
  0.10220000000000001         -9.8150065852564694E-009
  0.10330000000000003         -7.8244033474561547E-009
  0.10440000000000002         -2.1189969778845352E-009
  0.10550000000000001          6.3397633809358922E-009
  0.10660000000000003          1.5554896037883736E-008
  0.10770000000000002          2.3227876511100476E-008
  0.10880000000000001          2.7555348225405396E-008
  0.10990000000000003          2.7646047229268333E-008
  0.11100000000000002          2.3314093766657606E-008
  0.11210000000000001          1.4360558076020880E-008
  0.11320000000000002         -2.3135024451725883E-010
  0.11430000000000001         -2.2685620493234637E-008
  0.11540000000000003         -5.6137668735800617E-008
  0.11650000000000002         -1.0381408799275960E-007
  0.11760000000000001         -1.6822905024582724E-007
  0.11870000000000003         -2.5101854816966807E-007
  0.11980000000000002         -3.5371823514651624E-007
  0.12090000000000001         -4.7922259227561881E-007
  0.12200000000000003         -6.3317389731309959E-007
  0.12310000000000001         -8.2445160387578653E-007
  0.12420000000000003         -1.0643931318554678E-006
  0.12530000000000002         -1.3651765584654640E-006
  0.12640000000000001         -1.7384689954269561E-006
  0.12750000000000003         -2.1955418105790159E-006
  0.12860000000000002         -2.7493942980072461E-006
  0.12970000000000001         -3.4183178740931908E-006
  0.13080000000000003         -4.2293713704566471E-006
  0.13190000000000002         -5.2200816753611434E-006
  0.13300000000000001         -6.4375271904282272E-006
  0.13410000000000000         -7.9354276749654673E-006
  0.13520000000000004         -9.7711526905186474E-006
  0.13630000000000003         -1.2004861673631240E-005
  0.13740000000000002         -1.4701994587085210E-005
  0.13850000000000001         -1.7938622477231547E-005
  0.13960000000000000         -2.1807605662615970E-005
  0.14070000000000005         -2.6423138479003683E-005
  0.14180000000000004         -3.1922299967845902E-005
  0.14290000000000003         -3.8464128010673448E-005
  0.14400000000000002         -4.6228266000980511E-005
  0.14510000000000001         -5.5415523092960939E-005
  0.14620000000000000         -6.6251501266378909E-005
  0.14730000000000004         -7.8992306953296065E-005
  0.14840000000000003         -9.3930080765858293E-005
  0.14950000000000002         -1.1139595881104469E-004
  0.15060000000000001         -1.3175979256629944E-004
  0.15170000000000000         -1.5542833716608584E-004
  0.15280000000000005         -1.8284482939634472E-004
  0.15390000000000004         -2.1449208725243807E-004
  0.15500000000000003         -2.5089949485845864E-004
  0.15610000000000002         -2.9265118064358830E-004
  0.15720000000000001         -3.4039129968732595E-004
  0.15830000000000000         -3.9482355350628495E-004
  0.15940000000000004         -4.5670464169234037E-004
  0.16050000000000003         -5.2683468675240874E-004
  0.16160000000000002         -6.0604861937463284E-004
  0.16270000000000001         -6.9521274417638779E-004
  0.16380000000000000         -7.9522491432726383E-004
  0.16490000000000005         -9.0701546287164092E-004
  0.16600000000000004         -1.0315441759303212E-003
  0.16710000000000003         -1.1697888839989901E-003
  0.16820000000000002         -1.3227278832346201E-003
  0.16930000000000001         -1.4913170598447323E-003
  0.17040000000000000         -1.6764702741056681E-003
  0.17150000000000004         -1.8790425965562463E-003
  0.17260000000000003         -2.0998178515583277E-003
  0.17370000000000002         -2.3394948802888393E-003
  0.17480000000000001         -2.5986672844737768E-003
  0.17590000000000000         -2.8777956031262875E-003
  0.17700000000000005         -3.1771708745509386E-003
  0.17810000000000004         -3.4968773834407330E-003
  0.17920000000000003         -3.8367563392966986E-003
  0.18030000000000002         -4.1963811963796616E-003
  0.18140000000000001         -4.5750355347990990E-003
  0.18250000000000000         -4.9716974608600140E-003
  0.18360000000000004         -5.3850258700549603E-003
  0.18470000000000003         -5.8133355341851711E-003
  0.18580000000000002         -6.2545710243284702E-003
  0.18690000000000001         -6.7062810994684696E-003
  0.18800000000000000         -7.1655986830592155E-003
  0.18910000000000005         -7.6292394660413265E-003
  0.19020000000000004         -8.0935023725032806E-003
  0.19130000000000003         -8.5542844608426094E-003
  0.19240000000000002         -9.0070972219109535E-003
  0.19350000000000001         -9.4470838084816933E-003
  0.19460000000000005         -9.8690586164593697E-003
  0.19570000000000004         -1.0267541743814945E-002
  0.19680000000000003         -1.0636803694069386E-002
  0.19790000000000002         -1.0970919393002987E-002
  0.19900000000000001         -1.1263838969171047E-002
  0.20010000000000000         -1.1509460397064686E-002
  0.20120000000000005         -1.1701713316142559E-002
  0.20230000000000004         -1.1834644712507725E-002
  0.20340000000000003         -1.1902493424713612E-002
  0.20450000000000002         -1.1899774894118309E-002
  0.20560000000000000         -1.1821387335658073E-002
  0.20670000000000005         -1.1662710458040237E-002
  0.20780000000000004         -1.1419720016419888E-002
  0.20890000000000003         -1.1089086532592773E-002
