 -0.12000000000000000          0.0000000000000000
 -0.11889999999999999          0.0000000000000000
 -0.11780000000000000          0.0000000000000000
 -0.11670000000000000          2.0388479526900483E-007
 -0.11559999999999999          9.8483133115223609E-007
 -0.11449999999999999          2.0203353869874263E-006
 -0.11340000000000000          1.0174164799536811E-006
 -0.11230000000000000         -5.7222782743338030E-006
 -0.11119999999999999         -1.8752465621219017E-005
 -0.11009999999999999         -2.9235376132419333E-005
 -0.10900000000000000         -1.9040719053009525E-005
 -0.10790000000000000          2.5904222638928331E-005
 -0.10679999999999999          9.4458162493538111E-005
 -0.10569999999999999          1.4129844203125685E-004
 -0.10460000000000000          1.0885148367378861E-004
 -0.10349999999999999         -2.5907138478942215E-005
 -0.10239999999999999         -2.1582981571555138E-004
 -0.10130000000000000         -3.5767306690104306E-004
 -0.10020000000000000         -3.5617142566479743E-004
  -9.9099999999999994E-002    -1.8915458349511027E-004
  -9.7999999999999990E-002     8.3881997852586210E-005
  -9.6899999999999986E-002     3.7587844417430460E-004
  -9.5799999999999996E-002     6.2856840668246150E-004
  -9.4699999999999993E-002     8.0356642138212919E-004
  -9.3599999999999989E-002     8.1653136294335127E-004
  -9.2499999999999999E-002     5.1131419604644179E-004
  -9.1399999999999995E-002    -2.3549108300358057E-004
  -9.0299999999999991E-002    -1.3184394920244813E-003
  -8.9200000000000002E-002    -2.2963790688663721E-003
  -8.8099999999999984E-002    -2.5481435004621744E-003
  -8.6999999999999994E-002    -1.6623382689431310E-003
  -8.5899999999999990E-002     2.0728613890241832E-004
  -8.4799999999999986E-002     2.3292105179280043E-003
  -8.3699999999999997E-002     3.7869384977966547E-003
  -8.2599999999999993E-002     3.9988420903682709E-003
  -8.1499999999999989E-002     2.9686589259654284E-003
  -8.0399999999999999E-002     1.1124206939712167E-003
  -7.9299999999999995E-002    -1.1026416905224323E-003
  -7.8199999999999992E-002    -3.3206518273800611E-003
  -7.7100000000000002E-002    -5.1356269977986813E-003
  -7.5999999999999984E-002    -5.9002870693802834E-003
  -7.4899999999999994E-002    -4.9144416116178036E-003
  -7.3799999999999991E-002    -2.0194256212562323E-003
  -7.2699999999999987E-002     1.9163927063345909E-003
  -7.1599999999999997E-002     5.2427584305405617E-003
  -7.0499999999999993E-002     6.5563875250518322E-003
  -6.9399999999999989E-002     5.7697398588061333E-003
  -6.8300000000000000E-002     4.2418865486979485E-003
  -6.7199999999999996E-002     3.6862199194729328E-003
  -6.6099999999999992E-002     4.6712597832083702E-003
  -6.5000000000000002E-002     6.0275034047663212E-003
  -6.3899999999999985E-002     5.8007519692182541E-003
  -6.2799999999999995E-002     3.0533997341990471E-003
  -6.1699999999999991E-002    -9.9939573556184769E-004
  -6.0599999999999994E-002    -3.5314594861119986E-003
  -5.9499999999999990E-002    -1.9234191859140992E-003
  -5.8399999999999994E-002     4.6021547168493271E-003
  -5.7299999999999990E-002     1.4738045632839203E-002
  -5.6199999999999986E-002     2.6174603030085564E-002
  -5.5099999999999996E-002     3.6880329251289368E-002
  -5.3999999999999992E-002     4.5595854520797729E-002
  -5.2899999999999989E-002     5.1630061119794846E-002
  -5.1799999999999985E-002     5.4840520024299622E-002
  -5.0699999999999995E-002     5.6291498243808746E-002
  -4.9599999999999991E-002     5.8928426355123520E-002
  -4.8499999999999988E-002     6.7043393850326538E-002
  -4.7399999999999998E-002     8.4181465208530426E-002
  -4.6299999999999994E-002    0.11078603565692902
  -4.5199999999999990E-002    0.14363674819469452
  -4.4099999999999986E-002    0.17797048389911652
  -4.2999999999999997E-002    0.21094231307506561
  -4.1899999999999993E-002    0.24376578629016876
  -4.0799999999999989E-002    0.28084740042686462
  -3.9699999999999985E-002    0.32675018906593323
  -3.8599999999999995E-002    0.38359877467155457
  -3.7499999999999992E-002    0.45100626349449158
  -3.6399999999999988E-002    0.52816742658615112
  -3.5299999999999984E-002    0.61591160297393799
  -3.4199999999999994E-002    0.71673464775085449
  -3.3099999999999991E-002    0.83307707309722900
  -3.1999999999999987E-002    0.96584349870681763
  -3.0899999999999997E-002     1.1148604154586792
  -2.9799999999999993E-002     1.2807599306106567
  -2.8699999999999989E-002     1.4662052392959595
  -2.7599999999999986E-002     1.6748374700546265
  -2.6499999999999996E-002     1.9086792469024658
  -2.5399999999999992E-002     2.1665167808532715
  -2.4299999999999988E-002     2.4451177120208740
  -2.3199999999999985E-002     2.7424843311309814
  -2.2099999999999995E-002     3.0603542327880859
  -2.0999999999999991E-002     3.4036302566528320
  -1.9899999999999987E-002     3.7768957614898682
  -1.8799999999999983E-002     4.1807780265808105
  -1.7699999999999994E-002     4.6108770370483398
  -1.6599999999999990E-002     5.0594873428344727
  -1.5499999999999986E-002     5.5184020996093750
  -1.4399999999999996E-002     5.9805731773376465
  -1.3299999999999992E-002     6.4396982192993164
  -1.2199999999999989E-002     6.8894648551940918
  -1.1099999999999985E-002     7.3227748870849609
  -9.9999999999999950E-003     7.7318081855773926
  -8.8999999999999913E-003     8.1076250076293945
  -7.7999999999999875E-003     8.4382295608520508
  -6.6999999999999837E-003     8.7069835662841797
  -5.5999999999999939E-003     8.8920755386352539
  -4.4999999999999901E-003     8.9684877395629883
  -3.3999999999999864E-003     8.9111166000366211
  -2.2999999999999826E-003     8.6967163085937500
  -1.1999999999999927E-003     8.3032083511352539
  -9.9999999999988987E-005     7.7075834274291992
   1.0000000000000148E-003     6.8837251663208008
   2.1000000000000185E-003     5.8026084899902344
   3.2000000000000084E-003     4.4334836006164551
   4.3000000000000121E-003     2.7460167407989502
   5.4000000000000159E-003    0.71135836839675903
   6.5000000000000058E-003    -1.6974083185195923
   7.6000000000000234E-003    -4.5046248435974121
   8.7000000000000133E-003    -7.7307581901550293
   9.8000000000000032E-003    -11.391533851623535
   1.0900000000000021E-002    -15.499025344848633
   1.2000000000000011E-002    -20.061067581176758
   1.3100000000000001E-002    -25.081508636474609
   1.4200000000000018E-002    -30.557741165161133
   1.5300000000000008E-002    -36.476699829101562
   1.6400000000000026E-002    -42.812015533447266
   1.7500000000000016E-002    -49.523742675781250
   1.8600000000000005E-002    -56.559841156005859
   1.9700000000000023E-002    -63.858341217041016
   2.0800000000000013E-002    -71.346427917480469
   2.1900000000000003E-002    -78.940467834472656
   2.3000000000000020E-002    -86.543754577636719
   2.4100000000000010E-002    -94.047874450683594
   2.5200000000000000E-002    -101.33148956298828
   2.6300000000000018E-002    -108.26197052001953
   2.7400000000000008E-002    -114.69329071044922
   2.8500000000000025E-002    -120.46731567382812
   2.9600000000000015E-002    -125.41500091552734
   3.0700000000000005E-002    -129.36337280273438
   3.1800000000000023E-002    -132.14036560058594
   3.2900000000000013E-002    -133.57952880859375
   3.4000000000000002E-002    -133.51870727539062
   3.5100000000000020E-002    -131.80053710937500
   3.6200000000000010E-002    -128.27526855468750
   3.7300000000000028E-002    -122.80466461181641
   3.8400000000000017E-002    -115.26747131347656
   3.9500000000000007E-002    -105.56873321533203
   4.0600000000000025E-002    -93.642799377441406
   4.1700000000000015E-002    -79.451202392578125
   4.2800000000000005E-002    -62.989135742187500
   4.3900000000000022E-002    -44.288135528564453
   4.5000000000000012E-002    -23.419866561889648
   4.6100000000000002E-002   -0.50093334913253784
   4.7200000000000020E-002     24.314933776855469
   4.8300000000000010E-002     50.832199096679688
   4.9400000000000027E-002     78.811264038085938
   5.0500000000000017E-002     107.97240447998047
   5.1600000000000007E-002     137.99180603027344
   5.2700000000000025E-002     168.50227355957031
   5.3800000000000014E-002     199.10740661621094
   5.4900000000000004E-002     229.38180541992188
   5.6000000000000022E-002     258.88613891601562
   5.7100000000000012E-002     287.16607666015625
   5.8200000000000002E-002     313.75915527343750
   5.9300000000000019E-002     338.19836425781250
   6.0400000000000009E-002     360.02911376953125
   6.1500000000000027E-002     378.80755615234375
   6.2600000000000017E-002     394.11950683593750
   6.3700000000000007E-002     405.58657836914062
   6.4800000000000024E-002     412.86880493164062
   6.5900000000000014E-002     415.68463134765625
   6.7000000000000004E-002     413.80813598632812
   6.8100000000000022E-002     407.08688354492188
   6.9200000000000012E-002     395.43923950195312
   7.0300000000000029E-002     378.85647583007812
   7.1400000000000019E-002     357.40618896484375
   7.2500000000000009E-002     331.23339843750000
   7.3600000000000027E-002     300.56359863281250
   7.4700000000000016E-002     265.70025634765625
   7.5800000000000006E-002     227.02226257324219
   7.6900000000000024E-002     184.97813415527344
   7.8000000000000014E-002     140.07667541503906
   7.9100000000000004E-002     92.881332397460938
   8.0200000000000021E-002     43.999465942382812
   8.1300000000000011E-002    -5.9223999977111816
   8.2400000000000029E-002    -56.215202331542969
   8.3500000000000019E-002    -106.19933319091797
   8.4600000000000009E-002    -155.19906616210938
   8.5700000000000026E-002    -202.55014038085938
   8.6800000000000016E-002    -247.61039733886719
   8.7900000000000006E-002    -289.77307128906250
   8.9000000000000024E-002    -328.47787475585938
   9.0100000000000013E-002    -363.22518920898438
   9.1200000000000003E-002    -393.58306884765625
   9.2300000000000021E-002    -419.19348144531250
   9.3400000000000011E-002    -439.77548217773438
   9.4500000000000028E-002    -455.12759399414062
   9.5600000000000018E-002    -465.13208007812500
   9.6700000000000008E-002    -469.75659179687500
   9.7800000000000026E-002    -469.06451416015625
   9.8900000000000016E-002    -463.19436645507812
  0.10000000000000001         -452.36120605468750
  0.10110000000000002         -436.84872436523438
  0.10220000000000001         -417.00869750976562
  0.10330000000000003         -393.24835205078125
  0.10440000000000002         -366.03039550781250
  0.10550000000000001         -335.85168457031250
  0.10660000000000003         -303.23474121093750
  0.10770000000000002         -268.71334838867188
  0.10880000000000001         -232.82839965820312
  0.10990000000000003         -196.11940002441406
  0.11100000000000002         -159.11239624023438
  0.11210000000000001         -122.31286621093750
  0.11320000000000002         -86.193397521972656
  0.11430000000000001         -51.187934875488281
  0.11540000000000003         -17.691801071166992
  0.11650000000000002          13.942199707031250
  0.11760000000000001          43.411468505859375
  0.11870000000000003          70.465599060058594
  0.11980000000000002          94.914871215820312
  0.12090000000000001          116.62767028808594
  0.12200000000000003          135.52046203613281
  0.12310000000000001          151.55673217773438
  0.12420000000000003          164.74180603027344
  0.12530000000000002          175.12420654296875
  0.12640000000000001          182.79792785644531
  0.12750000000000003          187.89073181152344
  0.12860000000000002          190.55867004394531
  0.12970000000000001          190.97866821289062
  0.13080000000000003          189.34236145019531
  0.13190000000000002          185.85693359375000
  0.13300000000000001          180.74060058593750
  0.13410000000000000          174.21553039550781
  0.13520000000000004          166.50292968750000
  0.13630000000000003          157.81497192382812
  0.13740000000000002          148.35778808593750
  0.13850000000000001          138.32841491699219
  0.13960000000000000          127.91645050048828
  0.14070000000000005          117.29920196533203
  0.14180000000000004          106.63697814941406
  0.14290000000000003          96.068229675292969
  0.14400000000000002          85.709228515625000
  0.14510000000000001          75.661537170410156
  0.14620000000000000          66.013374328613281
  0.14730000000000004          56.837471008300781
  0.14840000000000003          48.191520690917969
  0.14950000000000002          40.117099761962891
  0.15060000000000001          32.643573760986328
  0.15170000000000000          25.792825698852539
  0.15280000000000005          19.576974868774414
  0.15390000000000004          13.996216773986816
  0.15500000000000003          9.0367584228515625
  0.15610000000000002          4.6718335151672363
  0.15720000000000001         0.86944168806076050
  0.15830000000000000         -2.4014999866485596
  0.15940000000000004         -5.1704583168029785
  0.16050000000000003         -7.4690332412719727
  0.16160000000000002         -9.3345584869384766
  0.16270000000000001         -10.810375213623047
  0.16380000000000000         -11.940899848937988
  0.16490000000000005         -12.766508102416992
  0.16600000000000004         -13.322099685668945
  0.16710000000000003         -13.640399932861328
  0.16820000000000002         -13.757367134094238
  0.16930000000000001         -13.710300445556641
  0.17040000000000000         -13.534095764160156
  0.17150000000000004         -13.256020545959473
  0.17260000000000003         -12.896346092224121
  0.17370000000000002         -12.473958015441895
  0.17480000000000001         -12.009263038635254
  0.17590000000000000         -11.523929595947266
  0.17700000000000005         -11.035845756530762
  0.17810000000000004         -10.554071426391602
  0.17920000000000003         -10.080083847045898
  0.18030000000000002         -9.6131210327148438
  0.18140000000000001         -9.1554670333862305
  0.18250000000000000         -8.7122163772583008
  0.18360000000000004         -8.2881288528442383
  0.18470000000000003         -7.8837833404541016
  0.18580000000000002         -7.4972043037414551
  0.18690000000000001         -7.1265168190002441
  0.18800000000000000         -6.7717061042785645
  0.18910000000000005         -6.4331541061401367
  0.19020000000000004         -6.1085395812988281
  0.19130000000000003         -5.7922706604003906
  0.19240000000000002         -5.4790415763854980
  0.19350000000000001         -5.1676187515258789
  0.19460000000000005         -4.8615665435791016
  0.19570000000000004         -4.5655531883239746
  0.19680000000000003         -4.2807793617248535
  0.19790000000000002         -4.0047106742858887
  0.19900000000000001         -3.7350749969482422
  0.20010000000000000         -3.4740593433380127
  0.20120000000000005         -3.2274739742279053
  0.20230000000000004         -3.0000593662261963
  0.20340000000000003         -2.7909333705902100
  0.20450000000000002         -2.5950853824615479
  0.20560000000000000         -2.4081728458404541
  0.20670000000000005         -2.2310156822204590
  0.20780000000000004         -2.0681324005126953
  0.20890000000000003         -1.9218552112579346
