 -0.12000000000000000          0.0000000000000000
 -0.11889999999999999         -3.3061789963539923E-006
 -0.11780000000000000         -8.1281405073241331E-006
 -0.11670000000000000         -1.2035399777232669E-005
 -0.11559999999999999         -1.4351167010318022E-005
 -0.11449999999999999         -1.6717516700737178E-005
 -0.11340000000000000         -2.1367883164202794E-005
 -0.11230000000000000         -2.8956434107385576E-005
 -0.11119999999999999         -3.8171328924363479E-005
 -0.11009999999999999         -4.7465433453908190E-005
 -0.10900000000000000         -5.7064142310991883E-005
 -0.10790000000000000         -6.9184548920020461E-005
 -0.10679999999999999         -8.6297950474545360E-005
 -0.10569999999999999         -1.0927909170277417E-004
 -0.10460000000000000         -1.3734065578319132E-004
 -0.10349999999999999         -1.6975599282886833E-004
 -0.10239999999999999         -2.0754664728883654E-004
 -0.10130000000000000         -2.5343883316963911E-004
 -0.10020000000000000         -3.1027328805066645E-004
  -9.9099999999999994E-002    -3.7966220406815410E-004
  -9.7999999999999990E-002    -4.6234991168603301E-004
  -9.6899999999999986E-002    -5.5986625375226140E-004
  -9.5799999999999996E-002    -6.7568593658506870E-004
  -9.4699999999999993E-002    -8.1467762356624007E-004
  -9.3599999999999989E-002    -9.8149909172207117E-004
  -9.2499999999999999E-002    -1.1797446059063077E-003
  -9.1399999999999995E-002    -1.4128420734778047E-003
  -9.0299999999999991E-002    -1.6858055023476481E-003
  -8.9200000000000002E-002    -2.0060110837221146E-003
  -8.8099999999999984E-002    -2.3821967188268900E-003
  -8.6999999999999994E-002    -2.8227986767888069E-003
  -8.5899999999999990E-002    -3.3354863990098238E-003
  -8.4799999999999986E-002    -3.9285095408558846E-003
  -8.3699999999999997E-002    -4.6125408262014389E-003
  -8.2599999999999993E-002    -5.4011307656764984E-003
  -8.1499999999999989E-002    -6.3092932105064392E-003
  -8.0399999999999999E-002    -7.3516964912414551E-003
  -7.9299999999999995E-002    -8.5423588752746582E-003
  -7.8199999999999992E-002    -9.8961899057030678E-003
  -7.7100000000000002E-002    -1.1430779471993446E-002
  -7.5999999999999984E-002    -1.3166557066142559E-002
  -7.4899999999999994E-002    -1.5125098638236523E-002
  -7.3799999999999991E-002    -1.7327224835753441E-002
  -7.2699999999999987E-002    -1.9792724400758743E-002
  -7.1599999999999997E-002    -2.2541819140315056E-002
  -7.0499999999999993E-002    -2.5596654042601585E-002
  -6.9399999999999989E-002    -2.8981069102883339E-002
  -6.8300000000000000E-002    -3.2718624919652939E-002
  -6.7199999999999996E-002    -3.6830592900514603E-002
  -6.6099999999999992E-002    -4.1335549205541611E-002
  -6.5000000000000002E-002    -4.6250473707914352E-002
  -6.3899999999999985E-002    -5.1591705530881882E-002
  -6.2799999999999995E-002    -5.7374205440282822E-002
  -6.1699999999999991E-002    -6.3609398901462555E-002
  -6.0599999999999994E-002    -7.0303253829479218E-002
  -5.9499999999999990E-002    -7.7455848455429077E-002
  -5.8399999999999994E-002    -8.5062198340892792E-002
  -5.7299999999999990E-002    -9.3112632632255554E-002
  -5.6199999999999986E-002   -0.10159165412187576
  -5.5099999999999996E-002   -0.11047580093145370
  -5.3999999999999992E-002   -0.11973220854997635
  -5.2899999999999989E-002   -0.12931855022907257
  -5.1799999999999985E-002   -0.13918392360210419
  -5.0699999999999995E-002   -0.14926911890506744
  -4.9599999999999991E-002   -0.15950545668601990
  -4.8499999999999988E-002   -0.16981329023838043
  -4.7399999999999998E-002   -0.18010148406028748
  -4.6299999999999994E-002   -0.19026854634284973
  -4.5199999999999990E-002   -0.20020425319671631
  -4.4099999999999986E-002   -0.20979046821594238
  -4.2999999999999997E-002   -0.21890088915824890
  -4.1899999999999993E-002   -0.22740063071250916
  -4.0799999999999989E-002   -0.23514735698699951
  -3.9699999999999985E-002   -0.24199382960796356
  -3.8599999999999995E-002   -0.24779084324836731
  -3.7499999999999992E-002   -0.25238904356956482
  -3.6399999999999988E-002   -0.25563964247703552
  -3.5299999999999984E-002   -0.25739547610282898
  -3.4199999999999994E-002   -0.25751352310180664
  -3.3099999999999991E-002   -0.25585845112800598
  -3.1999999999999987E-002   -0.25230661034584045
  -3.0899999999999997E-002   -0.24674820899963379
  -2.9799999999999993E-002   -0.23908869922161102
  -2.8699999999999989E-002   -0.22925010323524475
  -2.7599999999999986E-002   -0.21717362105846405
  -2.6499999999999996E-002   -0.20282319188117981
  -2.5399999999999992E-002   -0.18618842959403992
  -2.4299999999999988E-002   -0.16728606820106506
  -2.3199999999999985E-002   -0.14615996181964874
  -2.2099999999999995E-002   -0.12288110703229904
  -2.0999999999999991E-002    -9.7548604011535645E-002
  -1.9899999999999987E-002    -7.0291109383106232E-002
  -1.8799999999999983E-002    -4.1267305612564087E-002
  -1.7699999999999994E-002    -1.0664623230695724E-002
  -1.6599999999999990E-002     2.1303353831171989E-002
  -1.5499999999999986E-002     5.4399471729993820E-002
  -1.4399999999999996E-002     8.8364794850349426E-002
  -1.3299999999999992E-002    0.12292019277811050
  -1.2199999999999989E-002    0.15776892006397247
  -1.1099999999999985E-002    0.19260078668594360
  -9.9999999999999950E-003    0.22709721326828003
  -8.8999999999999913E-003    0.26093590259552002
  -7.7999999999999875E-003    0.29379451274871826
  -6.6999999999999837E-003    0.32535415887832642
  -5.5999999999999939E-003    0.35530361533164978
  -4.4999999999999901E-003    0.38334420323371887
  -3.3999999999999864E-003    0.40919527411460876
  -2.2999999999999826E-003    0.43259865045547485
  -1.1999999999999927E-003    0.45332151651382446
  -9.9999999999988987E-005    0.47115921974182129
   1.0000000000000148E-003    0.48593780398368835
   2.1000000000000185E-003    0.49751755595207214
   3.2000000000000084E-003    0.50579553842544556
   4.3000000000000121E-003    0.51070713996887207
   5.4000000000000159E-003    0.51222616434097290
   6.5000000000000058E-003    0.51036441326141357
   7.6000000000000234E-003    0.50517100095748901
   8.7000000000000133E-003    0.49673184752464294
   9.8000000000000032E-003    0.48516917228698730
   1.0900000000000021E-002    0.47063887119293213
   1.2000000000000011E-002    0.45332741737365723
   1.3100000000000001E-002    0.43344789743423462
   1.4200000000000018E-002    0.41123682260513306
   1.5300000000000008E-002    0.38695079088211060
   1.6400000000000026E-002    0.36086320877075195
   1.7500000000000016E-002    0.33326005935668945
   1.8600000000000005E-002    0.30443474650382996
   1.9700000000000023E-002    0.27468371391296387
   2.0800000000000013E-002    0.24430224299430847
   2.1900000000000003E-002    0.21358127892017365
   2.3000000000000020E-002    0.18280415236949921
   2.4100000000000010E-002    0.15224297344684601
   2.5200000000000000E-002    0.12215480953454971
   2.6300000000000018E-002     9.2778585851192474E-002
   2.7400000000000008E-002     6.4332939684391022E-002
   2.8500000000000025E-002     3.7014935165643692E-002
   2.9600000000000015E-002     1.0999042540788651E-002
   3.0700000000000005E-002    -1.3564174994826317E-002
   3.1800000000000023E-002    -3.6549225449562073E-002
   3.2900000000000013E-002    -5.7856164872646332E-002
   3.4000000000000002E-002    -7.7410086989402771E-002
   3.5100000000000020E-002    -9.5159940421581268E-002
   3.6200000000000010E-002   -0.11107728630304337
   3.7300000000000028E-002   -0.12515534460544586
   3.8400000000000017E-002   -0.13740803301334381
   3.9500000000000007E-002   -0.14786852896213531
   4.0600000000000025E-002   -0.15658704936504364
   4.1700000000000015E-002   -0.16362847387790680
   4.2800000000000005E-002   -0.16907007992267609
   4.3900000000000022E-002   -0.17299981415271759
   4.5000000000000012E-002   -0.17551454901695251
   4.6100000000000002E-002   -0.17671830952167511
   4.7200000000000020E-002   -0.17671993374824524
   4.8300000000000010E-002   -0.17563092708587646
   4.9400000000000027E-002   -0.17356359958648682
   5.0500000000000017E-002   -0.17062982916831970
   5.1600000000000007E-002   -0.16693992912769318
   5.2700000000000025E-002   -0.16260150074958801
   5.3800000000000014E-002   -0.15771801769733429
   5.4900000000000004E-002   -0.15238767862319946
   5.6000000000000022E-002   -0.14670266211032867
   5.7100000000000012E-002   -0.14074884355068207
   5.8200000000000002E-002   -0.13460575044155121
   5.9300000000000019E-002   -0.12834610044956207
   6.0400000000000009E-002   -0.12203551083803177
   6.1500000000000027E-002   -0.11573219299316406
   6.2600000000000017E-002   -0.10948716104030609
   6.3700000000000007E-002   -0.10334467887878418
   6.4800000000000024E-002    -9.7342699766159058E-002
   6.5900000000000014E-002    -9.1513141989707947E-002
   6.7000000000000004E-002    -8.5882000625133514E-002
   6.8100000000000022E-002    -8.0469608306884766E-002
   6.9200000000000012E-002    -7.5291179120540619E-002
   7.0300000000000029E-002    -7.0357494056224823E-002
   7.1400000000000019E-002    -6.5675519406795502E-002
   7.2500000000000009E-002    -6.1248797923326492E-002
   7.3600000000000027E-002    -5.7077705860137939E-002
   7.4700000000000016E-002    -5.3159762173891068E-002
   7.5800000000000006E-002    -4.9490071833133698E-002
   7.6900000000000024E-002    -4.6061877161264420E-002
   7.8000000000000014E-002    -4.2867030948400497E-002
   7.9100000000000004E-002    -3.9896290749311447E-002
   8.0200000000000021E-002    -3.7139508873224258E-002
   8.1300000000000011E-002    -3.4585777670145035E-002
   8.2400000000000029E-002    -3.2223708927631378E-002
   8.3500000000000019E-002    -3.0041724443435669E-002
   8.4600000000000009E-002    -2.8028305619955063E-002
   8.5700000000000026E-002    -2.6172162964940071E-002
   8.6800000000000016E-002    -2.4462297558784485E-002
   8.7900000000000006E-002    -2.2888047620654106E-002
   8.9000000000000024E-002    -2.1439146250486374E-002
   9.0100000000000013E-002    -2.0105786621570587E-002
   9.1200000000000003E-002    -1.8878674134612083E-002
   9.2300000000000021E-002    -1.7749100923538208E-002
   9.3400000000000011E-002    -1.6708964481949806E-002
   9.4500000000000028E-002    -1.5750747174024582E-002
   9.5600000000000018E-002    -1.4867466874420643E-002
   9.6700000000000008E-002    -1.4052635058760643E-002
   9.7800000000000026E-002    -1.3300251215696335E-002
   9.8900000000000016E-002    -1.2604837305843830E-002
  0.10000000000000001         -1.1961439624428749E-002
  0.10110000000000002         -1.1365582235157490E-002
  0.10220000000000001         -1.0813172906637192E-002
  0.10330000000000003         -1.0300433263182640E-002
  0.10440000000000002         -9.8239015787839890E-003
  0.10550000000000001         -9.3804495409131050E-003
  0.10660000000000003         -8.9672803878784180E-003
  0.10770000000000002         -8.5818562656641006E-003
  0.10880000000000001         -8.2218125462532043E-003
  0.10990000000000003         -7.8849419951438904E-003
  0.11100000000000002         -7.5692585669457912E-003
  0.11210000000000001         -7.2730621322989464E-003
  0.11320000000000002         -6.9948979653418064E-003
  0.11430000000000001         -6.7334221675992012E-003
  0.11540000000000003         -6.4872931689023972E-003
  0.11650000000000002         -6.2552010640501976E-003
  0.11760000000000001         -6.0360068455338478E-003
  0.11870000000000003         -5.8288401924073696E-003
  0.11980000000000002         -5.6330277584493160E-003
  0.12090000000000001         -5.4478873498737812E-003
  0.12200000000000003         -5.2725900895893574E-003
  0.12310000000000001         -5.1062353886663914E-003
  0.12420000000000003         -4.9480749294161797E-003
  0.12530000000000002         -4.7976602800190449E-003
  0.12640000000000001         -4.6547441743314266E-003
  0.12750000000000003         -4.5190020464360714E-003
  0.12860000000000002         -4.3898564763367176E-003
  0.12970000000000001         -4.2665749788284302E-003
  0.13080000000000003         -4.1485554538667202E-003
  0.13190000000000002         -4.0355096571147442E-003
  0.13300000000000001         -3.9273449219763279E-003
  0.13410000000000000         -3.8238533306866884E-003
  0.13520000000000004         -3.7245173007249832E-003
  0.13630000000000003         -3.6286383401602507E-003
  0.13740000000000002         -3.5356665030121803E-003
  0.13850000000000001         -3.4454024862498045E-003
  0.13960000000000000         -3.3578705042600632E-003
  0.14070000000000005         -3.2729927916079760E-003
  0.14180000000000004         -3.1904019415378571E-003
  0.14290000000000003         -3.1095864251255989E-003
  0.14400000000000002         -3.0302130617201328E-003
  0.14510000000000001         -2.9522969853132963E-003
  0.14620000000000000         -2.8760372661054134E-003
  0.14730000000000004         -2.8014949057251215E-003
  0.14840000000000003         -2.7284510433673859E-003
  0.14950000000000002         -2.6565922889858484E-003
  0.15060000000000001         -2.5858301669359207E-003
  0.15170000000000000         -2.5164147373288870E-003
  0.15280000000000005         -2.4487199261784554E-003
  0.15390000000000004         -2.3829212877899408E-003
  0.15500000000000003         -2.3189052008092403E-003
  0.15610000000000002         -2.2564961109310389E-003
  0.15720000000000001         -2.1957550197839737E-003
  0.15830000000000000         -2.1370255853980780E-003
  0.15940000000000004         -2.0806659013032913E-003
  0.16050000000000003         -2.0267448853701353E-003
  0.16160000000000002         -1.9750234205275774E-003
  0.16270000000000001         -1.9252456258982420E-003
  0.16380000000000000         -1.8774344353005290E-003
  0.16490000000000005         -1.8318794900551438E-003
  0.16600000000000004         -1.7888236325234175E-003
  0.16710000000000003         -1.7481764080002904E-003
  0.16820000000000002         -1.7095580697059631E-003
  0.16930000000000001         -1.6726355534046888E-003
  0.17040000000000000         -1.6374001279473305E-003
  0.17150000000000004         -1.6040968475863338E-003
  0.17260000000000003         -1.5728744911029935E-003
  0.17370000000000002         -1.5435239765793085E-003
  0.17480000000000001         -1.5155795263126493E-003
  0.17590000000000000         -1.4886857243254781E-003
  0.17700000000000005         -1.4628508361056447E-003
  0.17810000000000004         -1.4383274829015136E-003
  0.17920000000000003         -1.4152455842122436E-003
  0.18030000000000002         -1.3933816226199269E-003
  0.18140000000000001         -1.3723034644499421E-003
  0.18250000000000000         -1.3517384650185704E-003
  0.18360000000000004         -1.3317785924300551E-003
  0.18470000000000003         -1.3127063866704702E-003
  0.18580000000000002         -1.2946216156706214E-003
  0.18690000000000001         -1.2772532645612955E-003
  0.18800000000000000         -1.2601512717083097E-003
  0.18910000000000005         -1.2430542847141623E-003
  0.19020000000000004         -1.2260535731911659E-003
  0.19130000000000003         -1.2093855766579509E-003
  0.19240000000000002         -1.1930774198845029E-003
  0.19350000000000001         -1.1768166441470385E-003
  0.19460000000000005         -1.1601821752265096E-003
  0.19570000000000004         -1.1429921723902225E-003
  0.19680000000000003         -1.1254070559516549E-003
  0.19790000000000002         -1.1076832888647914E-003
  0.19900000000000001         -1.0898383334279060E-003
  0.20010000000000000         -1.0715777752920985E-003
  0.20120000000000005         -1.0525566758587956E-003
  0.20230000000000004         -1.0327032068744302E-003
  0.20340000000000003         -1.0122690582647920E-003
  0.20450000000000002         -9.9156366195529699E-004
  0.20560000000000000         -9.7065663430839777E-004
  0.20670000000000005         -9.4936299137771130E-004
  0.20780000000000004         -9.2752219643443823E-004
  0.20890000000000003         -9.0527260908856988E-004
