 -0.12000000000000000          0.0000000000000000
 -0.11889999999999999          0.0000000000000000
 -0.11780000000000000          0.0000000000000000
 -0.11670000000000000          0.0000000000000000
 -0.11559999999999999          0.0000000000000000
 -0.11449999999999999          0.0000000000000000
 -0.11340000000000000          0.0000000000000000
 -0.11230000000000000          0.0000000000000000
 -0.11119999999999999          0.0000000000000000
 -0.11009999999999999          2.7197645177667873E-013
 -0.10900000000000000         -2.0484633954376275E-012
 -0.10790000000000000         -3.9865780815384610E-011
 -0.10679999999999999         -2.2454903214619293E-010
 -0.10569999999999999         -6.1859434241640088E-010
 -0.10460000000000000         -4.7719178608573998E-010
 -0.10349999999999999          2.9628066666731456E-009
 -0.10239999999999999          1.3327331238599527E-008
 -0.10130000000000000          2.6300062572204297E-008
 -0.10020000000000000          1.3818738153759114E-008
  -9.9099999999999994E-002    -7.7066935944003490E-008
  -9.7999999999999990E-002    -2.6851171242014971E-007
  -9.6899999999999986E-002    -4.2555316781545116E-007
  -9.5799999999999996E-002    -1.6221029852658830E-007
  -9.4699999999999993E-002     9.7608426585793495E-007
  -9.3599999999999989E-002     2.8635633952944772E-006
  -9.2499999999999999E-002     3.9573678805027157E-006
  -9.1399999999999995E-002     1.2894582823719247E-006
  -9.0299999999999991E-002    -7.4617942118493374E-006
  -8.9200000000000002E-002    -1.9853974663419649E-005
  -8.8099999999999984E-002    -2.5420800739084370E-005
  -8.6999999999999994E-002    -8.5740930444444530E-006
  -8.5899999999999990E-002     3.8786336517659947E-005
  -8.4799999999999986E-002     9.9488155683502555E-005
  -8.3699999999999997E-002     1.2345801224000752E-004
  -8.2599999999999993E-002     4.8776859330246225E-005
  -8.1499999999999989E-002    -1.4504606951959431E-004
  -8.0399999999999999E-002    -3.7986843381077051E-004
  -7.9299999999999995E-002    -4.7329196240752935E-004
  -7.8199999999999992E-002    -2.2993070888333023E-004
  -7.7100000000000002E-002     3.8907851558178663E-004
  -7.5999999999999984E-002     1.1254581622779369E-003
  -7.4899999999999994E-002     1.4588936464861035E-003
  -7.3799999999999991E-002     8.8782230159267783E-004
  -7.2699999999999987E-002    -6.5704673761501908E-004
  -7.1599999999999997E-002    -2.5491293054074049E-003
  -7.0499999999999993E-002    -3.6292748991400003E-003
  -6.9399999999999989E-002    -2.8272366616874933E-003
  -6.8300000000000000E-002     7.9475059465039521E-005
  -6.7199999999999996E-002     4.0752394124865532E-003
  -6.6099999999999992E-002     7.2144796140491962E-003
  -6.5000000000000002E-002     7.5124683789908886E-003
  -6.3899999999999985E-002     3.9343265816569328E-003
  -6.2799999999999995E-002    -2.9914320912212133E-003
  -6.1699999999999991E-002    -1.1081122793257236E-002
  -6.0599999999999994E-002    -1.6832370311021805E-002
  -5.9499999999999990E-002    -1.6243625432252884E-002
  -5.8399999999999994E-002    -6.4464407041668892E-003
  -5.7299999999999990E-002     1.1818047612905502E-002
  -5.6199999999999986E-002     3.2037951052188873E-002
  -5.5099999999999996E-002     4.2478535324335098E-002
  -5.3999999999999992E-002     3.1390011310577393E-002
  -5.2899999999999989E-002    -4.2496221140027046E-003
  -5.1799999999999985E-002    -5.1788736134767532E-002
  -5.0699999999999995E-002    -8.4693640470504761E-002
  -4.9599999999999991E-002    -7.5937792658805847E-002
  -4.8499999999999988E-002    -1.7203697934746742E-002
  -4.7399999999999998E-002     6.9026544690132141E-002
  -4.6299999999999994E-002    0.13604891300201416
  -4.5199999999999990E-002    0.13831636309623718
  -4.4099999999999986E-002     6.1315689235925674E-002
  -4.2999999999999997E-002    -6.4378768205642700E-002
  -4.1899999999999993E-002   -0.17633375525474548
  -4.0799999999999989E-002   -0.21374143660068512
  -3.9699999999999985E-002   -0.15007989108562469
  -3.8599999999999995E-002    -5.5833761580288410E-003
  -3.7499999999999992E-002    0.16416969895362854
  -3.6399999999999988E-002    0.29160240292549133
  -3.5299999999999984E-002    0.31825485825538635
  -3.4199999999999994E-002    0.21028453111648560
  -3.3099999999999991E-002    -2.5623155757784843E-002
  -3.1999999999999987E-002   -0.32527086138725281
  -3.0899999999999997E-002   -0.56477355957031250
  -2.9799999999999993E-002   -0.59638607501983643
  -2.8699999999999989E-002   -0.32609874010086060
  -2.7599999999999986E-002    0.20233708620071411
  -2.6499999999999996E-002    0.77877068519592285
  -2.5399999999999992E-002     1.0976901054382324
  -2.4299999999999988E-002    0.91284990310668945
  -2.3199999999999985E-002    0.19599610567092896
  -2.2099999999999995E-002   -0.79721695184707642
  -2.0999999999999991E-002    -1.6055716276168823
  -1.9899999999999987E-002    -1.7585676908493042
  -1.8799999999999983E-002    -1.0055805444717407
  -1.7699999999999994E-002    0.51800060272216797
  -1.6599999999999990E-002     2.2580492496490479
  -1.5499999999999986E-002     3.3784475326538086
  -1.4399999999999996E-002     3.0657610893249512
  -1.3299999999999992E-002    0.93881261348724365
  -1.2199999999999989E-002    -2.5910022258758545
  -1.1099999999999985E-002    -6.2318515777587891
  -9.9999999999999950E-003    -8.1737833023071289
  -8.8999999999999913E-003    -6.8713259696960449
  -7.7999999999999875E-003    -1.9268355369567871
  -6.6999999999999837E-003     5.4209432601928711
  -5.5999999999999939E-003     12.583297729492188
  -4.4999999999999901E-003     16.658084869384766
  -3.3999999999999864E-003     15.725004196166992
  -2.2999999999999826E-003     9.6993207931518555
  -1.1999999999999927E-003    0.26792487502098083
  -9.9999999999988987E-005    -10.028948783874512
   1.0000000000000148E-003    -18.998550415039062
   2.1000000000000185E-003    -25.562768936157227
   3.2000000000000084E-003    -29.679426193237305
   4.3000000000000121E-003    -31.543294906616211
   5.4000000000000159E-003    -30.612157821655273
   6.5000000000000058E-003    -25.060108184814453
   7.6000000000000234E-003    -11.958205223083496
   8.7000000000000133E-003     11.957475662231445
   9.8000000000000032E-003     49.378532409667969
   1.0900000000000021E-002     101.83643341064453
   1.2000000000000011E-002     169.63861083984375
   1.3100000000000001E-002     252.20019531250000
   1.4200000000000018E-002     348.47332763671875
   1.5300000000000008E-002     457.30584716796875
   1.6400000000000026E-002     577.90563964843750
   1.7500000000000016E-002     710.82745361328125
   1.8600000000000005E-002     859.71270751953125
   1.9700000000000023E-002     1033.3433837890625
   2.0800000000000013E-002     1246.8316650390625
   2.1900000000000003E-002     1520.6694335937500
   2.3000000000000020E-002     1877.3062744140625
   2.4100000000000010E-002     2336.6286621093750
   2.5200000000000000E-002     2913.0085449218750
   2.6300000000000018E-002     3616.3898925781250
   2.7400000000000008E-002     4457.8256835937500
   2.8500000000000025E-002     5457.0546875000000
   2.9600000000000015E-002     6648.0517578125000
   3.0700000000000005E-002     8079.2397460937500
   3.1800000000000023E-002     9808.2832031250000
   3.2900000000000013E-002     11894.732421875000
   3.4000000000000002E-002     14395.589843750000
   3.5100000000000020E-002     17367.128906250000
   3.6200000000000010E-002     20872.644531250000
   3.7300000000000028E-002     24991.984375000000
   3.8400000000000017E-002     29827.558593750000
   3.9500000000000007E-002     35503.578125000000
   4.0600000000000025E-002     42159.613281250000
   4.1700000000000015E-002     49942.847656250000
   4.2800000000000005E-002     59004.394531250000
   4.3900000000000022E-002     69502.703125000000
   4.5000000000000012E-002     81612.023437500000
   4.6100000000000002E-002     95530.945312500000
   4.7200000000000020E-002     111485.01562500000
   4.8300000000000010E-002     129721.99218750000
   4.9400000000000027E-002     150501.04687500000
   5.0500000000000017E-002     174085.21875000000
   5.1600000000000007E-002     200739.64062500000
   5.2700000000000025E-002     230739.64062500000
   5.3800000000000014E-002     264379.93750000000
   5.4900000000000004E-002     301976.78125000000
   5.6000000000000022E-002     343859.75000000000
   5.7100000000000012E-002     390349.40625000000
   5.8200000000000002E-002     441737.12500000000
   5.9300000000000019E-002     498272.15625000000
   6.0400000000000009E-002     560163.87500000000
   6.1500000000000027E-002     627591.31250000000
   6.2600000000000017E-002     700715.31250000000
   6.3700000000000007E-002     779670.18750000000
   6.4800000000000024E-002     864545.43750000000
   6.5900000000000014E-002     955347.87500000000
   6.7000000000000004E-002     1051976.1250000000
   6.8100000000000022E-002     1154202.7500000000
   6.9200000000000012E-002     1261666.6250000000
   7.0300000000000029E-002     1373887.1250000000
   7.1400000000000019E-002     1490271.1250000000
   7.2500000000000009E-002     1610104.0000000000
   7.3600000000000027E-002     1732536.8750000000
   7.4700000000000016E-002     1856554.3750000000
   7.5800000000000006E-002     1980959.3750000000
   7.6900000000000024E-002     2104366.0000000000
   7.8000000000000014E-002     2225217.0000000000
   7.9100000000000004E-002     2341791.5000000000
   8.0200000000000021E-002     2452238.5000000000
   8.1300000000000011E-002     2554575.2500000000
   8.2400000000000029E-002     2646683.5000000000
   8.3500000000000019E-002     2726317.2500000000
   8.4600000000000009E-002     2791140.2500000000
   8.5700000000000026E-002     2838744.0000000000
   8.6800000000000016E-002     2866701.5000000000
   8.7900000000000006E-002     2872621.5000000000
   8.9000000000000024E-002     2854158.2500000000
   9.0100000000000013E-002     2809089.0000000000
   9.1200000000000003E-002     2735278.2500000000
   9.2300000000000021E-002     2630790.2500000000
   9.3400000000000011E-002     2493911.2500000000
   9.4500000000000028E-002     2323229.0000000000
   9.5600000000000018E-002     2117692.2500000000
   9.6700000000000008E-002     1876644.5000000000
   9.7800000000000026E-002     1599868.2500000000
   9.8900000000000016E-002     1287596.5000000000
  0.10000000000000001          940534.87500000000
  0.10110000000000002          559936.56250000000
  0.10220000000000001          147563.53125000000
  0.10330000000000003         -294246.28125000000
  0.10440000000000002         -762623.75000000000
  0.10550000000000001         -1254067.5000000000
  0.10660000000000003         -1764555.3750000000
  0.10770000000000002         -2289568.2500000000
  0.10880000000000001         -2824159.2500000000
  0.10990000000000003         -3362974.7500000000
  0.11100000000000002         -3900322.5000000000
  0.11210000000000001         -4430271.0000000000
  0.11320000000000002         -4946647.0000000000
  0.11430000000000001         -5443201.0000000000
  0.11540000000000003         -5913664.5000000000
  0.11650000000000002         -6351907.5000000000
  0.11760000000000001         -6752004.0000000000
  0.11870000000000003         -7108303.0000000000
  0.11980000000000002         -7415516.5000000000
  0.12090000000000001         -7668816.0000000000
  0.12200000000000003         -7863969.5000000000
  0.12310000000000001         -7997447.0000000000
  0.12420000000000003         -8066487.0000000000
  0.12530000000000002         -8069134.5000000000
  0.12640000000000001         -8004270.5000000000
  0.12750000000000003         -7871625.0000000000
  0.12860000000000002         -7671783.5000000000
  0.12970000000000001         -7406198.0000000000
  0.13080000000000003         -7077191.0000000000
  0.13190000000000002         -6687925.0000000000
  0.13300000000000001         -6242411.5000000000
  0.13410000000000000         -5745432.5000000000
  0.13520000000000004         -5202484.5000000000
  0.13630000000000003         -4619632.0000000000
  0.13740000000000002         -4003395.5000000000
  0.13850000000000001         -3360635.5000000000
  0.13960000000000000         -2698403.5000000000
  0.14070000000000005         -2023972.5000000000
  0.14180000000000004         -1344701.0000000000
  0.14290000000000003         -667903.81250000000
  0.14400000000000002         -733.04003906250000
  0.14510000000000001          649980.25000000000
  0.14620000000000000          1277845.2500000000
  0.14730000000000004          1876870.7500000000
  0.14840000000000003          2441565.5000000000
  0.14950000000000002          2967073.0000000000
  0.15060000000000001          3449200.0000000000
  0.15170000000000000          3884532.0000000000
  0.15280000000000005          4270432.0000000000
  0.15390000000000004          4604914.5000000000
  0.15500000000000003          4886740.5000000000
  0.15610000000000002          5115366.0000000000
  0.15720000000000001          5290976.5000000000
  0.15830000000000000          5414420.5000000000
  0.15940000000000004          5487198.0000000000
  0.16050000000000003          5511319.0000000000
  0.16160000000000002          5489311.0000000000
  0.16270000000000001          5424098.0000000000
  0.16380000000000000          5319054.0000000000
  0.16490000000000005          5177845.5000000000
  0.16600000000000004          5004360.0000000000
  0.16710000000000003          4802600.5000000000
  0.16820000000000002          4576631.0000000000
  0.16930000000000001          4330509.5000000000
  0.17040000000000000          4068260.2500000000
  0.17150000000000004          3793812.5000000000
  0.17260000000000003          3510938.2500000000
  0.17370000000000002          3223200.2500000000
  0.17480000000000001          2933933.5000000000
  0.17590000000000000          2646241.7500000000
  0.17700000000000005          2362967.0000000000
  0.17810000000000004          2086630.3750000000
  0.17920000000000003          1819397.0000000000
  0.18030000000000002          1563073.6250000000
  0.18140000000000001          1319158.0000000000
  0.18250000000000000          1088897.8750000000
  0.18360000000000004          873301.31250000000
  0.18470000000000003          673100.93750000000
  0.18580000000000002          488725.37500000000
  0.18690000000000001          320304.78125000000
  0.18800000000000000          167747.12500000000
  0.18910000000000005          30826.744140625000
  0.19020000000000004         -90779.265625000000
  0.19130000000000003         -197515.95312500000
  0.19240000000000002         -289998.12500000000
  0.19350000000000001         -369012.31250000000
  0.19460000000000005         -435451.34375000000
  0.19570000000000004         -490215.75000000000
  0.19680000000000003         -534168.18750000000
  0.19790000000000002         -568149.31250000000
  0.19900000000000001         -593024.87500000000
  0.20010000000000000         -609718.43750000000
  0.20120000000000005         -619163.81250000000
  0.20230000000000004         -622236.25000000000
  0.20340000000000003         -619715.62500000000
  0.20450000000000002         -612307.87500000000
  0.20560000000000000         -600703.12500000000
  0.20670000000000005         -585607.56250000000
  0.20780000000000004         -567711.75000000000
  0.20890000000000003         -547630.25000000000
