 -0.12000000000000000          0.0000000000000000
 -0.11889999999999999          0.0000000000000000
 -0.11780000000000000          0.0000000000000000
 -0.11670000000000000          0.0000000000000000
 -0.11559999999999999          0.0000000000000000
 -0.11449999999999999          0.0000000000000000
 -0.11340000000000000          0.0000000000000000
 -0.11230000000000000          0.0000000000000000
 -0.11119999999999999          0.0000000000000000
 -0.11009999999999999          0.0000000000000000
 -0.10900000000000000          0.0000000000000000
 -0.10790000000000000          0.0000000000000000
 -0.10679999999999999          0.0000000000000000
 -0.10569999999999999          0.0000000000000000
 -0.10460000000000000          0.0000000000000000
 -0.10349999999999999          0.0000000000000000
 -0.10239999999999999         -2.8250177040788312E-042
 -0.10130000000000000         -4.8653082681357649E-042
 -0.10020000000000000         -3.9326040102811666E-040
  -9.9099999999999994E-002    -3.8958843853219991E-039
  -9.7999999999999990E-002     2.2189561182583478E-040
  -9.6899999999999986E-002     1.0065556016253219E-037
  -9.5799999999999996E-002     6.5302913065701257E-038
  -9.4699999999999993E-002    -1.1467421726196395E-037
  -9.3599999999999989E-002    -9.8884883907166437E-037
  -9.2499999999999999E-002    -4.2798591325230121E-036
  -9.1399999999999995E-002     3.7419789902580644E-036
  -9.0299999999999991E-002    -5.8170152990469300E-035
  -8.9200000000000002E-002     5.3724201471031609E-035
  -8.8099999999999984E-002     3.6966119825193876E-034
  -8.6999999999999994E-002    -3.8424083517014465E-035
  -8.5899999999999990E-002     8.9622288251232471E-034
  -8.4799999999999986E-002    -9.9939905225537010E-034
  -8.3699999999999997E-002    -1.7006873004808355E-032
  -8.2599999999999993E-002    -2.2904364897082235E-032
  -8.1499999999999989E-002     1.0795581426214527E-032
  -8.0399999999999999E-002     5.1235514075434765E-032
  -7.9299999999999995E-002    -2.4532400181463324E-031
  -7.8199999999999992E-002    -1.7792407096447331E-031
  -7.7100000000000002E-002     1.9951533961139394E-031
  -7.5999999999999984E-002    -1.7416017096698217E-030
  -7.4899999999999994E-002    -4.9767966977656330E-030
  -7.3799999999999991E-002    -4.5454372907878863E-030
  -7.2699999999999987E-002    -6.2708745425406806E-030
  -7.1599999999999997E-002     6.3087422937162620E-031
  -7.0499999999999993E-002     1.7885246229682054E-029
  -6.9399999999999989E-002     7.3099236781138701E-029
  -6.8300000000000000E-002     9.3804482297539462E-029
  -6.7199999999999996E-002    -1.6623500310006600E-029
  -6.6099999999999992E-002    -2.0987246197389017E-028
  -6.5000000000000002E-002     1.0983498727303646E-029
  -6.3899999999999985E-002     3.4226743451287968E-028
  -6.2799999999999995E-002     4.5269541862505851E-028
  -6.1699999999999991E-002    -4.4230527935339457E-029
  -6.0599999999999994E-002    -1.9767201836946272E-027
  -5.9499999999999990E-002     1.1152634677428773E-027
  -5.8399999999999994E-002     7.2992305780248919E-027
  -5.7299999999999990E-002     1.5569747301161121E-027
  -5.6199999999999986E-002     4.6489576111816388E-027
  -5.5099999999999996E-002     8.1826523323993837E-027
  -5.3999999999999992E-002    -3.0687998845459543E-026
  -5.2899999999999989E-002    -1.2609778867396172E-025
  -5.1799999999999985E-002    -9.0760832217320537E-026
  -5.0699999999999995E-002     2.9087828395585741E-025
  -4.9599999999999991E-002     3.4741739949534133E-025
  -4.8499999999999988E-002    -7.6626065658401202E-026
  -4.7399999999999998E-002    -1.0489563575409480E-025
  -4.6299999999999994E-002    -2.7451301935040149E-025
  -4.5199999999999990E-002    -6.1374778654301486E-025
  -4.4099999999999986E-002     1.3509869160253346E-024
  -4.2999999999999997E-002     2.4110955727467151E-024
  -4.1899999999999993E-002     6.0184348105277718E-025
  -4.0799999999999989E-002    -3.4689736266509701E-024
  -3.9699999999999985E-002    -7.2005566820672993E-024
  -3.8599999999999995E-002    -9.5751999784598831E-024
  -3.7499999999999992E-002    -7.7659474923354925E-024
  -3.6399999999999988E-002     1.7563581002518734E-023
  -3.5299999999999984E-002     5.1487058017602910E-023
  -3.4199999999999994E-002     3.2942222401410622E-023
  -3.3099999999999991E-002    -4.1237113752471287E-023
  -3.1999999999999987E-002    -1.1360719110934156E-022
  -3.0899999999999997E-002    -7.5612892056172982E-023
  -2.9799999999999993E-002     6.3699514665525262E-023
  -2.8699999999999989E-002     1.7949164222305005E-022
  -2.7599999999999986E-002     1.7949164222305005E-022
  -2.6499999999999996E-002    -8.1040658980877017E-023
  -2.5399999999999992E-002    -4.2841705427522586E-022
  -2.4299999999999988E-002    -5.0078712847665252E-022
  -2.3199999999999985E-002     2.5186172904625119E-022
  -2.2099999999999995E-002     1.6124192704456563E-021
  -2.0999999999999991E-002     2.2492759436130501E-021
  -1.9899999999999987E-002     1.3606938060767294E-022
  -1.8799999999999983E-002    -4.1482396861195425E-021
  -1.7699999999999994E-002    -7.0430430580733922E-021
  -1.6599999999999990E-002    -5.0456284648533588E-021
  -1.5499999999999986E-002     3.6677293373764950E-021
  -1.4399999999999996E-002     1.4320604744502639E-020
  -1.3299999999999992E-002     1.7099614947602569E-020
  -1.2199999999999989E-002     6.5625298820528604E-021
  -1.1099999999999985E-002    -1.6016937307760091E-020
  -9.9999999999999950E-003    -3.7322689737599513E-020
  -8.8999999999999913E-003    -3.5470015191808137E-020
  -7.7999999999999875E-003     4.3624790608739932E-021
  -6.6999999999999837E-003     6.2953297839035620E-020
  -5.5999999999999939E-003     8.5416970648304301E-020
  -4.4999999999999901E-003     3.7247445382425597E-020
  -3.3999999999999864E-003    -7.3913001515662817E-020
  -2.2999999999999826E-003    -1.8507344195140270E-019
  -1.1999999999999927E-003    -1.7025205850976876E-019
  -9.9999999999988987E-005     7.2448245596590401E-020
   1.0000000000000148E-003     3.6146539072951409E-019
   2.1000000000000185E-003     3.9481353901610739E-019
   3.2000000000000084E-003     7.9858930855058834E-020
   4.3000000000000121E-003    -5.2040749919672480E-019
   5.4000000000000159E-003    -1.0539777166858528E-018
   6.5000000000000058E-003    -8.0201405600640808E-019
   7.6000000000000234E-003     4.9856321018284787E-019
   8.7000000000000133E-003     2.0214612926200982E-018
   9.8000000000000032E-003     2.2882464789128447E-018
   1.0900000000000021E-002     4.2075105374302054E-019
   1.2000000000000011E-002    -2.8251340525498283E-018
   1.3100000000000001E-002    -5.0631646712212631E-018
   1.4200000000000018E-002    -3.5810253447808921E-018
   1.5300000000000008E-002     1.8732472772579999E-018
   1.6400000000000026E-002     8.2760892667420763E-018
   1.7500000000000016E-002     1.0558583324880074E-017
   1.8600000000000005E-002     4.2446694551000423E-018
   1.9700000000000023E-002    -9.5095834777229889E-018
   2.0800000000000013E-002    -2.0773842027797564E-017
   2.1900000000000003E-002    -1.7809562547736209E-017
   2.3000000000000020E-002     2.8218160243177249E-018
   2.4100000000000010E-002     3.0804606366891226E-017
   2.5200000000000000E-002     4.4321716957852961E-017
   2.6300000000000018E-002     2.2267485368607016E-017
   2.7400000000000008E-002    -3.3698097384491518E-017
   2.8500000000000025E-002    -8.6106543768899691E-017
   2.9600000000000015E-002    -8.0415124255506134E-017
   3.0700000000000005E-002     1.0173230483174283E-017
   3.1800000000000023E-002     1.4155005809583028E-016
   3.2900000000000013E-002     2.0225849761232209E-016
   3.4000000000000002E-002     8.7955914477776348E-017
   3.5100000000000020E-002    -1.8333486836326476E-016
   3.6200000000000010E-002    -4.2047713412394453E-016
   3.7300000000000028E-002    -3.5988730568984792E-016
   3.8400000000000017E-002     1.1048441668867447E-016
   3.9500000000000007E-002     7.3084866719253937E-016
   4.0600000000000025E-002     9.3384249528219660E-016
   4.1700000000000015E-002     2.8596975793783973E-016
   4.2800000000000005E-002    -1.0097757167508740E-015
   4.3900000000000022E-002    -1.9573961558322275E-015
   4.5000000000000012E-002    -1.3768718551570073E-015
   4.6100000000000002E-002     9.1487128660430522E-016
   4.7200000000000020E-002     3.3892140853655555E-015
   4.8300000000000010E-002     3.5642252800701605E-015
   4.9400000000000027E-002     1.6455340830044815E-016
   5.0500000000000017E-002    -4.9728969755285807E-015
   5.1600000000000007E-002    -7.3746737205447263E-015
   5.2700000000000025E-002    -3.2775664608297294E-015
   5.3800000000000014E-002     6.0973797998207634E-015
   5.4900000000000004E-002     1.3443099816645970E-014
   5.6000000000000022E-002     1.0119312885466941E-014
   5.7100000000000012E-002    -5.2019761890805590E-015
   5.8200000000000002E-002    -2.1858850721232642E-014
   5.9300000000000019E-002    -2.3209612468153180E-014
   6.0400000000000009E-002    -1.1572773989110274E-015
   6.1500000000000027E-002     3.1837749260967343E-014
   6.2600000000000017E-002     4.6316706844634278E-014
   6.3700000000000007E-002     1.9225572671951845E-014
   6.4800000000000024E-002    -3.9039338575004232E-014
   6.5900000000000014E-002    -8.1808420714785113E-014
   6.7000000000000004E-002    -5.8739220898298278E-014
   6.8100000000000022E-002     3.3795598155909878E-014
   6.9200000000000012E-002     1.2979080429766782E-013
   7.0300000000000029E-002     1.3306906574903077E-013
   7.1400000000000019E-002     3.3351583484959174E-015
   7.2500000000000009E-002    -1.8055066990096957E-013
   7.3600000000000027E-002    -2.5513095867728264E-013
   7.4700000000000016E-002    -1.0533291090481650E-013
   7.5800000000000006E-002     2.0464431202144723E-013
   7.6900000000000024E-002     4.2732280929914934E-013
   7.8000000000000014E-002     3.1118757202151792E-013
   7.9100000000000004E-002    -1.4873947342883276E-013
   8.0200000000000021E-002    -6.2111172325143849E-013
   8.1300000000000011E-002    -6.5013034018790439E-013
   8.2400000000000029E-002    -6.0772960557183009E-014
   8.3500000000000019E-002     7.7627482350170474E-013
   8.4600000000000009E-002     1.1285051669182589E-012
   8.5700000000000026E-002     5.0017298245871866E-013
   8.6800000000000016E-002    -8.0894351547206034E-013
   8.7900000000000006E-002    -1.7411821767385205E-012
   8.9000000000000024E-002    -1.2764590816630172E-012
   9.0100000000000013E-002     5.6634514786213508E-013
   9.1200000000000003E-002     2.4347076004599399E-012
   9.2300000000000021E-002     2.5464109987272110E-012
   9.3400000000000011E-002     2.6377400155590258E-013
   9.4500000000000028E-002    -2.9625147821010778E-012
   9.5600000000000018E-002    -4.3690077597413612E-012
   9.6700000000000008E-002    -2.1087116428009089E-012
   9.7800000000000026E-002     2.7460195575756963E-012
   9.8900000000000016E-002     6.4120796346156528E-012
  0.10000000000000001          5.2010678749936368E-012
  0.10110000000000002         -1.0514142724862841E-012
  0.10220000000000001         -7.9284643086929840E-012
  0.10330000000000003         -9.3301000606005324E-012
  0.10440000000000002         -2.6505945875665571E-012
  0.10550000000000001          7.9958418358616612E-012
  0.10660000000000003          1.3920012711943208E-011
  0.10770000000000002          8.6689769945857975E-012
  0.10880000000000001         -5.6086732480586932E-012
  0.10990000000000003         -1.8127235823506282E-011
  0.11100000000000002         -1.7229722856781926E-011
  0.11210000000000001         -6.6652174231240924E-013
  0.11320000000000002          2.0273513770541207E-011
  0.11430000000000001          2.7854539855209914E-011
  0.11540000000000003          1.2339165279817710E-011
  0.11650000000000002         -1.7591546275230741E-011
  0.11760000000000001         -3.8498555038346538E-011
  0.11870000000000003         -2.9822592312322982E-011
  0.11980000000000002          7.2255738718662865E-012
  0.12090000000000001          4.5975518531138349E-011
  0.12200000000000003          5.2366902481004729E-011
  0.12310000000000001          1.3723319355896102E-011
  0.12420000000000003         -4.5419314143035905E-011
  0.12530000000000002         -7.7065402670495331E-011
  0.12640000000000001         -4.7312445627945010E-011
  0.12750000000000003          3.0195217853856704E-011
  0.12860000000000002          9.6207139477222370E-011
  0.12970000000000001          8.9559325233690146E-011
  0.13080000000000003          2.0444761335280948E-012
  0.13190000000000002         -1.0274070483262676E-010
  0.13300000000000001         -1.3247132557570040E-010
  0.13410000000000000         -4.5113357494130923E-011
  0.13520000000000004          1.0075781875507062E-010
  0.13630000000000003          1.7889975612028763E-010
  0.13740000000000002          1.0137946732102776E-010
  0.13850000000000001         -9.0804946895062244E-011
  0.13960000000000000         -2.4071686310911389E-010
  0.14070000000000005         -1.9455902167120342E-010
  0.14180000000000004          4.8756474552158480E-011
  0.14290000000000003          3.0392030558878957E-010
  0.14400000000000002          3.3118566222789525E-010
  0.14510000000000001          5.0695239672826631E-011
  0.14620000000000000         -3.3149782918684423E-010
  0.14730000000000004         -4.7248899237573028E-010
  0.14840000000000003         -1.8938763057807506E-010
  0.14950000000000002          3.1091973440311449E-010
  0.15060000000000001          5.5311621949272194E-010
  0.15170000000000000          2.4427834754980893E-010
  0.15280000000000005         -3.4306063545486154E-010
  0.15390000000000004         -5.8824106696775402E-010
  0.15500000000000003         -1.8441442817263010E-010
  0.15610000000000002          5.4665100224227103E-010
  0.15720000000000001          9.2461682754674257E-010
  0.15830000000000000          5.1183840499291477E-010
  0.15940000000000004         -6.1609112256277854E-010
  0.16050000000000003         -1.6445559358757578E-009
  0.16160000000000002         -1.5152519239336470E-009
  0.16270000000000001         -3.5217419258604110E-011
  0.16380000000000000          1.7233181548448329E-009
  0.16490000000000005          1.8745043295353980E-009
  0.16600000000000004          3.7855546475284996E-010
  0.16710000000000003         -1.3322370984170107E-009
  0.16820000000000002         -1.6107380984564657E-009
  0.16930000000000001          4.5017026217841760E-010
  0.17040000000000000          2.9328088846369837E-009
  0.17150000000000004          3.0123803451687081E-009
  0.17260000000000003          1.1596857502071956E-010
  0.17370000000000002         -3.3215310502043849E-009
  0.17480000000000001         -4.1490770819052614E-009
  0.17590000000000000         -3.3851883518565273E-009
  0.17700000000000005         -2.1120403204122340E-009
  0.17810000000000004          1.1344871708729443E-009
  0.17920000000000003          5.5905053919502734E-009
  0.18030000000000002          8.3914315496258496E-009
  0.18140000000000001          9.1553200576299787E-009
  0.18250000000000000          6.4817089473478973E-009
  0.18360000000000004         -6.7590297803121757E-009
  0.18470000000000003         -2.3437268126258459E-008
  0.18580000000000002         -2.1654861015463212E-008
  0.18690000000000001          7.1182828520477415E-009
  0.18800000000000000          3.5891424943201855E-008
  0.18910000000000005          2.7234017707655767E-008
  0.19020000000000004         -6.6317178415431499E-009
  0.19130000000000003         -3.1585418724944248E-008
  0.19240000000000002         -2.7765976184923602E-008
  0.19350000000000001          4.3173526975692766E-009
  0.19460000000000005          3.2835867358471660E-008
  0.19570000000000004          2.0104387488117936E-008
  0.19680000000000003         -2.8784493011357881E-008
  0.19790000000000002         -5.0682636754117993E-008
  0.19900000000000001         -1.1978936953482844E-008
  0.20010000000000000          5.0659942019137816E-008
  0.20120000000000005          8.0706236360583716E-008
  0.20230000000000004          5.7280313825458506E-008
  0.20340000000000003         -7.7523520936040313E-010
  0.20450000000000002         -4.9664119927683714E-008
  0.20560000000000000         -8.1238191285137873E-008
  0.20670000000000005         -1.0568263064669736E-007
  0.20780000000000004         -6.7997447672496492E-008
  0.20890000000000003          8.3761790392600233E-008
