 -0.12000000000000000          0.0000000000000000
 -0.11889999999999999          0.0000000000000000
 -0.11780000000000000          0.0000000000000000
 -0.11670000000000000          0.0000000000000000
 -0.11559999999999999          6.8986863086922508E-016
 -0.11449999999999999         -2.9642786197935176E-015
 -0.11340000000000000         -6.8986848263845931E-015
 -0.11230000000000000          3.1044082777521853E-014
 -0.11119999999999999         -1.0348027366631832E-013
 -0.11009999999999999         -1.3797369822175776E-013
 -0.10900000000000000          4.0012372755360293E-013
 -0.10790000000000000          5.5189479288703103E-013
 -0.10679999999999999         -1.3245474595607876E-012
 -0.10569999999999999         -1.5453054417677303E-012
 -0.10460000000000000          1.3245474595607876E-012
 -0.10349999999999999          3.5321266311089117E-012
 -0.10239999999999999         -8.8303165777722792E-013
 -0.10130000000000000          0.0000000000000000
 -0.10020000000000000         -2.2075790848119503E-011
  -9.9099999999999994E-002     0.0000000000000000
  -9.7999999999999990E-002     3.1789140764182378E-011
  -9.6899999999999986E-002     2.8257013048871293E-011
  -9.5799999999999996E-002    -1.0596379676486301E-011
  -9.4699999999999993E-002    -3.1789140764182378E-011
  -9.3599999999999989E-002    -2.8257013048871293E-011
  -9.2499999999999999E-002    -1.4128506524435647E-011
  -9.1399999999999995E-002     2.8257013048871293E-011
  -9.0299999999999991E-002     9.1835289373065621E-011
  -8.9200000000000002E-002    -9.8899548273134741E-011
  -8.8099999999999984E-002     2.8257013048871293E-011
  -8.6999999999999994E-002    -4.2385518705945202E-011
  -8.5899999999999990E-002    -3.6645814854852077E-011
  -8.4799999999999986E-002     1.1302805219548517E-010
  -8.3699999999999997E-002    -1.4128506697907994E-010
  -8.2599999999999993E-002     2.5431312611345902E-010
  -8.1499999999999989E-002     2.6844163003580945E-010
  -8.0399999999999999E-002     3.7793754237291921E-010
  -7.9299999999999995E-002    -2.5431312611345902E-010
  -7.8199999999999992E-002    -1.2715656305672951E-009
  -7.7100000000000002E-002    -1.6106497247037055E-009
  -7.5999999999999984E-002     1.9779909654626948E-010
  -7.4899999999999994E-002     3.1082714180286075E-009
  -7.3799999999999991E-002     3.6310261464223004E-009
  -7.2699999999999987E-002    -5.6514026097742587E-011
  -7.1599999999999997E-002    -5.3688324896938866E-009
  -7.0499999999999993E-002    -7.4315944509351084E-009
  -6.9399999999999989E-002    -1.5823927723701559E-009
  -6.8300000000000000E-002     6.6686549615724289E-009
  -6.7199999999999996E-002     8.8161877798142996E-009
  -6.6099999999999992E-002     2.9387292599380999E-009
  -6.5000000000000002E-002    -1.4552361538022751E-009
  -6.3899999999999985E-002     4.2950660805729513E-009
  -6.2799999999999995E-002     3.8429539550577374E-009
  -6.1699999999999991E-002    -8.0249913381180704E-009
  -6.0599999999999994E-002    -2.5968194705683345E-008
  -5.9499999999999990E-002    -2.6900677241314952E-008
  -5.8399999999999994E-002    -1.8084488351277628E-009
  -5.7299999999999990E-002     4.7697838567728468E-008
  -5.6199999999999986E-002     6.8834083322144579E-008
  -5.5099999999999996E-002    -8.4771043518117040E-009
  -5.3999999999999992E-002    -1.0127313743168997E-007
  -5.2899999999999989E-002    -4.4306997182275154E-008
  -5.1799999999999985E-002     1.0308158238103715E-007
  -5.0699999999999995E-002     1.9621670332981012E-007
  -4.9599999999999991E-002     6.4199930704944563E-008
  -4.8499999999999988E-002    -2.6765042093757074E-007
  -4.7399999999999998E-002    -5.2625858870669617E-007
  -4.6299999999999994E-002    -3.3637147112131061E-007
  -4.5199999999999990E-002     3.7977426359248057E-007
  -4.4099999999999986E-002     1.0742186304923962E-006
  -4.2999999999999997E-002     1.0489003443581169E-006
  -4.1899999999999993E-002    -3.1105321340874070E-007
  -4.0799999999999989E-002    -1.3382521046878537E-006
  -3.9699999999999985E-002    -1.5118632745725336E-006
  -3.8599999999999995E-002    -4.4126150555712229E-007
  -3.7499999999999992E-002     8.6805545151946717E-007
  -3.6399999999999988E-002     1.4178239098328049E-006
  -3.5299999999999984E-002     7.9571748301532352E-007
  -3.4199999999999994E-002    -1.3599535577668576E-006
  -3.3099999999999991E-002    -1.0706016837502830E-006
  -3.1999999999999987E-002    -1.4467590858657786E-007
  -3.0899999999999997E-002     3.4722218060778687E-006
  -2.9799999999999993E-002     6.1342584558587987E-006
  -2.8699999999999989E-002    -1.7361108461955155E-007
  -2.7599999999999986E-002    -6.5972212723863777E-006
  -2.6499999999999996E-002    -9.7222209660685621E-006
  -2.5399999999999992E-002    -5.9027770475950092E-006
  -2.4299999999999988E-002     9.2592580358541454E-007
  -2.3199999999999985E-002     1.4120368177827913E-005
  -2.2099999999999995E-002     1.6435182260465808E-005
  -2.0999999999999991E-002     8.3333325164858252E-006
  -1.9899999999999987E-002    -1.2268516911717597E-005
  -1.8799999999999983E-002    -2.4537033823435195E-005
  -1.7699999999999994E-002    -2.5462959456490353E-005
  -1.6599999999999990E-002     7.8703696999582462E-006
  -1.5499999999999986E-002     5.5555548897245899E-005
  -1.4399999999999996E-002     7.8703696999582462E-006
  -1.3299999999999992E-002    -8.7962953330134042E-006
  -1.2199999999999989E-002    -9.2592581495409831E-006
  -1.1099999999999985E-002    -3.6111105146119371E-005
  -9.9999999999999950E-003    -1.7592590666026808E-005
  -8.8999999999999913E-003     3.3333330065943301E-005
  -7.7999999999999875E-003     1.8518516071708291E-006
  -6.6999999999999837E-003     1.1111109415651299E-005
  -5.5999999999999939E-003    -4.6296288928715512E-005
  -4.4999999999999901E-003     9.2592581495409831E-006
  -3.3999999999999864E-003     3.8888883864274248E-005
  -2.2999999999999826E-003     5.5555548897245899E-005
  -1.1999999999999927E-003     5.3703697631135583E-005
  -9.9999999999988987E-005    -7.7777767728548497E-005
   1.0000000000000148E-003    -1.2037035776302218E-004
   2.1000000000000185E-003    -8.3333325164858252E-005
   3.2000000000000084E-003     1.9444442295935005E-004
   4.3000000000000121E-003     1.4629628276452422E-004
   5.4000000000000159E-003    -1.7407405539415777E-004
   6.5000000000000058E-003    -2.9629626078531146E-004
   7.6000000000000234E-003     7.7777767728548497E-005
   8.7000000000000133E-003     2.5925922091118991E-004
   9.8000000000000032E-003     3.8888884591870010E-004
   1.0900000000000021E-002     7.4074064286833163E-006
   1.2000000000000011E-002    -7.2222214657813311E-004
   1.3100000000000001E-002    -5.9999991208314896E-004
   1.4200000000000018E-002     4.5185178169049323E-004
   1.5300000000000008E-002     9.9259242415428162E-004
   1.6400000000000026E-002     9.3703693710267544E-004
   1.7500000000000016E-002    -1.8148146045859903E-004
   1.8600000000000005E-002    -1.3851850526407361E-003
   1.9700000000000023E-002    -1.5925923362374306E-003
   2.0800000000000013E-002    -3.7592588341794908E-004
   2.1900000000000003E-002     1.5370368491858244E-003
   2.3000000000000020E-002     2.4796293582767248E-003
   2.4100000000000010E-002     7.8611099161207676E-004
   2.5200000000000000E-002    -2.0203702151775360E-003
   2.6300000000000018E-002    -2.8799765277653933E-003
   2.7400000000000008E-002    -8.3981471834704280E-004
   2.8500000000000025E-002     1.4333331491798162E-003
   2.9600000000000015E-002     2.7777773793786764E-003
   3.0700000000000005E-002     1.6148146241903305E-003
   3.1800000000000023E-002    -1.3185183051973581E-003
   3.2900000000000013E-002    -2.0518514793366194E-003
   3.4000000000000002E-002    -1.0074073215946555E-003
   3.5100000000000020E-002     1.1481479741632938E-003
   3.6200000000000010E-002     1.7777775647118688E-003
   3.7300000000000028E-002     1.3333332026377320E-004
   3.8400000000000017E-002    -2.3407405242323875E-003
   3.9500000000000007E-002    -2.7259255293756723E-003
   4.0600000000000025E-002    -4.4444439117796719E-004
   4.1700000000000015E-002     2.5481479242444038E-003
   4.2800000000000005E-002     3.0074070673435926E-003
   4.3900000000000022E-002     2.0592589862644672E-003
   4.5000000000000012E-002    -1.4370369026437402E-003
   4.6100000000000002E-002    -2.2666663862764835E-003
   4.7200000000000020E-002    -8.8888878235593438E-004
   4.8300000000000010E-002     7.4074062285944819E-004
   4.9400000000000027E-002     9.4814802287146449E-004
   5.0500000000000017E-002    -3.2592588104307652E-004
   5.1600000000000007E-002    -1.4814812457188964E-003
   5.2700000000000025E-002    -1.0962961241602898E-003
   5.3800000000000014E-002     8.8888875325210392E-005
   5.4900000000000004E-002     1.9555552862584591E-003
   5.6000000000000022E-002     2.6962959673255682E-003
   5.7100000000000012E-002     1.6888886457309127E-003
   5.8200000000000002E-002    -1.1851850431412458E-003
   5.9300000000000019E-002    -2.9777772724628448E-003
   6.0400000000000009E-002    -2.5777774862945080E-003
   6.1500000000000027E-002     8.8888875325210392E-005
   6.2600000000000017E-002     2.8740738052874804E-003
   6.3700000000000007E-002     1.8666663672775030E-003
   6.4800000000000024E-002    -1.8370368052273989E-003
   6.5900000000000014E-002    -3.9481474086642265E-003
   6.7000000000000004E-002    -1.6444441862404346E-003
   6.8100000000000022E-002     3.0518514104187489E-003
   6.9200000000000012E-002     4.7555547207593918E-003
   7.0300000000000029E-002     2.1740738302469254E-003
   7.1400000000000019E-002    -2.2666663862764835E-003
   7.2500000000000009E-002    -4.2222216725349426E-003
   7.3600000000000027E-002    -1.3037035241723061E-003
   7.4700000000000016E-002     2.4148144293576479E-003
   7.5800000000000006E-002     2.6370366103947163E-003
   7.6900000000000024E-002     1.6296294052153826E-004
   7.8000000000000014E-002    -3.6148142535239458E-003
   7.9100000000000004E-002    -3.1703698914498091E-003
   8.0200000000000021E-002     7.1111100260168314E-004
   8.1300000000000011E-002     4.5925918966531754E-003
   8.2400000000000029E-002     4.8592584207653999E-003
   8.3500000000000019E-002     4.4444439117796719E-004
   8.4600000000000009E-002    -5.0666658207774162E-003
   8.5700000000000026E-002    -6.1925919726490974E-003
   8.6800000000000016E-002    -6.5185176208615303E-004
   8.7900000000000006E-002     4.7703697346150875E-003
   8.9000000000000024E-002     4.8296288587152958E-003
   9.0100000000000013E-002     8.8888875325210392E-005
   9.1200000000000003E-002    -3.9703696966171265E-003
   9.2300000000000021E-002    -3.3481477294117212E-003
   9.3400000000000011E-002     6.8148138234391809E-004
   9.4500000000000028E-002     2.7259255293756723E-003
   9.5600000000000018E-002     1.3629627646878362E-003
   9.6700000000000008E-002    -2.6666664052754641E-003
   9.7800000000000026E-002    -2.7259255293756723E-003
   9.8900000000000016E-002     1.2148146051913500E-003
  0.10000000000000001          5.0666658207774162E-003
  0.10110000000000002          5.6592584587633610E-003
  0.10220000000000001          4.1481477092020214E-004
  0.10330000000000003         -5.0962958484888077E-003
  0.10440000000000002         -5.3481473587453365E-003
  0.10550000000000001         -2.0888885483145714E-003
  0.10660000000000003          1.2888887431472540E-003
  0.10770000000000002          1.3777775457128882E-003
  0.10880000000000001         -7.0370361208915710E-004
  0.10990000000000003         -1.9037034362554550E-003
  0.11100000000000002         -6.6666660131886601E-005
  0.11210000000000001          3.2618050463497639E-003
  0.11320000000000002          4.9185180105268955E-003
  0.11430000000000001          3.5037032794207335E-003
  0.11540000000000003         -3.9259254117496312E-004
  0.11650000000000002         -3.2370365224778652E-003
  0.11760000000000001         -3.2148144673556089E-003
  0.11870000000000003         -2.5481479242444038E-003
  0.11980000000000002         -2.1333331242203712E-003
  0.12090000000000001         -2.3259255103766918E-003
  0.12200000000000003         -6.9629622157663107E-004
  0.12310000000000001          2.6814811863005161E-003
  0.12420000000000003          5.5703697726130486E-003
  0.12530000000000002          4.9185180105268955E-003
  0.12640000000000001          8.5925916209816933E-004
  0.12750000000000003         -3.7925920914858580E-003
  0.12860000000000002         -4.5629623346030712E-003
  0.12970000000000001         -1.3333332026377320E-003
  0.13080000000000003          2.1925922483205795E-003
  0.13190000000000002          1.7777775647118688E-003
  0.13300000000000001         -1.7185183241963387E-003
  0.13410000000000000         -3.9999992586672306E-003
  0.13520000000000004         -2.1037033293396235E-003
  0.13630000000000003          3.3777772914618254E-003
  0.13740000000000002          6.9777769967913628E-003
  0.13850000000000001          4.8740734346210957E-003
  0.13960000000000000         -1.2592590646818280E-003
  0.14070000000000005         -6.1777769587934017E-003
  0.14180000000000004         -5.1999990828335285E-003
  0.14290000000000003          3.1111107091419399E-004
  0.14400000000000002          4.4296290725469589E-003
  0.14510000000000001          2.4444442242383957E-003
  0.14620000000000000         -3.0370366293936968E-003
  0.14730000000000004         -5.5629620328545570E-003
  0.14840000000000003         -2.0888885483145714E-003
  0.14950000000000002          4.4888881966471672E-003
  0.15060000000000001          7.7037028968334198E-003
  0.15170000000000000          4.2074066586792469E-003
  0.15280000000000005         -2.5629627052694559E-003
  0.15390000000000004         -6.3777770847082138E-003
  0.15500000000000003         -4.0518511086702347E-003
  0.15610000000000002          1.4518516836687922E-003
  0.15720000000000001          3.8462958764284849E-003
  0.15830000000000000          4.4259254354983568E-004
  0.15940000000000004         -4.5555550605058670E-003
  0.16050000000000003         -4.9930550158023834E-003
  0.16160000000000002          5.5124412756413221E-004
  0.16270000000000001          6.8986103869974613E-003
  0.16380000000000000          7.5240731239318848E-003
  0.16490000000000005          1.8018516711890697E-003
  0.16600000000000004         -5.0388881936669350E-003
  0.16710000000000003         -6.3981474377214909E-003
  0.16820000000000002         -1.2333331396803260E-003
  0.16930000000000001          4.1074068285524845E-003
  0.17040000000000000          4.0462957695126534E-003
  0.17150000000000004         -1.3592591276392341E-003
  0.17260000000000003         -6.1685177497565746E-003
  0.17370000000000002         -4.7888881526887417E-003
  0.17480000000000001          1.7888887086883187E-003
  0.17590000000000000          7.4981469660997391E-003
  0.17700000000000005          6.5111103467643261E-003
  0.17810000000000004         -3.2037033815868199E-004
  0.17920000000000003         -6.7944433540105820E-003
  0.18030000000000002         -7.3074065148830414E-003
  0.18140000000000001         -1.7629627836868167E-003
  0.18250000000000000          4.2296289466321468E-003
  0.18360000000000004          5.5277771316468716E-003
  0.18470000000000003          2.1037033293396235E-003
  0.18580000000000002         -2.0185182802379131E-003
  0.18690000000000001         -2.9999995604157448E-003
  0.18800000000000000         -5.6666659656912088E-004
  0.18910000000000005          2.3962960112839937E-003
  0.19020000000000004          2.8851847164332867E-003
  0.19130000000000003          9.6111098537221551E-004
  0.19240000000000002         -9.8611100111156702E-004
  0.19350000000000001         -1.2490738881751895E-003
  0.19460000000000005         -6.2962953234091401E-004
  0.19570000000000004         -6.4722215756773949E-004
  0.19680000000000003         -1.4907405711710453E-003
  0.19790000000000002         -1.7962960992008448E-003
  0.19900000000000001         -4.3425921467132866E-004
  0.20010000000000000          1.7129627522081137E-003
  0.20120000000000005          2.2972219157963991E-003
  0.20230000000000004          3.9444438880309463E-004
  0.20340000000000003         -2.2138885688036680E-003
  0.20450000000000002         -2.6379625778645277E-003
  0.20560000000000000          4.3518513848539442E-005
  0.20670000000000005          3.5305551718920469E-003
  0.20780000000000004          4.1874996386468410E-003
  0.20890000000000003          1.0402776533737779E-003
