 -0.12000000000000000          0.0000000000000000
 -0.11889999999999999          0.0000000000000000
 -0.11780000000000000          0.0000000000000000
 -0.11670000000000000          0.0000000000000000
 -0.11559999999999999          0.0000000000000000
 -0.11449999999999999          0.0000000000000000
 -0.11340000000000000          0.0000000000000000
 -0.11230000000000000          0.0000000000000000
 -0.11119999999999999          0.0000000000000000
 -0.11009999999999999          0.0000000000000000
 -0.10900000000000000          0.0000000000000000
 -0.10790000000000000          0.0000000000000000
 -0.10679999999999999          0.0000000000000000
 -0.10569999999999999          0.0000000000000000
 -0.10460000000000000          0.0000000000000000
 -0.10349999999999999          0.0000000000000000
 -0.10239999999999999         -5.1358135223905632E-039
 -0.10130000000000000          1.4266143223813092E-039
 -0.10020000000000000         -7.0760083842578195E-037
  -9.9099999999999994E-002    -5.6608067074062556E-036
  -9.7999999999999990E-002     1.3147680464925401E-035
  -9.6899999999999986E-002     1.6945899010805249E-034
  -9.5799999999999996E-002    -2.3373653649670178E-034
  -9.4699999999999993E-002    -9.3494613450737010E-035
  -9.3599999999999989E-002    -1.4959138152117922E-033
  -9.2499999999999999E-002    -4.4877413537998803E-033
  -9.1399999999999995E-002     1.9072901304662468E-032
  -9.0299999999999991E-002    -1.3164041500395374E-031
  -8.9200000000000002E-002     3.3508470342364908E-031
  -8.8099999999999984E-002     2.3934621337262262E-031
  -8.6999999999999994E-002    -9.8131942310600132E-031
  -8.5899999999999990E-002     2.6806776273891926E-030
  -8.4799999999999986E-002    -6.1272629871075007E-030
  -8.3699999999999997E-002    -2.2977236483771772E-029
  -8.2599999999999993E-002     1.2254525974215001E-029
  -8.1499999999999989E-002     4.9018103896860006E-029
  -8.0399999999999999E-002     2.4509051948430003E-029
  -7.9299999999999995E-002    -5.6370818729072622E-028
  -7.8199999999999992E-002     6.8625347261163331E-028
  -7.7100000000000002E-002     0.0000000000000000
  -7.5999999999999984E-002    -3.5293036009445419E-027
  -7.4899999999999994E-002    -2.3528689389010317E-027
  -7.3799999999999991E-002     3.1371586493990404E-027
  -7.2699999999999987E-002    -6.2743172987980807E-027
  -7.1599999999999997E-002     1.8822951511208253E-026
  -7.0499999999999993E-002     1.2548634597596161E-026
  -6.9399999999999989E-002     8.7840444494289064E-026
  -6.8300000000000000E-002    -5.0194538390384646E-026
  -6.7199999999999996E-002    -1.5058361208966603E-025
  -6.6099999999999992E-002    -2.0077815356153858E-025
  -6.5000000000000002E-002     6.0233444835866411E-025
  -6.3899999999999985E-002     0.0000000000000000
  -6.2799999999999995E-002     2.0077815356153858E-025
  -6.1699999999999991E-002    -1.1042798384254864E-024
  -6.0599999999999994E-002    -2.4093377934346564E-024
  -5.9499999999999990E-002     8.0311262410691565E-024
  -5.8399999999999994E-002     3.2124504569846173E-024
  -5.7299999999999990E-002    -1.3652915083134109E-023
  -5.6199999999999986E-002     1.9274702347477251E-023
  -5.5099999999999996E-002    -1.2849801827938469E-023
  -5.3999999999999992E-002    -5.7824110197875375E-023
  -5.2899999999999989E-002    -1.1564822039575075E-022
  -5.1799999999999985E-002     1.7989723032430400E-022
  -5.0699999999999995E-002     5.1399207942842602E-022
  -4.9599999999999991E-002    -4.1119365849403102E-022
  -4.8499999999999988E-002    -3.5979446064860800E-022
  -4.7399999999999998E-002     3.0839523755963602E-022
  -4.6299999999999994E-002    -6.1679047511927204E-022
  -4.5199999999999990E-002     0.0000000000000000
  -4.4099999999999986E-002     3.5722449065891727E-021
  -4.2999999999999997E-002    -1.6447746339761241E-021
  -4.1899999999999993E-002    -1.6447746339761241E-021
  -4.0799999999999989E-002    -5.7567113703777281E-021
  -3.9699999999999985E-002    -1.0279841588568520E-021
  -3.8599999999999995E-002    -3.2895492679522482E-021
  -3.7499999999999992E-002     6.5790985359044963E-021
  -3.6399999999999988E-002     3.9474590407633411E-020
  -3.5299999999999984E-002     2.2204458315984144E-020
  -3.4199999999999994E-002    -5.5922340180517311E-020
  -3.3099999999999991E-002    -7.8949180815266822E-020
  -3.1999999999999987E-002    -5.2632788287235970E-020
  -3.0899999999999997E-002     1.2171331988500731E-019
  -2.9799999999999993E-002     1.3158197233367706E-019
  -2.8699999999999989E-002     7.8949180815266822E-020
  -2.7599999999999986E-002    -7.8949180815266822E-020
  -2.6499999999999996E-002    -3.9474591700103118E-019
  -2.5399999999999992E-002    -2.3684755537049754E-019
  -2.4299999999999988E-002     1.0526557657447194E-019
  -2.3199999999999985E-002     1.2631868930442691E-018
  -2.2099999999999995E-002     1.2105541144505560E-018
  -2.0999999999999991E-002    -5.2632788287235970E-020
  -1.9899999999999987E-002    -3.7895608859279606E-018
  -1.8799999999999983E-002    -4.0000920003028132E-018
  -1.7699999999999994E-002    -1.2631868930442691E-018
  -1.6599999999999990E-002     4.8948491329983605E-018
  -1.5499999999999986E-002     1.0947619601853564E-017
  -1.4399999999999996E-002     8.4212462293553318E-018
  -1.3299999999999992E-002    -3.3684984503831021E-018
  -1.2199999999999989E-002    -1.5789837300426707E-017
  -1.1099999999999985E-002    -2.5263738688065996E-017
  -9.9999999999999950E-003    -1.3473993801532408E-017
  -8.8999999999999913E-003     1.6842492458710664E-017
  -7.7999999999999875E-003     5.5580224121128455E-017
  -6.6999999999999837E-003     5.0948538777701084E-017
  -5.5999999999999939E-003    -1.0105495144354153E-017
  -4.4999999999999901E-003    -7.7475463324835583E-017
  -3.3999999999999864E-003    -1.2463443956224748E-016
  -2.2999999999999826E-003    -7.7475463324835583E-017
  -1.1999999999999927E-003     1.0442345258226162E-016
  -9.9999999999988987E-005     3.3684983593932347E-016
   1.0000000000000148E-003     1.8863591818453739E-016
   2.1000000000000185E-003    -1.2800294400969002E-016
   3.2000000000000084E-003    -4.4464179296902764E-016
   4.3000000000000121E-003    -6.4675168923866580E-016
   5.4000000000000159E-003    -3.2337584461933290E-016
   6.5000000000000058E-003     7.8149165537813071E-016
   7.6000000000000234E-003     1.5831942580315779E-015
   8.7000000000000133E-003     1.1857114479174070E-015
   9.8000000000000032E-003    -7.0064765451862809E-016
   1.0900000000000021E-002    -2.6947986875145878E-015
   1.2000000000000011E-002    -3.2068106223720255E-015
   1.3100000000000001E-002    -8.6233560329807414E-016
   1.4200000000000018E-002     3.5571343437522211E-015
   1.5300000000000008E-002     6.3597249618267335E-015
   1.6400000000000026E-002     5.2818056562274878E-015
   1.7500000000000016E-002    -1.1318154826374448E-015
   1.8600000000000005E-002    -1.0348027027818653E-014
   1.9700000000000023E-002    -1.4659705944281530E-014
   2.0800000000000013E-002    -5.8207655207853475E-015
   2.1900000000000003E-002     1.1210362472298049E-014
   2.3000000000000020E-002     2.6301235291786330E-014
   2.4100000000000010E-002     2.4576564402827537E-014
   2.5200000000000000E-002     0.0000000000000000
   2.6300000000000018E-002    -4.0098604097522569E-014
   2.7400000000000008E-002    -6.1656998679836955E-014
   2.8500000000000025E-002    -3.3631087416894148E-014
   2.9600000000000015E-002     4.3979116138778696E-014
   3.0700000000000005E-002     1.2072698255590625E-013
   3.1800000000000023E-002     1.1813998130466574E-013
   3.2900000000000013E-002    -7.7610206943804633E-015
   3.4000000000000002E-002    -2.0006186377680146E-013
   3.5100000000000020E-002    -2.9319409855683987E-013
   3.6200000000000010E-002    -1.3797369822175776E-013
   3.7300000000000028E-002     2.4813706861817608E-013
   3.8400000000000017E-002     6.0708426133371240E-013
   3.9500000000000007E-002     5.2085072366203633E-013
   4.0600000000000025E-002    -1.5177106533342810E-013
   4.1700000000000015E-002    -1.0261793585014667E-012
   4.2800000000000005E-002    -1.3297214891683229E-012
   4.3900000000000022E-002    -3.9322503044524060E-013
   4.5000000000000012E-002     1.4487238448809836E-012
   4.6100000000000002E-002     2.7180818359950898E-012
   4.7200000000000020E-002     1.7807230299690668E-012
   4.8300000000000010E-002    -1.4625211848875996E-012
   4.9400000000000027E-002    -4.7187002569226699E-012
   5.0500000000000017E-002    -4.6221186600359232E-012
   5.1600000000000007E-002     2.5525133222348284E-013
   5.2700000000000025E-002     7.1940348643495522E-012
   5.3800000000000014E-002     9.8513220150864278E-012
   5.4900000000000004E-002     3.5045319510956796E-012
   5.6000000000000022E-002    -9.5477801012600061E-012
   5.7100000000000012E-002    -1.8309109436898119E-011
   5.8200000000000002E-002    -1.1976117146594856E-011
   5.9300000000000019E-002     9.5201849875659050E-012
   6.0400000000000009E-002     3.0574969639429739E-011
   6.1500000000000027E-002     2.9415990476788778E-011
   6.2600000000000017E-002    -3.0906108835354607E-012
   6.3700000000000007E-002    -4.6165998107694506E-011
   6.4800000000000024E-002    -5.9770202676112660E-011
   6.5900000000000014E-002    -1.7991769532543778E-011
   6.7000000000000004E-002     5.9935771623553791E-011
   6.8100000000000022E-002     1.0830935454064772E-010
   6.9200000000000012E-002     6.6227377748528937E-011
   7.0300000000000029E-002    -6.0266909518436051E-011
   7.1400000000000019E-002    -1.7561292697809705E-010
   7.2500000000000009E-002    -1.5872493597246518E-010
   7.3600000000000027E-002     2.3124391290707536E-011
   7.4700000000000016E-002     2.4923568764378956E-010
   7.5800000000000006E-002     3.1435926084455446E-010
   7.6900000000000024E-002     9.0510744732430481E-011
   7.8000000000000014E-002    -3.0166569242595642E-010
   7.9100000000000004E-002    -5.3456528092965527E-010
   8.0200000000000021E-002    -3.2429336993544666E-010
   8.1300000000000011E-002     2.7153224113618535E-010
   8.2400000000000029E-002     8.0002665603373657E-010
   8.3500000000000019E-002     7.2187839039727919E-010
   8.4600000000000009E-002    -8.1459672340855604E-011
   8.5700000000000026E-002    -1.0609625400448408E-009
   8.6800000000000016E-002    -1.3192492653857357E-009
   8.7900000000000006E-002    -3.7572997491075455E-010
   8.9000000000000024E-002     1.2206808897019528E-009
   9.0100000000000013E-002     2.1298722785445534E-009
   9.1200000000000003E-002     1.2671503846206633E-009
   9.2300000000000021E-002    -1.0640531789007923E-009
   9.3400000000000011E-002    -3.0861957434069609E-009
   9.4500000000000028E-002    -2.7797837365284295E-009
   9.5600000000000018E-002     2.2252397147148884E-010
   9.6700000000000008E-002     3.8871053043010306E-009
   9.7800000000000026E-002     4.9396788881495013E-009
   9.8900000000000016E-002     1.7258853235446736E-009
  0.10000000000000001         -3.9277248120583863E-009
  0.10110000000000002         -7.4404247207837670E-009
  0.10220000000000001         -5.0633035542091420E-009
  0.10330000000000003          2.5148740867564356E-009
  0.10440000000000002          9.6296810525586807E-009
  0.10550000000000001          9.7274766019950221E-009
  0.10660000000000003          1.0437434250221145E-009
  0.10770000000000002         -1.0591081789357304E-008
  0.10880000000000001         -1.5368282646477383E-008
  0.10990000000000003         -7.3927410859653264E-009
  0.11100000000000002          9.0245837469637991E-009
  0.11210000000000001          2.1090327706474454E-008
  0.11320000000000002          1.6982465211867748E-008
  0.11430000000000001         -3.1987821280665685E-009
  0.11540000000000003         -2.5010988835560966E-008
  0.11650000000000002         -2.9408486312831883E-008
  0.11760000000000001         -8.6042604152680724E-009
  0.11870000000000003          2.4378737251140592E-008
  0.11980000000000002          4.2981564973842978E-008
  0.12090000000000001          2.7472880859136239E-008
  0.12200000000000003         -1.5852183565812084E-008
  0.12310000000000001         -5.4408879179845826E-008
  0.12420000000000003         -5.3123184073911034E-008
  0.12530000000000002         -4.4151584610574446E-009
  0.12640000000000001          5.8511442802000602E-008
  0.12750000000000003          8.2411581558972102E-008
  0.12860000000000002          3.7610085712458385E-008
  0.12970000000000001         -4.9697021609063086E-008
  0.13080000000000003         -1.0942088124465954E-007
  0.13190000000000002         -8.1097624615722452E-008
  0.13300000000000001          2.7041961558893490E-008
  0.13410000000000000          1.3179071345348348E-007
  0.13520000000000004          1.3342960869522358E-007
  0.13630000000000003          8.6466460658130018E-009
  0.13740000000000002         -1.4959262273350760E-007
  0.13850000000000001         -1.9983359322850447E-007
  0.13960000000000000         -7.2733548961423367E-008
  0.14070000000000005          1.5665688124499866E-007
  0.14180000000000004          2.8573492727446137E-007
  0.14290000000000003          1.7819931485973939E-007
  0.14400000000000002         -1.2862592768669856E-007
  0.14510000000000001         -3.8135664226501831E-007
  0.14620000000000000         -3.1353982876680675E-007
  0.14730000000000004          5.7192195868083218E-008
  0.14840000000000003          4.5753756694466574E-007
  0.14950000000000002          4.5211220367491478E-007
  0.15060000000000001         -1.1754917039752399E-008
  0.15170000000000000         -5.4976845831333776E-007
  0.15280000000000005         -5.1812060064548859E-007
  0.15390000000000004          7.2337954293288931E-008
  0.15500000000000003          6.6189227254653815E-007
  0.15610000000000002          6.6731763581628911E-007
  0.15720000000000001          1.9892937075383088E-008
  0.15830000000000000         -7.7039919688104419E-007
  0.15940000000000004         -1.2803817526219063E-006
  0.16050000000000003         -5.8955430404239451E-007
  0.16160000000000002          8.2465265904829721E-007
  0.16270000000000001          1.8663191667656065E-006
  0.16380000000000000          1.3310183248904650E-006
  0.16490000000000005         -1.0561341241555056E-006
  0.16600000000000004         -1.6637728776913718E-006
  0.16710000000000003         -1.4467590290223598E-006
  0.16820000000000002          9.4039342002361082E-007
  0.16930000000000001          2.8067127004760550E-006
  0.17040000000000000          1.7071756701625418E-006
  0.17150000000000004         -1.5624998468410922E-006
  0.17260000000000003         -3.7037032143416582E-006
  0.17370000000000002         -2.5462959456490353E-006
  0.17480000000000001          1.0416665645607281E-006
  0.17590000000000000          3.4722216923910310E-007
  0.17700000000000005          1.9675924249895616E-006
  0.17810000000000004          3.9351848499791231E-006
  0.17920000000000003          4.1666662582429126E-006
  0.18030000000000002          9.2592580358541454E-007
  0.18140000000000001          4.6296290179270727E-007
  0.18250000000000000         -5.3240732995618600E-006
  0.18360000000000004         -1.8749997252598405E-005
  0.18470000000000003         -1.1574072232178878E-005
  0.18580000000000002          1.4814812857366633E-005
  0.18690000000000001          3.7499994505196810E-005
  0.18800000000000000          1.4814812857366633E-005
  0.18910000000000005         -3.0555551347788423E-005
  0.19020000000000004         -3.1018513254821301E-005
  0.19130000000000003         -1.4351850040839054E-005
  0.19240000000000002          2.1296293198247440E-005
  0.19350000000000001          3.7037032598163933E-005
  0.19460000000000005          1.4814812857366633E-005
  0.19570000000000004         -3.7962956412229687E-005
  0.19680000000000003         -5.0925918912980705E-005
  0.19790000000000002          1.1111109415651299E-005
  0.19900000000000001          5.9259251429466531E-005
  0.20010000000000000          5.4629621445201337E-005
  0.20120000000000005          0.0000000000000000
  0.20230000000000004         -4.2592586396494880E-005
  0.20340000000000003         -6.2962957599665970E-005
  0.20450000000000002         -2.5925923182512634E-005
  0.20560000000000000         -3.1481478799832985E-005
  0.20670000000000005         -1.2962961591256317E-005
  0.20780000000000004          8.1481470260769129E-005
  0.20890000000000003          1.9444442295935005E-004
