 -0.12000000000000000          0.0000000000000000
 -0.11889999999999999          0.0000000000000000
 -0.11780000000000000          0.0000000000000000
 -0.11670000000000000          0.0000000000000000
 -0.11559999999999999          0.0000000000000000
 -0.11449999999999999          0.0000000000000000
 -0.11340000000000000          0.0000000000000000
 -0.11230000000000000          0.0000000000000000
 -0.11119999999999999          0.0000000000000000
 -0.11009999999999999         -1.7903857454028589E-020
 -0.10900000000000000         -3.9101874455844381E-019
 -0.10790000000000000         -3.3152005151793197E-018
 -0.10679999999999999         -1.5870700822748665E-017
 -0.10569999999999999         -4.7726891976211205E-017
 -0.10460000000000000         -8.6013720869281441E-017
 -0.10349999999999999         -4.6199658485087200E-017
 -0.10239999999999999          2.1885853019860366E-016
 -0.10130000000000000          6.7738235937507183E-016
 -0.10020000000000000          6.2188857231923272E-016
  -9.9099999999999994E-002    -1.4506697065656566E-015
  -9.7999999999999990E-002    -6.1208625177339680E-015
  -9.6899999999999986E-002    -8.5871276926728461E-015
  -9.5799999999999996E-002     4.9539797652010768E-015
  -9.4699999999999993E-002     4.7624193678279594E-014
  -9.3599999999999989E-002     9.3096625514935832E-014
  -9.2499999999999999E-002     2.2457753836918268E-014
  -9.1399999999999995E-002    -3.4035030653176146E-013
  -9.0299999999999991E-002    -9.2636597177897517E-013
  -8.9200000000000002E-002    -8.6972871396126528E-013
  -8.8099999999999984E-002     1.5564937576664772E-012
  -8.6999999999999994E-002     7.0070060864679817E-012
  -8.5899999999999990E-002     1.0664601146626040E-011
  -8.4799999999999986E-002    -3.0722855357857848E-013
  -8.3699999999999997E-002    -3.7217791348798102E-011
  -8.2599999999999993E-002    -8.2012764635042146E-011
  -8.1499999999999989E-002    -6.1190233435759467E-011
  -8.0399999999999999E-002     1.2128087423235456E-010
  -7.9299999999999995E-002     4.4225487161320132E-010
  -7.8199999999999992E-002     5.7853954960052079E-010
  -7.7100000000000002E-002    -4.6245125784327712E-011
  -7.5999999999999984E-002    -1.6832565341573513E-009
  -7.4899999999999994E-002    -3.2929652338253845E-009
  -7.3799999999999991E-002    -2.2288872969511431E-009
  -7.2699999999999987E-002     3.9305541044143411E-009
  -7.1599999999999997E-002     1.3250583741353239E-008
  -7.0499999999999993E-002     1.6299150473741975E-008
  -6.9399999999999989E-002     1.2076013800044194E-010
  -6.8300000000000000E-002    -3.7470883285095624E-008
  -6.7199999999999996E-002    -7.1352971531268850E-008
  -6.6099999999999992E-002    -5.1174303905554552E-008
  -6.5000000000000002E-002     5.9480420588897687E-008
  -6.3899999999999985E-002     2.1919379378232406E-007
  -6.2799999999999995E-002     2.7889058173968806E-007
  -6.1699999999999991E-002     6.0023211290172185E-008
  -6.0599999999999994E-002    -4.5224456357573217E-007
  -5.9499999999999990E-002    -9.3322614702628925E-007
  -5.8399999999999994E-002    -7.9249429063565913E-007
  -5.7299999999999990E-002     3.7005506214882189E-007
  -5.6199999999999986E-002     2.1385371837823186E-006
  -5.5099999999999996E-002     3.0734581741853617E-006
  -5.3999999999999992E-002     1.4918111901351949E-006
  -5.2899999999999989E-002    -2.8835484044975601E-006
  -5.1799999999999985E-002    -7.5832249422091991E-006
  -5.0699999999999995E-002    -8.0325653470936231E-006
  -4.9599999999999991E-002    -8.4513368392435950E-007
  -4.8499999999999988E-002     1.1945787264266983E-005
  -4.7399999999999998E-002     2.1495656255865470E-005
  -4.6299999999999994E-002     1.6729527487768792E-005
  -4.5199999999999990E-002    -6.2236658777692355E-006
  -4.4099999999999986E-002    -3.6344765248941258E-005
  -4.2999999999999997E-002    -5.0175822252640501E-005
  -4.1899999999999993E-002    -2.7205156584386714E-005
  -4.0799999999999989E-002     3.0072327717789449E-005
  -3.9699999999999985E-002     8.7922424427233636E-005
  -3.8599999999999995E-002     9.7685042419470847E-005
  -3.7499999999999992E-002     3.2016196200856939E-005
  -3.6399999999999988E-002    -8.3550425188150257E-005
  -3.5299999999999984E-002    -1.7333008872810751E-004
  -3.4199999999999994E-002    -1.5799918037373573E-004
  -3.3099999999999991E-002    -1.8895969333243556E-005
  -3.1999999999999987E-002     1.6956255421973765E-004
  -3.0899999999999997E-002     2.7590023819357157E-004
  -2.9799999999999993E-002     2.0363714429549873E-004
  -2.8699999999999989E-002    -2.4224571461672895E-005
  -2.7599999999999986E-002    -2.6069988962262869E-004
  -2.6499999999999996E-002    -3.3099704887717962E-004
  -2.5399999999999992E-002    -1.6891588165890425E-004
  -2.4299999999999988E-002     1.1338535841787234E-004
  -2.3199999999999985E-002     2.9328424716368318E-004
  -2.2099999999999995E-002     2.1071803348604590E-004
  -2.0999999999999991E-002    -8.1594713265076280E-005
  -1.9899999999999987E-002    -3.2321989419870079E-004
  -1.8799999999999983E-002    -2.3302597401198000E-004
  -1.7699999999999994E-002     2.4141959147527814E-004
  -1.6599999999999990E-002     8.0501247430220246E-004
  -1.5499999999999986E-002     9.5158477779477835E-004
  -1.4399999999999996E-002     3.0669418629258871E-004
  -1.3299999999999992E-002    -1.0320122819393873E-003
  -1.2199999999999989E-002    -2.3961598053574562E-003
  -1.1099999999999985E-002    -2.8052255511283875E-003
  -9.9999999999999950E-003    -1.4975552912801504E-003
  -8.8999999999999913E-003     1.5113782137632370E-003
  -7.7999999999999875E-003     5.1361452788114548E-003
  -6.6999999999999837E-003     7.4185724370181561E-003
  -5.5999999999999939E-003     6.2849763780832291E-003
  -4.4999999999999901E-003     7.0718757342547178E-004
  -3.3999999999999864E-003    -8.1686172634363174E-003
  -2.2999999999999826E-003    -1.6600199043750763E-002
  -1.1999999999999927E-003    -1.9199158996343613E-002
  -9.9999999999988987E-005    -1.1438488028943539E-002
   1.0000000000000148E-003     7.0428512990474701E-003
   2.1000000000000185E-003     3.0102482065558434E-002
   3.2000000000000084E-003     4.5805323868989944E-002
   4.3000000000000121E-003     4.1247908025979996E-002
   5.4000000000000159E-003     1.0256899520754814E-002
   6.5000000000000058E-003    -3.9820309728384018E-002
   7.6000000000000234E-003    -8.7069831788539886E-002
   8.7000000000000133E-003   -0.10272275656461716
   9.8000000000000032E-003    -6.6042609512805939E-002
   1.0900000000000021E-002     2.0443435758352280E-002
   1.2000000000000011E-002    0.12476818263530731
   1.3100000000000001E-002    0.19506059587001801
   1.4200000000000018E-002    0.18356388807296753
   1.5300000000000008E-002     7.4562914669513702E-002
   1.6400000000000026E-002    -9.9426038563251495E-002
   1.7500000000000016E-002   -0.26528859138488770
   1.8600000000000005E-002   -0.34093940258026123
   1.9700000000000023E-002   -0.27673199772834778
   2.0800000000000013E-002    -8.4342390298843384E-002
   2.1900000000000003E-002    0.16469256579875946
   2.3000000000000020E-002    0.37237960100173950
   2.4100000000000010E-002    0.46202936768531799
   2.5200000000000000E-002    0.41271507740020752
   2.6300000000000018E-002    0.25958821177482605
   2.7400000000000008E-002     6.0428582131862640E-002
   2.8500000000000025E-002   -0.14810939133167267
   2.9600000000000015E-002   -0.37167632579803467
   3.0700000000000005E-002   -0.63657122850418091
   3.1800000000000023E-002   -0.93417632579803467
   3.2900000000000013E-002    -1.1686434745788574
   3.4000000000000002E-002    -1.1527625322341919
   3.5100000000000020E-002   -0.67546218633651733
   3.6200000000000010E-002    0.37722459435462952
   3.7300000000000028E-002     1.9042557477951050
   3.8400000000000017E-002     3.5419960021972656
   3.9500000000000007E-002     4.7272272109985352
   4.0600000000000025E-002     4.8584165573120117
   4.1700000000000015E-002     3.4933938980102539
   4.2800000000000005E-002    0.50411808490753174
   4.3900000000000022E-002    -3.8650481700897217
   4.5000000000000012E-002    -9.0351181030273438
   4.6100000000000002E-002    -14.176760673522949
   4.7200000000000020E-002    -18.278728485107422
   4.8300000000000010E-002    -20.170352935791016
   4.9400000000000027E-002    -18.523990631103516
   5.0500000000000017E-002    -11.902692794799805
   5.1600000000000007E-002     1.0917971134185791
   5.2700000000000025E-002     21.578453063964844
   5.3800000000000014E-002     50.152927398681641
   5.4900000000000004E-002     86.777107238769531
   5.6000000000000022E-002     130.91409301757812
   5.7100000000000012E-002     181.92483520507812
   5.8200000000000002E-002     239.62231445312500
   5.9300000000000019E-002     304.80218505859375
   6.0400000000000009E-002     379.58178710937500
   6.1500000000000027E-002     467.47888183593750
   6.2600000000000017E-002     573.29510498046875
   6.3700000000000007E-002     702.95501708984375
   6.4800000000000024E-002     863.44580078125000
   6.5900000000000014E-002     1062.9028320312500
   6.7000000000000004E-002     1310.7711181640625
   6.8100000000000022E-002     1617.9073486328125
   6.9200000000000012E-002     1996.5540771484375
   7.0300000000000029E-002     2460.2517089843750
   7.1400000000000019E-002     3023.8981933593750
   7.2500000000000009E-002     3704.2016601562500
   7.3600000000000027E-002     4520.6396484375000
   7.4700000000000016E-002     5496.7880859375000
   7.5800000000000006E-002     6661.6396484375000
   7.6900000000000024E-002     8050.4697265625000
   7.8000000000000014E-002     9704.9482421875000
   7.9100000000000004E-002     11672.587890625000
   8.0200000000000021E-002     14005.934570312500
   8.1300000000000011E-002     16762.173828125000
   8.2400000000000029E-002     20003.587890625000
   8.3500000000000019E-002     23799.001953125000
   8.4600000000000009E-002     28225.787109375000
   8.5700000000000026E-002     33371.777343750000
   8.6800000000000016E-002     39336.378906250000
   8.7900000000000006E-002     46230.625000000000
   8.9000000000000024E-002     54176.261718750000
   9.0100000000000013E-002     63304.523437500000
   9.1200000000000003E-002     73755.179687500000
   9.2300000000000021E-002     85676.093750000000
   9.3400000000000011E-002     99223.343750000000
   9.4500000000000028E-002     114561.30468750000
   9.5600000000000018E-002     131862.34375000000
   9.6700000000000008E-002     151305.46875000000
   9.7800000000000026E-002     173074.10937500000
   9.8900000000000016E-002     197353.23437500000
  0.10000000000000001          224326.23437500000
  0.10110000000000002          254171.10937500000
  0.10220000000000001          287056.68750000000
  0.10330000000000003          323138.62500000000
  0.10440000000000002          362553.87500000000
  0.10550000000000001          405415.15625000000
  0.10660000000000003          451805.21875000000
  0.10770000000000002          501771.12500000000
  0.10880000000000001          555317.00000000000
  0.10990000000000003          612399.37500000000
  0.11100000000000002          672918.31250000000
  0.11210000000000001          736710.00000000000
  0.11320000000000002          803538.56250000000
  0.11430000000000001          873088.06250000000
  0.11540000000000003          944955.43750000000
  0.11650000000000002          1018644.9375000000
  0.11760000000000001          1093566.0000000000
  0.11870000000000003          1169030.7500000000
  0.11980000000000002          1244251.3750000000
  0.12090000000000001          1318340.6250000000
  0.12200000000000003          1390311.3750000000
  0.12310000000000001          1459079.0000000000
  0.12420000000000003          1523465.2500000000
  0.12530000000000002          1582203.8750000000
  0.12640000000000001          1633954.8750000000
  0.12750000000000003          1677317.8750000000
  0.12860000000000002          1710848.6250000000
  0.12970000000000001          1733080.5000000000
  0.13080000000000003          1742543.3750000000
  0.13190000000000002          1737788.8750000000
  0.13300000000000001          1717414.0000000000
  0.13410000000000000          1680086.1250000000
  0.13520000000000004          1624573.5000000000
  0.13630000000000003          1549771.1250000000
  0.13740000000000002          1454739.7500000000
  0.13850000000000001          1338728.2500000000
  0.13960000000000000          1201209.7500000000
  0.14070000000000005          1041909.3125000000
  0.14180000000000004          860821.00000000000
  0.14290000000000003          658241.56250000000
  0.14400000000000002          434778.62500000000
  0.14510000000000001          191370.48437500000
  0.14620000000000000         -70705.695312500000
  0.14730000000000004         -349830.03125000000
  0.14840000000000003         -644043.31250000000
  0.14950000000000002         -951053.81250000000
  0.15060000000000001         -1268253.5000000000
  0.15170000000000000         -1592739.7500000000
  0.15280000000000005         -1921346.1250000000
  0.15390000000000004         -2250679.0000000000
  0.15500000000000003         -2577155.5000000000
  0.15610000000000002         -2897057.7500000000
  0.15720000000000001         -3206578.7500000000
  0.15830000000000000         -3501878.0000000000
  0.15940000000000004         -3779143.2500000000
  0.16050000000000003         -4034654.0000000000
  0.16160000000000002         -4264840.0000000000
  0.16270000000000001         -4466348.5000000000
  0.16380000000000000         -4636098.0000000000
  0.16490000000000005         -4771339.0000000000
  0.16600000000000004         -4869703.5000000000
  0.16710000000000003         -4929253.5000000000
  0.16820000000000002         -4948523.5000000000
  0.16930000000000001         -4926550.0000000000
  0.17040000000000000         -4862899.5000000000
  0.17150000000000004         -4757680.5000000000
  0.17260000000000003         -4611550.0000000000
  0.17370000000000002         -4425711.5000000000
  0.17480000000000001         -4201901.5000000000
  0.17590000000000000         -3942365.7500000000
  0.17700000000000005         -3649826.5000000000
  0.17810000000000004         -3327441.5000000000
  0.17920000000000003         -2978750.5000000000
  0.18030000000000002         -2607622.0000000000
  0.18140000000000001         -2218186.0000000000
  0.18250000000000000         -1814781.1250000000
  0.18360000000000004         -1401881.0000000000
  0.18470000000000003         -984025.18750000000
  0.18580000000000002         -565741.62500000000
  0.18690000000000001         -151480.98437500000
  0.18800000000000000          254452.76562500000
  0.18910000000000005          647958.87500000000
  0.19020000000000004          1025201.2500000000
  0.19130000000000003          1382661.3750000000
  0.19240000000000002          1717176.6250000000
  0.19350000000000001          2025988.2500000000
  0.19460000000000005          2306760.2500000000
  0.19570000000000004          2557607.2500000000
  0.19680000000000003          2777095.5000000000
  0.19790000000000002          2964254.7500000000
  0.19900000000000001          3118567.2500000000
  0.20010000000000000          3239965.2500000000
  0.20120000000000005          3328800.7500000000
  0.20230000000000004          3385826.5000000000
  0.20340000000000003          3412158.7500000000
  0.20450000000000002          3409245.7500000000
  0.20560000000000000          3378821.2500000000
  0.20670000000000005          3322868.5000000000
  0.20780000000000004          3243567.2500000000
  0.20890000000000003          3143259.0000000000
