 -0.12000000000000000          0.0000000000000000
 -0.11889999999999999          0.0000000000000000
 -0.11780000000000000          0.0000000000000000
 -0.11670000000000000          0.0000000000000000
 -0.11559999999999999          0.0000000000000000
 -0.11449999999999999          0.0000000000000000
 -0.11340000000000000          0.0000000000000000
 -0.11230000000000000          0.0000000000000000
 -0.11119999999999999          0.0000000000000000
 -0.11009999999999999          0.0000000000000000
 -0.10900000000000000          0.0000000000000000
 -0.10790000000000000         -1.3449040484071434E-037
 -0.10679999999999999          2.3849030840235922E-036
 -0.10569999999999999         -2.7079906981753712E-034
 -0.10460000000000000         -3.6695583932949453E-034
 -0.10349999999999999         -6.8828174302495260E-034
 -0.10239999999999999         -5.1005528605696385E-032
 -0.10130000000000000         -2.3693889498168664E-031
 -0.10020000000000000          1.0528503232235950E-031
  -9.9099999999999994E-002     2.8597150090533297E-030
  -9.7999999999999990E-002     2.4465633512929839E-030
  -9.6899999999999986E-002    -2.9922081182554151E-029
  -9.5799999999999996E-002    -8.7137207738093586E-029
  -9.4699999999999993E-002     9.8390783533543854E-029
  -9.3599999999999989E-002     9.6270006052976746E-028
  -9.2499999999999999E-002     1.3537669727888983E-027
  -9.1399999999999995E-002    -3.9237086312797819E-027
  -9.0299999999999991E-002    -1.7679667110925503E-026
  -8.9200000000000002E-002    -1.4625830931675460E-026
  -8.8099999999999984E-002     7.0591908356994310E-026
  -8.6999999999999994E-002     2.3373206599409606E-025
  -8.5899999999999990E-002     1.4125999109514902E-025
  -8.4799999999999986E-002    -8.4159260825334980E-025
  -8.3699999999999997E-002    -2.4536790732714506E-024
  -8.2599999999999993E-002    -1.4482275318368262E-024
  -8.1499999999999989E-002     7.4081493735807347E-024
  -8.0399999999999999E-002     2.1354889111499798E-023
  -7.9299999999999995E-002     1.5061356809646566E-023
  -7.8199999999999992E-002    -4.9892214770073970E-023
  -7.7100000000000002E-002    -1.5659430442762428E-022
  -7.5999999999999984E-002    -1.4039295683523378E-022
  -7.4899999999999994E-002     2.5349422935795176E-022
  -7.3799999999999991E-002     9.7014644238608340E-022
  -7.2699999999999987E-002     1.1033467548141292E-021
  -7.1599999999999997E-002    -8.6646724878467828E-022
  -7.0499999999999993E-002    -5.0481144495556361E-021
  -6.9399999999999989E-002    -7.2157339746087426E-021
  -6.8300000000000000E-002     6.9648637869223691E-022
  -6.7199999999999996E-002     2.1689649860182123E-020
  -6.6099999999999992E-002     3.9331859746702532E-020
  -6.5000000000000002E-002     1.5926592059645681E-020
  -6.3899999999999985E-002    -7.3718691619895283E-020
  -6.2799999999999995E-002    -1.7882921060360474E-019
  -6.1699999999999991E-002    -1.4597289873935664E-019
  -6.0599999999999994E-002     1.7319539977377971E-019
  -5.9499999999999990E-002     6.7280094800132390E-019
  -5.8399999999999994E-002     8.1702324822118277E-019
  -5.7299999999999990E-002    -8.8314009185057891E-020
  -5.6199999999999986E-002    -2.0366774867831643E-018
  -5.5099999999999996E-002    -3.4658997946918337E-018
  -5.3999999999999992E-002    -1.6878646248538672E-018
  -5.2899999999999989E-002     4.5524145573748832E-018
  -5.1799999999999985E-002     1.1692381592533033E-017
  -5.0699999999999995E-002     1.1021112944917675E-017
  -4.9599999999999991E-002    -4.9365386222807268E-018
  -4.8499999999999988E-002    -3.1165468872201160E-017
  -4.7399999999999998E-002    -4.4266368648705813E-017
  -4.6299999999999994E-002    -1.4818963834944642E-017
  -4.5199999999999990E-002     6.0960782542879684E-017
  -4.4099999999999986E-002     1.3308388437868475E-016
  -4.2999999999999997E-002     1.1151244337140028E-016
  -4.1899999999999993E-002    -5.9445566331694849E-017
  -4.0799999999999989E-002    -3.0617038199911152E-016
  -3.9699999999999985E-002    -4.0732493591457179E-016
  -3.8599999999999995E-002    -1.3351527561174340E-016
  -3.7499999999999992E-002     4.9765387936853006E-016
  -3.6399999999999988E-002     1.0588805460438108E-015
  -3.5299999999999984E-002     8.9282746591024887E-016
  -3.4199999999999994E-002    -3.2969688092777732E-016
  -3.3099999999999991E-002    -2.0345189291962051E-015
  -3.1999999999999987E-002    -2.7668559920957479E-015
  -3.0899999999999997E-002    -1.1641063902900284E-015
  -2.9799999999999993E-002     2.5751396136053937E-015
  -2.8699999999999989E-002     5.9748264143308014E-015
  -2.7599999999999986E-002     5.4912366700184817E-015
  -2.6499999999999996E-002    -5.2806987959236633E-016
  -2.5399999999999992E-002    -9.2053016549414543E-015
  -2.4299999999999988E-002    -1.3630036599973205E-014
  -2.3199999999999985E-002    -7.5636137367922178E-015
  -2.2099999999999995E-002     8.2569610260966979E-015
  -2.0999999999999991E-002     2.3624958461971116E-014
  -1.9899999999999987E-002     2.4303357313822452E-014
  -1.8799999999999983E-002     3.6131956428827206E-015
  -1.7699999999999994E-002    -2.8296616216621703E-014
  -1.6599999999999990E-002    -4.7197200981436913E-014
  -1.5499999999999986E-002    -3.1635115263061592E-014
  -1.4399999999999996E-002     1.6552213023606974E-014
  -1.3299999999999992E-002     6.5789564009273438E-014
  -1.2199999999999989E-002     7.3268119544535326E-014
  -1.1099999999999985E-002     1.9812647819562011E-014
  -9.9999999999999950E-003    -6.5510503922602825E-014
  -8.8999999999999913E-003    -1.1682607734941203E-013
  -7.7999999999999875E-003    -7.9660562000982704E-014
  -6.6999999999999837E-003     3.6867142910561312E-014
  -5.5999999999999939E-003     1.5017071516420372E-013
  -4.4999999999999901E-003     1.5789928772044076E-013
  -3.3999999999999864E-003     2.4684716957664755E-014
  -2.2999999999999826E-003    -1.6729837187898916E-013
  -1.1999999999999927E-003    -2.5974583811941288E-013
  -9.9999999999988987E-005    -1.3968901447884707E-013
   1.0000000000000148E-003     1.4618830505939290E-013
   2.1000000000000185E-003     3.8857090288446638E-013
   3.2000000000000084E-003     3.5638180774510975E-013
   4.3000000000000121E-003    -5.0021573051750069E-015
   5.4000000000000159E-003    -4.7734824990333657E-013
   6.5000000000000058E-003    -6.8510209441305370E-013
   7.6000000000000234E-003    -3.7607888808341428E-013
   8.7000000000000133E-003     3.3299301900949207E-013
   9.8000000000000032E-003     9.6317550289659604E-013
   1.0900000000000021E-002     9.8466167944982752E-013
   1.2000000000000011E-002     2.4008543091959267E-013
   1.3100000000000001E-002    -8.4758746245541805E-013
   1.4200000000000018E-002    -1.4983008323615765E-012
   1.5300000000000008E-002    -1.1314127803044305E-012
   1.6400000000000026E-002     1.3554203603678011E-013
   1.7500000000000016E-002     1.4621617718674207E-012
   1.8600000000000005E-002     1.8379319333822197E-012
   1.9700000000000023E-002     8.6185046729511661E-013
   2.0800000000000013E-002    -8.4730659988263568E-013
   2.1900000000000003E-002    -2.0047264629591277E-012
   2.3000000000000020E-002    -1.6115344735750936E-012
   2.4100000000000010E-002     1.8021234461304547E-013
   2.5200000000000000E-002     2.0179047235252545E-012
   2.6300000000000018E-002     2.2917551103368572E-012
   2.7400000000000008E-002     4.5639176032147288E-013
   2.8500000000000025E-002    -2.3051859900091731E-012
   2.9600000000000015E-002    -3.7481059922406246E-012
   3.0700000000000005E-002    -2.2514091285730231E-012
   3.1800000000000023E-002     1.6883308986970214E-012
   3.2900000000000013E-002     5.4257431880699869E-012
   3.4000000000000002E-002     5.8910029632208705E-012
   3.5100000000000020E-002     1.9771554185532558E-012
   3.6200000000000010E-002    -4.2274209306747412E-012
   3.7300000000000028E-002    -8.5398823429505555E-012
   3.8400000000000017E-002    -7.5955578632269649E-012
   3.9500000000000007E-002    -1.5147340846899393E-012
   4.0600000000000025E-002     5.8242369260774751E-012
   4.1700000000000015E-002     9.4099233613476052E-012
   4.2800000000000005E-002     6.8465055673427866E-012
   4.3900000000000022E-002     3.2422090186223773E-013
   4.5000000000000012E-002    -4.9725891806962075E-012
   4.6100000000000002E-002    -5.0553992415880433E-012
   4.7200000000000020E-002    -6.4472965811621097E-013
   4.8300000000000010E-002     3.1270708678726722E-012
   4.9400000000000027E-002     1.1094101982564442E-012
   5.0500000000000017E-002    -6.6498625182764837E-012
   5.1600000000000007E-002    -1.3477367659386896E-011
   5.2700000000000025E-002    -1.0618509543869337E-011
   5.3800000000000014E-002     4.8921678340307917E-012
   5.4900000000000004E-002     2.5243885107273378E-011
   5.6000000000000022E-002     3.4963424516698538E-011
   5.7100000000000012E-002     2.1684659276544060E-011
   5.8200000000000002E-002    -1.2459316564572553E-011
   5.9300000000000019E-002    -4.8114900952356265E-011
   6.0400000000000009E-002    -5.9118841766458985E-011
   6.1500000000000027E-002    -3.0995567223968123E-011
   6.2600000000000017E-002     2.5062781711104876E-011
   6.3700000000000007E-002     7.4593671517408922E-011
   6.4800000000000024E-002     8.0399631396943505E-011
   6.5900000000000014E-002     2.9524684780346533E-011
   6.7000000000000004E-002    -5.2200705563665295E-011
   6.8100000000000022E-002    -1.1126174287445778E-010
   6.9200000000000012E-002    -9.9931493635629920E-011
   7.0300000000000029E-002    -1.1895477658452336E-011
   7.1400000000000019E-002     1.0523357185654447E-010
   7.2500000000000009E-002     1.7341857116992543E-010
   7.3600000000000027E-002     1.3318157687791654E-010
   7.4700000000000016E-002    -1.1889006272525204E-011
   7.5800000000000006E-002    -1.8627038800289597E-010
   7.6900000000000024E-002    -2.8036134525066814E-010
   7.8000000000000014E-002    -2.1618841439252634E-010
   7.9100000000000004E-002    -1.5968267290042415E-012
   8.0200000000000021E-002     2.6285737475539861E-010
   8.1300000000000011E-002     4.3294010043659625E-010
   8.2400000000000029E-002     3.9985831312705500E-010
   8.3500000000000019E-002     1.5379006401694539E-010
   8.4600000000000009E-002    -2.0584113580301988E-010
   8.5700000000000026E-002    -5.1965876046722315E-010
   8.6800000000000016E-002    -6.4835453672529297E-010
   8.7900000000000006E-002    -5.3759385831853024E-010
   8.9000000000000024E-002    -2.3323520892404304E-010
   9.0100000000000013E-002     1.5609970260843653E-010
   9.1200000000000003E-002     5.2052140375735689E-010
   9.2300000000000021E-002     7.9389655960326877E-010
   9.3400000000000011E-002     9.5601093708097551E-010
   9.4500000000000028E-002     9.9593588931412569E-010
   9.5600000000000018E-002     8.6821166922490534E-010
   9.6700000000000008E-002     4.8128478979947431E-010
   9.7800000000000026E-002    -2.5928834079813612E-010
   9.8900000000000016E-002    -1.3633799644807709E-009
  0.10000000000000001         -2.6669704222825885E-009
  0.10110000000000002         -3.7969449806496414E-009
  0.10220000000000001         -4.2317771509203794E-009
  0.10330000000000003         -3.4604712428887296E-009
  0.10440000000000002         -1.1925970211379422E-009
  0.10550000000000001          2.4643249663114375E-009
  0.10660000000000003          6.9451275841458937E-009
  0.10770000000000002          1.1326773297071213E-008
  0.10880000000000001          1.4554601079908025E-008
  0.10990000000000003          1.5691204779955115E-008
  0.11100000000000002          1.4059677866384845E-008
  0.11210000000000001          9.1997698348222912E-009
  0.11320000000000002          6.5835698004335086E-010
  0.11430000000000001         -1.2260725767987424E-008
  0.11540000000000003         -3.0626761571284078E-008
  0.11650000000000002         -5.5801184117854064E-008
  0.11760000000000001         -8.9202501385443611E-008
  0.11870000000000003         -1.3211067084739625E-007
  0.11980000000000002         -1.8573027205093240E-007
  0.12090000000000001         -2.5160196059914597E-007
  0.12200000000000003         -3.3222607953575789E-007
  0.12310000000000001         -4.3157939444427029E-007
  0.12420000000000003         -5.5521019248772063E-007
  0.12530000000000002         -7.0982633815219742E-007
  0.12640000000000001         -9.0263830543335644E-007
  0.12750000000000003         -1.1409700846343185E-006
  0.12860000000000002         -1.4326128621178214E-006
  0.12970000000000001         -1.7870390820462490E-006
  0.13080000000000003         -2.2170900138007710E-006
  0.13190000000000002         -2.7404064439906506E-006
  0.13300000000000001         -3.3799262837419519E-006
  0.13410000000000000         -4.1632665670476854E-006
  0.13520000000000004         -5.1214651648479048E-006
  0.13630000000000003         -6.2880326368031092E-006
  0.13740000000000002         -7.6992073445580900E-006
  0.13850000000000001         -9.3957378339837305E-006
  0.13960000000000000         -1.1425733646319713E-005
  0.14070000000000005         -1.3847549780621193E-005
  0.14180000000000004         -1.6731743016862310E-005
  0.14290000000000003         -2.0161643988103606E-005
  0.14400000000000002         -2.4232978830696084E-005
  0.14510000000000001         -2.9053482649032958E-005
  0.14620000000000000         -3.4743407013593242E-005
  0.14730000000000004         -4.1437258914811537E-005
  0.14840000000000003         -4.9286412831861526E-005
  0.14950000000000002         -5.8461617300054058E-005
  0.15060000000000001         -6.9154790253378451E-005
  0.15170000000000000         -8.1579848483670503E-005
  0.15280000000000005         -9.5973053248599172E-005
  0.15390000000000004         -1.1259371967753395E-004
  0.15500000000000003         -1.3172566832508892E-004
  0.15610000000000002         -1.5367921150755137E-004
  0.15720000000000001         -1.7879284860100597E-004
  0.15830000000000000         -2.0743394270539284E-004
  0.15940000000000004         -2.3999749100767076E-004
  0.16050000000000003         -2.7690385468304157E-004
  0.16160000000000002         -3.1859587761573493E-004
  0.16270000000000001         -3.6553636891767383E-004
  0.16380000000000000         -4.1820621117949486E-004
  0.16490000000000005         -4.7710246872156858E-004
  0.16600000000000004         -5.4273568093776703E-004
  0.16710000000000003         -6.1562447808682919E-004
  0.16820000000000002         -6.9628859637305140E-004
  0.16930000000000001         -7.8523939009755850E-004
  0.17040000000000000         -8.8296976173296571E-004
  0.17150000000000004         -9.8994490690529346E-004
  0.17260000000000003         -1.1065930593758821E-003
  0.17370000000000002         -1.2332968180999160E-003
  0.17480000000000001         -1.3703824952244759E-003
  0.17590000000000000         -1.5181069029495120E-003
  0.17700000000000005         -1.6766400076448917E-003
  0.17810000000000004         -1.8460477003827691E-003
  0.17920000000000003         -2.0262731704860926E-003
  0.18030000000000002         -2.2171218879520893E-003
  0.18140000000000001         -2.4182486813515425E-003
  0.18250000000000000         -2.6291455142199993E-003
  0.18360000000000004         -2.8491339180618525E-003
  0.18470000000000003         -3.0773547478020191E-003
  0.18580000000000002         -3.3127560745924711E-003
  0.18690000000000001         -3.5540829412639141E-003
  0.18800000000000000         -3.7998678162693977E-003
  0.18910000000000005         -4.0484215132892132E-003
  0.19020000000000004         -4.2978343553841114E-003
  0.19130000000000003         -4.5459787361323833E-003
  0.19240000000000002         -4.7905193641781807E-003
  0.19350000000000001         -5.0289309583604336E-003
  0.19460000000000005         -5.2585136145353317E-003
  0.19570000000000004         -5.4764109663665295E-003
  0.19680000000000003         -5.6796353310346603E-003
  0.19790000000000002         -5.8650933206081390E-003
  0.19900000000000001         -6.0296198353171349E-003
  0.20010000000000000         -6.1700148507952690E-003
  0.20120000000000005         -6.2830834649503231E-003
  0.20230000000000004         -6.3656792044639587E-003
  0.20340000000000003         -6.4147501252591610E-003
  0.20450000000000002         -6.4273923635482788E-003
  0.20560000000000000         -6.4008985646069050E-003
  0.20670000000000005         -6.3328095711767673E-003
  0.20780000000000004         -6.2209675088524818E-003
  0.20890000000000003         -6.0635656118392944E-003
