 -0.12000000000000000          0.0000000000000000
 -0.11889999999999999          0.0000000000000000
 -0.11780000000000000          0.0000000000000000
 -0.11670000000000000          0.0000000000000000
 -0.11559999999999999          0.0000000000000000
 -0.11449999999999999          0.0000000000000000
 -0.11340000000000000          0.0000000000000000
 -0.11230000000000000          0.0000000000000000
 -0.11119999999999999          0.0000000000000000
 -0.11009999999999999          0.0000000000000000
 -0.10900000000000000          0.0000000000000000
 -0.10790000000000000          1.3798711813295184E-026
 -0.10679999999999999         -2.2690607723312194E-025
 -0.10569999999999999          9.1621808074787492E-024
 -0.10460000000000000          1.7556697402259775E-023
 -0.10349999999999999         -1.0192276639693795E-022
 -0.10239999999999999          6.0345334894510696E-022
 -0.10130000000000000          5.9230732243160541E-021
 -0.10020000000000000          4.4013484717283160E-021
  -9.9099999999999994E-002    -6.9089226687725945E-020
  -9.7999999999999990E-002    -1.7224182854856800E-019
  -9.6899999999999986E-002     4.3168803580219668E-019
  -9.5799999999999996E-002     2.5697327326421898E-018
  -9.4699999999999993E-002     1.4972163474653751E-018
  -9.3599999999999989E-002    -1.7699507821597254E-017
  -9.2499999999999999E-002    -4.9108756746485142E-017
  -9.1399999999999995E-002     1.6010639930057936E-017
  -9.0299999999999991E-002     3.4849214498065622E-016
  -8.9200000000000002E-002     6.5404257827171640E-016
  -8.8099999999999984E-002    -5.5254410250989128E-016
  -8.6999999999999994E-002    -4.6360243491090202E-015
  -8.5899999999999990E-002    -7.0606150795265131E-015
  -8.4799999999999986E-002     7.1684423737119855E-015
  -8.3699999999999997E-002     4.6960533199710483E-014
  -8.2599999999999993E-002     6.6460156605482879E-014
  -8.1499999999999989E-002    -5.7688710308322760E-014
  -8.0399999999999999E-002    -3.8240970719888301E-013
  -7.9299999999999995E-002    -5.5527473894964596E-013
  -7.8199999999999992E-002     2.9280785153289191E-013
  -7.7100000000000002E-002     2.5647734804012945E-012
  -7.5999999999999984E-002     4.0816950513944406E-012
  -7.4899999999999994E-002    -5.2344088265210420E-013
  -7.3799999999999991E-002    -1.4253693711441251E-011
  -7.2699999999999987E-002    -2.6056271723584601E-011
  -7.1599999999999997E-002    -6.6549682431471524E-012
  -7.0499999999999993E-002     6.4927944964932038E-011
  -6.9399999999999989E-002     1.4306321405310740E-010
  -6.8300000000000000E-002     8.6811037525169610E-011
  -6.7199999999999996E-002    -2.3269879079190758E-010
  -6.6099999999999992E-002    -6.7014183091629320E-010
  -6.5000000000000002E-002    -6.3041749598369279E-010
  -6.3899999999999985E-002     5.6991950048157491E-010
  -6.2799999999999995E-002     2.6465074576265124E-009
  -6.1699999999999991E-002     3.4216338651305023E-009
  -6.0599999999999994E-002    -2.2825581702523579E-010
  -5.9499999999999990E-002    -8.5928375526123091E-009
  -5.8399999999999994E-002    -1.4921676338985890E-008
  -5.7299999999999990E-002    -6.9019412407556047E-009
  -5.6199999999999986E-002     2.1492860824423587E-008
  -5.5099999999999996E-002     5.3430238011742404E-008
  -5.3999999999999992E-002     4.7155847227031700E-008
  -5.2899999999999989E-002    -3.2264953375715777E-008
  -5.1799999999999985E-002    -1.5615749759945174E-007
  -5.0699999999999995E-002    -2.0401188294272288E-007
  -4.9599999999999991E-002    -3.2297169383355140E-008
  -4.8499999999999988E-002     3.5663867947732797E-007
  -4.7399999999999998E-002     6.7499911438062554E-007
  -4.6299999999999994E-002     4.5106199308975192E-007
  -4.5199999999999990E-002    -5.3939720601192676E-007
  -4.4099999999999986E-002    -1.7701464685160317E-006
  -4.2999999999999997E-002    -1.9618221358541632E-006
  -4.1899999999999993E-002    -2.8843238908393687E-009
  -4.0799999999999989E-002     3.5794080304185627E-006
  -3.9699999999999985E-002     5.9372168834670447E-006
  -3.8599999999999995E-002     3.4287481867067982E-006
  -3.7499999999999992E-002    -4.7881594582577236E-006
  -3.6399999999999988E-002    -1.3760251022176817E-005
  -3.5299999999999984E-002    -1.4191918126016390E-005
  -3.4199999999999994E-002     2.4808485932226176E-007
  -3.3099999999999991E-002     2.4034687157836743E-005
  -3.1999999999999987E-002     3.8101923564681783E-005
  -3.0899999999999997E-002     2.1720117729273625E-005
  -2.9799999999999993E-002    -2.6638508643372916E-005
  -2.8699999999999989E-002    -7.6421209087129682E-005
  -2.7599999999999986E-002    -7.8279532317537814E-005
  -2.6499999999999996E-002    -4.1400635382160544E-006
  -2.5399999999999992E-002     1.1302901111776009E-004
  -2.4299999999999988E-002     1.8071466183755547E-004
  -2.3199999999999985E-002     1.0896083404077217E-004
  -2.2099999999999995E-002    -9.9818600574508309E-005
  -2.0999999999999991E-002    -3.0993483960628510E-004
  -1.9899999999999987E-002    -3.2351681147702038E-004
  -1.8799999999999983E-002    -4.3604635720839724E-005
  -1.7699999999999994E-002     3.9037148235365748E-004
  -1.6599999999999990E-002     6.3787563703954220E-004
  -1.5499999999999986E-002     3.9879433461464942E-004
  -1.4399999999999996E-002    -2.8901835321448743E-004
  -1.3299999999999992E-002    -9.5863547176122665E-004
  -1.2199999999999989E-002    -9.9294935353100300E-004
  -1.1099999999999985E-002    -1.4430432929657400E-004
  -9.9999999999999950E-003     1.1090449988842010E-003
  -8.8999999999999913E-003     1.7600756837055087E-003
  -7.7999999999999875E-003     1.0260576382279396E-003
  -6.6999999999999837E-003    -8.6017104331403971E-004
  -5.5999999999999939E-003    -2.5420826859772205E-003
  -4.4999999999999901E-003    -2.4301423691213131E-003
  -3.3999999999999864E-003    -8.0727455497253686E-005
  -2.2999999999999826E-003     3.0530197545886040E-003
  -1.1999999999999927E-003     4.3722572736442089E-003
  -9.9999999999988987E-005     2.1434645168483257E-003
   1.0000000000000148E-003    -2.6882374659180641E-003
   2.1000000000000185E-003    -6.5745320171117783E-003
   3.2000000000000084E-003    -5.7877432554960251E-003
   4.3000000000000121E-003     3.2588280737400055E-004
   5.4000000000000159E-003     7.9270945861935616E-003
   6.5000000000000058E-003     1.0834388434886932E-002
   7.6000000000000234E-003     5.2798939868807793E-003
   8.7000000000000133E-003    -6.2188743613660336E-003
   9.8000000000000032E-003    -1.5446705743670464E-002
   1.0900000000000021E-002    -1.4106372371315956E-002
   1.2000000000000011E-002    -8.2874274812638760E-004
   1.3100000000000001E-002     1.6086580231785774E-002
   1.4200000000000018E-002     2.3487063124775887E-002
   1.5300000000000008E-002     1.3317369855940342E-002
   1.6400000000000026E-002    -9.5945009961724281E-003
   1.7500000000000016E-002    -2.8924599289894104E-002
   1.8600000000000005E-002    -2.8138663619756699E-002
   1.9700000000000023E-002    -4.2122723534703255E-003
   2.0800000000000013E-002     2.7234308421611786E-002
   2.1900000000000003E-002     4.1396219283342361E-002
   2.3000000000000020E-002     2.3282682523131371E-002
   2.4100000000000010E-002    -1.7813602462410927E-002
   2.5200000000000000E-002    -5.1418360322713852E-002
   2.6300000000000018E-002    -4.7408543527126312E-002
   2.7400000000000008E-002    -1.5269347932189703E-003
   2.8500000000000025E-002     5.5777907371520996E-002
   2.9600000000000015E-002     7.7953457832336426E-002
   3.0700000000000005E-002     3.8286034017801285E-002
   3.1800000000000023E-002    -4.3455254286527634E-002
   3.2900000000000013E-002   -0.10784800350666046
   3.4000000000000002E-002    -9.7163453698158264E-002
   3.5100000000000020E-002    -3.7352938670665026E-003
   3.6200000000000010E-002    0.11339204758405685
   3.7300000000000028E-002    0.16356295347213745
   3.8400000000000017E-002     9.2510096728801727E-002
   3.9500000000000007E-002    -6.6282823681831360E-002
   4.0600000000000025E-002   -0.20204675197601318
   4.1700000000000015E-002   -0.20197133719921112
   4.2800000000000005E-002    -4.1851449757814407E-002
   4.3900000000000022E-002    0.17860631644725800
   4.5000000000000012E-002    0.29409837722778320
   4.6100000000000002E-002    0.19482132792472839
   4.7200000000000020E-002    -7.6342165470123291E-002
   4.8300000000000010E-002   -0.33243194222450256
   4.9400000000000027E-002   -0.36726266145706177
   5.0500000000000017E-002   -0.11578710377216339
   5.1600000000000007E-002    0.27168315649032593
   5.2700000000000025E-002    0.51340663433074951
   5.3800000000000014E-002    0.39619055390357971
   5.4900000000000004E-002    -4.8093672841787338E-002
   5.6000000000000022E-002   -0.53044408559799194
   5.7100000000000012E-002   -0.68942952156066895
   5.8200000000000002E-002   -0.35676810145378113
   5.9300000000000019E-002    0.28931915760040283
   6.0400000000000009E-002    0.81368261575698853
   6.1500000000000027E-002    0.81739139556884766
   6.2600000000000017E-002    0.23635599017143250
   6.3700000000000007E-002   -0.57714837789535522
   6.4800000000000024E-002    -1.0708533525466919
   6.5900000000000014E-002   -0.87221282720565796
   6.7000000000000004E-002    -6.5338186919689178E-002
   6.8100000000000022E-002    0.84255814552307129
   6.9200000000000012E-002     1.2556451559066772
   7.0300000000000029E-002    0.89410889148712158
   7.1400000000000019E-002    -1.9392510876059532E-002
   7.2500000000000009E-002   -0.92298084497451782
   7.3600000000000027E-002    -1.3018308877944946
   7.4700000000000016E-002    -1.0083669424057007
   7.5800000000000006E-002   -0.28981131315231323
   7.6900000000000024E-002    0.46276903152465820
   7.8000000000000014E-002     1.0055851936340332
   7.9100000000000004E-002     1.3174680471420288
   8.0200000000000021E-002     1.4162130355834961
   8.1300000000000011E-002     1.1379264593124390
   8.2400000000000029E-002    0.17438052594661713
   8.3500000000000019E-002    -1.5569729804992676
   8.4600000000000009E-002    -3.4935214519500732
   8.5700000000000026E-002    -4.4203429222106934
   8.6800000000000016E-002    -3.1148831844329834
   8.7900000000000006E-002    0.64699470996856689
   8.9000000000000024E-002     5.4567756652832031
   9.0100000000000013E-002     8.6818752288818359
   9.1200000000000003E-002     7.9359431266784668
   9.2300000000000021E-002     2.7823386192321777
   9.3400000000000011E-002    -4.5526218414306641
   9.4500000000000028E-002    -10.200862884521484
   9.5600000000000018E-002    -10.992804527282715
   9.6700000000000008E-002    -6.6332125663757324
   9.7800000000000026E-002    -9.8050251603126526E-002
   9.8900000000000016E-002     4.2898054122924805
  0.10000000000000001          3.9897189140319824
  0.10110000000000002         0.38609784841537476
  0.10220000000000001         -1.8300422430038452
  0.10330000000000003          2.0048639774322510
  0.10440000000000002          12.583715438842773
  0.10550000000000001          24.970149993896484
  0.10660000000000003          30.858655929565430
  0.10770000000000002          23.727834701538086
  0.10880000000000001          3.5760607719421387
  0.10990000000000003         -22.249954223632812
  0.11100000000000002         -43.289981842041016
  0.11210000000000001         -52.953372955322266
  0.11320000000000002         -53.691421508789062
  0.11430000000000001         -56.536342620849609
  0.11540000000000003         -74.710433959960938
  0.11650000000000002         -115.12831878662109
  0.11760000000000001         -173.49000549316406
  0.11870000000000003         -236.76388549804688
  0.11980000000000002         -292.15570068359375
  0.12090000000000001         -337.15856933593750
  0.12200000000000003         -384.06970214843750
  0.12310000000000001         -455.52536010742188
  0.12420000000000003         -573.31750488281250
  0.12530000000000002         -747.31524658203125
  0.12640000000000001         -971.70465087890625
  0.12750000000000003         -1231.4182128906250
  0.12860000000000002         -1515.3470458984375
  0.12970000000000001         -1828.4376220703125
  0.13080000000000003         -2195.3237304687500
  0.13190000000000002         -2653.1503906250000
  0.13300000000000001         -3237.7680664062500
  0.13410000000000000         -3971.6948242187500
  0.13520000000000004         -4861.1367187500000
  0.13630000000000003         -5904.0722656250000
  0.13740000000000002         -7105.2480468750000
  0.13850000000000001         -8489.7343750000000
  0.13960000000000000         -10107.872070312500
  0.14070000000000005         -12028.810546875000
  0.14180000000000004         -14326.470703125000
  0.14290000000000003         -17064.851562500000
  0.14400000000000002         -20290.947265625000
  0.14510000000000001         -24038.947265625000
  0.14620000000000000         -28344.330078125000
  0.14730000000000004         -33261.382812500000
  0.14840000000000003         -38875.183593750000
  0.14950000000000002         -45302.339843750000
  0.15060000000000001         -52678.847656250000
  0.15170000000000000         -61140.460937500000
  0.15280000000000005         -70804.062500000000
  0.15390000000000004         -81764.109375000000
  0.15500000000000003         -94101.007812500000
  0.15610000000000002         -107902.24218750000
  0.15720000000000001         -123282.04687500000
  0.15830000000000000         -140389.15625000000
  0.15940000000000004         -159392.87500000000
  0.16050000000000003         -180458.06250000000
  0.16160000000000002         -203719.00000000000
  0.16270000000000001         -229266.71875000000
  0.16380000000000000         -257160.15625000000
  0.16490000000000005         -287448.84375000000
  0.16600000000000004         -320193.06250000000
  0.16710000000000003         -355467.28125000000
  0.16820000000000002         -393330.09375000000
  0.16930000000000001         -433792.28125000000
  0.17040000000000000         -476783.87500000000
  0.17150000000000004         -522152.31250000000
  0.17260000000000003         -569692.43750000000
  0.17370000000000002         -619176.62500000000
  0.17480000000000001         -670382.00000000000
  0.17590000000000000         -723070.37500000000
  0.17700000000000005         -776946.50000000000
  0.17810000000000004         -831607.62500000000
  0.17920000000000003         -886518.87500000000
  0.18030000000000002         -941013.00000000000
  0.18140000000000001         -994361.00000000000
  0.18250000000000000         -1045827.0000000000
  0.18360000000000004         -1094682.1250000000
  0.18470000000000003         -1140193.8750000000
  0.18580000000000002         -1181575.2500000000
  0.18690000000000001         -1217947.7500000000
  0.18800000000000000         -1248333.8750000000
  0.18910000000000005         -1271681.2500000000
  0.19020000000000004         -1286934.1250000000
  0.19130000000000003         -1293101.5000000000
  0.19240000000000002         -1289293.2500000000
  0.19350000000000001         -1274714.8750000000
  0.19460000000000005         -1248619.6250000000
  0.19570000000000004         -1210272.5000000000
  0.19680000000000003         -1158921.1250000000
  0.19790000000000002         -1093947.5000000000
  0.19900000000000001         -1014877.8125000000
  0.20010000000000000         -921441.75000000000
  0.20120000000000005         -813569.37500000000
  0.20230000000000004         -691420.31250000000
  0.20340000000000003         -555341.12500000000
  0.20450000000000002         -405815.43750000000
  0.20560000000000000         -243539.90625000000
  0.20670000000000005         -69413.078125000000
  0.20780000000000004          115444.80468750000
  0.20890000000000003          309709.68750000000
