 -0.12000000000000000          0.0000000000000000
 -0.11889999999999999          0.0000000000000000
 -0.11780000000000000          0.0000000000000000
 -0.11670000000000000          0.0000000000000000
 -0.11559999999999999          0.0000000000000000
 -0.11449999999999999          0.0000000000000000
 -0.11340000000000000          0.0000000000000000
 -0.11230000000000000          0.0000000000000000
 -0.11119999999999999          0.0000000000000000
 -0.11009999999999999          0.0000000000000000
 -0.10900000000000000         -7.5247956471859205E-026
 -0.10790000000000000         -4.8817399872534620E-025
 -0.10679999999999999          4.9098890095420765E-025
 -0.10569999999999999          1.3376992048871335E-023
 -0.10460000000000000          3.6807479909368915E-023
 -0.10349999999999999         -7.2478413202706089E-023
 -0.10239999999999999         -6.4708000757647045E-022
 -0.10130000000000000         -1.0840047436987749E-021
 -0.10020000000000000          2.9471393074143428E-021
  -9.9099999999999994E-002     1.7106381026519311E-020
  -9.7999999999999990E-002     2.4543432667012872E-020
  -9.6899999999999986E-002    -4.9792527944715903E-020
  -9.5799999999999996E-002    -2.7946338354134668E-019
  -9.4699999999999993E-002    -4.2573404145182827E-019
  -9.3599999999999989E-002     4.1023756230807742E-019
  -9.2499999999999999E-002     3.0699269878966274E-018
  -9.1399999999999995E-002     5.3844192872603202E-018
  -9.0299999999999991E-002    -7.8100873492881307E-019
  -8.9200000000000002E-002    -2.3850404658568092E-017
  -8.8099999999999984E-002    -5.0403248083016327E-017
  -8.6999999999999994E-002    -2.2417798975158927E-017
  -8.5899999999999990E-002     1.3081676099068921E-016
  -8.4799999999999986E-002     3.5689809994920790E-016
  -8.3699999999999997E-002     3.2450081025240502E-016
  -8.2599999999999993E-002    -4.5311296947451790E-016
  -8.1499999999999989E-002    -1.9264013144680613E-015
  -8.0399999999999999E-002    -2.5861567593920935E-015
  -7.9299999999999995E-002     3.0309806115052216E-016
  -7.8199999999999992E-002     7.7808607471040007E-015
  -7.7100000000000002E-002     1.4527968604060963E-014
  -7.5999999999999984E-002     7.9915576516346662E-015
  -7.4899999999999994E-002    -2.1540910128217163E-014
  -7.3799999999999991E-002    -6.1022435477071924E-014
  -7.2699999999999987E-002    -6.3639658863870463E-014
  -7.1599999999999997E-002     2.4163540973350973E-014
  -7.0499999999999993E-002     1.9105942143052973E-013
  -6.9399999999999989E-002     2.9785855314330700E-013
  -6.8300000000000000E-002     1.2555210235180858E-013
  -6.7199999999999996E-002    -4.0985430652638877E-013
  -6.6099999999999992E-002    -9.9682100681425245E-013
  -6.5000000000000002E-002    -9.3207711514275982E-013
  -6.3899999999999985E-002     3.5299131781636739E-013
  -6.2799999999999995E-002     2.4368549712827647E-012
  -6.1699999999999991E-002     3.5275812219209834E-012
  -6.0599999999999994E-002     1.4622044894330166E-012
  -5.9499999999999990E-002    -3.9901146622889350E-012
  -5.8399999999999994E-002    -9.2905119361552657E-012
  -5.7299999999999990E-002    -8.3549538815175239E-012
  -5.6199999999999986E-002     2.3072798012446771E-012
  -5.5099999999999996E-002     1.7766206908409465E-011
  -5.3999999999999992E-002     2.4484725011375552E-011
  -5.2899999999999989E-002     9.7999629244949205E-012
  -5.1799999999999985E-002    -2.3505981883165106E-011
  -5.0699999999999995E-002    -5.0936938694734479E-011
  -4.9599999999999991E-002    -4.0471750950565877E-011
  -4.8499999999999988E-002     1.6678046096951782E-011
  -4.7399999999999998E-002     8.3744997048107450E-011
  -4.6299999999999994E-002     9.4267725569974203E-011
  -4.5199999999999990E-002     9.4317036819502320E-012
  -4.4099999999999986E-002    -1.2471362831334432E-010
  -4.2999999999999997E-002    -1.8411963620401650E-010
  -4.1899999999999993E-002    -6.3975977293573294E-011
  -4.0799999999999989E-002     1.9441809273601507E-010
  -3.9699999999999985E-002     3.7242972594775381E-010
  -3.8599999999999995E-002     2.2246211817122941E-010
  -3.7499999999999992E-002    -2.7476279584881524E-010
  -3.6399999999999988E-002    -7.6859280051522205E-010
  -3.5299999999999984E-002    -7.2231365333408348E-010
  -3.4199999999999994E-002     1.1465323829229490E-010
  -3.3099999999999991E-002     1.3050497349453849E-009
  -3.1999999999999987E-002     1.8405145185695915E-009
  -3.0899999999999997E-002     8.8698898226269307E-010
  -2.9799999999999993E-002    -1.3239231932971052E-009
  -2.8699999999999989E-002    -3.2823754825272999E-009
  -2.7599999999999986E-002    -3.1359772556527332E-009
  -2.6499999999999996E-002    -2.8768046278493387E-010
  -2.5399999999999992E-002     3.6456786478566983E-009
  -2.4299999999999988E-002     5.6315538898843442E-009
  -2.3199999999999985E-002     3.5600544734393225E-009
  -2.2099999999999995E-002    -1.6327407204030919E-009
  -2.0999999999999991E-002    -6.1104179494009259E-009
  -1.9899999999999987E-002    -6.0034976989697952E-009
  -1.8799999999999983E-002    -9.6613927969002589E-010
  -1.7699999999999994E-002     4.8030952548572259E-009
  -1.6599999999999990E-002     5.6862869968199448E-009
  -1.5499999999999986E-002    -8.0642909017214492E-011
  -1.4399999999999996E-002    -7.6022494965855003E-009
  -1.3299999999999992E-002    -8.4237949948828827E-009
  -1.2199999999999989E-002     1.8494598075236013E-009
  -1.1099999999999985E-002     1.7567177934552092E-008
  -9.9999999999999950E-003     2.4965112643826615E-008
  -8.8999999999999913E-003     1.2503004853670063E-008
  -7.7999999999999875E-003    -1.7613691838391787E-008
  -6.6999999999999837E-003    -4.6881606152737731E-008
  -5.5999999999999939E-003    -5.1469456252561940E-008
  -4.4999999999999901E-003    -2.0397612487954575E-008
  -3.3999999999999864E-003     3.2870545396690432E-008
  -2.2999999999999826E-003     7.6149724748120207E-008
  -1.1999999999999927E-003     7.9610671832597291E-008
  -9.9999999999988987E-005     3.7451734158366889E-008
   1.0000000000000148E-003    -2.6674161546225150E-008
   2.1000000000000185E-003    -7.5710659075411968E-008
   3.2000000000000084E-003    -8.5093930124457984E-008
   4.3000000000000121E-003    -5.8415896120322941E-008
   5.4000000000000159E-003    -2.0457248339766920E-008
   6.5000000000000058E-003     6.3622307422406266E-009
   7.6000000000000234E-003     2.1720346410347702E-008
   8.7000000000000133E-003     4.5132967585459483E-008
   9.8000000000000032E-003     9.1696605863944569E-008
   1.0900000000000021E-002     1.4594442632187565E-007
   1.2000000000000011E-002     1.5917268569864973E-007
   1.3100000000000001E-002     7.9882831016675482E-008
   1.4200000000000018E-002    -9.9487849070101220E-008
   1.5300000000000008E-002    -3.1395703103953565E-007
   1.6400000000000026E-002    -4.4376821506375563E-007
   1.7500000000000016E-002    -3.7814189113305474E-007
   1.8600000000000005E-002    -9.1066446827881009E-008
   1.9700000000000023E-002     3.2013463169278111E-007
   2.0800000000000013E-002     6.6648584606809891E-007
   2.1900000000000003E-002     7.6098075396657805E-007
   2.3000000000000020E-002     5.2386252491487539E-007
   2.4100000000000010E-002     3.5296793043926300E-008
   2.5200000000000000E-002    -5.0118285344069591E-007
   2.6300000000000018E-002    -8.6545071553700836E-007
   2.7400000000000008E-002    -9.3131347966846079E-007
   2.8500000000000025E-002    -7.1069717932914500E-007
   2.9600000000000015E-002    -3.0908523740436067E-007
   3.0700000000000005E-002     1.6323667750839377E-007
   3.1800000000000023E-002     6.4564534341116087E-007
   3.2900000000000013E-002     1.1001984603353776E-006
   3.4000000000000002E-002     1.4333684248413192E-006
   3.5100000000000020E-002     1.4568274764314992E-006
   3.6200000000000010E-002     9.6184999165416230E-007
   3.7300000000000028E-002    -1.1064024363349745E-007
   3.8400000000000017E-002    -1.5229877590172691E-006
   3.9500000000000007E-002    -2.7547209811018547E-006
   4.0600000000000025E-002    -3.2196796837524744E-006
   4.1700000000000015E-002    -2.5779183943086537E-006
   4.2800000000000005E-002    -9.4489894308935618E-007
   4.3900000000000022E-002     1.1469563787613879E-006
   4.5000000000000012E-002     3.0135463475744473E-006
   4.6100000000000002E-002     4.1344901546835899E-006
   4.7200000000000020E-002     4.3177533370908350E-006
   4.8300000000000010E-002     3.6397555049916264E-006
   4.9400000000000027E-002     2.2628912574873539E-006
   5.0500000000000017E-002     3.1364041319648095E-007
   5.1600000000000007E-002    -2.0730940377688967E-006
   5.2700000000000025E-002    -4.6054324229771737E-006
   5.3800000000000014E-002    -6.7564642449724488E-006
   5.4900000000000004E-002    -7.8890097938710824E-006
   5.6000000000000022E-002    -7.5469711191544775E-006
   5.7100000000000012E-002    -5.7178331189788878E-006
   5.8200000000000002E-002    -2.8540227958728792E-006
   5.9300000000000019E-002     4.0956626889965264E-007
   6.0400000000000009E-002     3.6918524983775569E-006
   6.1500000000000027E-002     7.1832414505479392E-006
   6.2600000000000017E-002     1.1632356290647294E-005
   6.3700000000000007E-002     1.7998700059251860E-005
   6.4800000000000024E-002     2.6991203412762843E-005
   6.5900000000000014E-002     3.8800302718300372E-005
   6.7000000000000004E-002     5.3216095693642274E-005
   6.8100000000000022E-002     7.0068956119939685E-005
   6.9200000000000012E-002     8.9696120994631201E-005
   7.0300000000000029E-002     1.1309846013318747E-004
   7.1400000000000019E-002     1.4166324399411678E-004
   7.2500000000000009E-002     1.7667138308752328E-004
   7.3600000000000027E-002     2.1903371089138091E-004
   7.4700000000000016E-002     2.6960327522829175E-004
   7.5800000000000006E-002     3.2999829272739589E-004
   7.6900000000000024E-002     4.0341660496778786E-004
   7.8000000000000014E-002     4.9479637527838349E-004
   7.9100000000000004E-002     6.1005324823781848E-004
   8.0200000000000021E-002     7.5479532824829221E-004
   8.1300000000000011E-002     9.3339738668873906E-004
   8.2400000000000029E-002     1.1491937329992652E-003
   8.3500000000000019E-002     1.4058399247005582E-003
   8.4600000000000009E-002     1.7090839101001620E-003
   8.5700000000000026E-002     2.0678930450230837E-003
   8.6800000000000016E-002     2.4943239986896515E-003
   8.7900000000000006E-002     3.0024154111742973E-003
   8.9000000000000024E-002     3.6070516798645258E-003
   9.0100000000000013E-002     4.3236915953457355E-003
   9.1200000000000003E-002     5.1691494882106781E-003
   9.2300000000000021E-002     6.1628371477127075E-003
   9.3400000000000011E-002     7.3275826871395111E-003
   9.4500000000000028E-002     8.6895283311605453E-003
   9.5600000000000018E-002     1.0277311317622662E-002
   9.6700000000000008E-002     1.2121319770812988E-002
   9.7800000000000026E-002     1.4253662899136543E-002
   9.8900000000000016E-002     1.6708986833691597E-002
  0.10000000000000001          1.9525626674294472E-002
  0.10110000000000002          2.2746335715055466E-002
  0.10220000000000001          2.6418162509799004E-002
  0.10330000000000003          3.0591513961553574E-002
  0.10440000000000002          3.5318959504365921E-002
  0.10550000000000001          4.0654461830854416E-002
  0.10660000000000003          4.6653218567371368E-002
  0.10770000000000002          5.3371921181678772E-002
  0.10880000000000001          6.0868944972753525E-002
  0.10990000000000003          6.9203674793243408E-002
  0.11100000000000002          7.8434564173221588E-002
  0.11210000000000001          8.8616609573364258E-002
  0.11320000000000002          9.9799230694770813E-002
  0.11430000000000001         0.11202543228864670
  0.11540000000000003         0.12533189356327057
  0.11650000000000002         0.13974902033805847
  0.11760000000000001         0.15529936552047729
  0.11870000000000003         0.17199411988258362
  0.11980000000000002         0.18982894718647003
  0.12090000000000001         0.20878006517887115
  0.12200000000000003         0.22880257666110992
  0.12310000000000001         0.24983049929141998
  0.12420000000000003         0.27177700400352478
  0.12530000000000002         0.29453232884407043
  0.12640000000000001         0.31796070933341980
  0.12750000000000003         0.34189799427986145
  0.12860000000000002         0.36614966392517090
  0.12970000000000001         0.39048919081687927
  0.13080000000000003         0.41465783119201660
  0.13190000000000002         0.43836653232574463
  0.13300000000000001         0.46129852533340454
  0.13410000000000000         0.48311004042625427
  0.13520000000000004         0.50343126058578491
  0.13630000000000003         0.52187126874923706
  0.13740000000000002         0.53801965713500977
  0.13850000000000001         0.55144816637039185
  0.13960000000000000         0.56171804666519165
  0.14070000000000005         0.56838649511337280
  0.14180000000000004         0.57101452350616455
  0.14290000000000003         0.56917518377304077
  0.14400000000000002         0.56246089935302734
  0.14510000000000001         0.55049115419387817
  0.14620000000000000         0.53291988372802734
  0.14730000000000004         0.50944304466247559
  0.14840000000000003         0.47980976104736328
  0.14950000000000002         0.44383311271667480
  0.15060000000000001         0.40139755606651306
  0.15170000000000000         0.35246452689170837
  0.15280000000000005         0.29707968235015869
  0.15390000000000004         0.23537544906139374
  0.15500000000000003         0.16757526993751526
  0.15610000000000002          9.4001993536949158E-002
  0.15720000000000001          1.5078377909958363E-002
  0.15830000000000000         -6.8670712411403656E-002
  0.15940000000000004        -0.15662123262882233
  0.16050000000000003        -0.24805942177772522
  0.16160000000000002        -0.34218883514404297
  0.16270000000000001        -0.43813449144363403
  0.16380000000000000        -0.53495013713836670
  0.16490000000000005        -0.63162720203399658
  0.16600000000000004        -0.72711163759231567
  0.16710000000000003        -0.82032138109207153
  0.16820000000000002        -0.91016054153442383
  0.16930000000000001        -0.99553793668746948
  0.17040000000000000         -1.0753793716430664
  0.17150000000000004         -1.1486426591873169
  0.17260000000000003         -1.2143377065658569
  0.17370000000000002         -1.2715461254119873
  0.17480000000000001         -1.3194411993026733
  0.17590000000000000         -1.3573026657104492
  0.17700000000000005         -1.3845270872116089
  0.17810000000000004         -1.4006369113922119
  0.17920000000000003         -1.4052902460098267
  0.18030000000000002         -1.3982914686203003
  0.18140000000000001         -1.3795977830886841
  0.18250000000000000         -1.3493198156356812
  0.18360000000000004         -1.3077194690704346
  0.18470000000000003         -1.2552081346511841
  0.18580000000000002         -1.1923435926437378
  0.18690000000000001         -1.1198222637176514
  0.18800000000000000         -1.0384678840637207
  0.18910000000000005        -0.94921338558197021
  0.19020000000000004        -0.85308492183685303
  0.19130000000000003        -0.75118660926818848
  0.19240000000000002        -0.64468342065811157
  0.19350000000000001        -0.53478860855102539
  0.19460000000000005        -0.42274662852287292
  0.19570000000000004        -0.30980736017227173
  0.19680000000000003        -0.19719813764095306
  0.19790000000000002         -8.6107708513736725E-002
  0.19900000000000001          2.2324590012431145E-002
  0.20010000000000000         0.12702102959156036
  0.20120000000000005         0.22698178887367249
  0.20230000000000004         0.32130390405654907
  0.20340000000000003         0.40919223427772522
  0.20450000000000002         0.48996770381927490
  0.20560000000000000         0.56307011842727661
  0.20670000000000005         0.62805563211441040
  0.20780000000000004         0.68460273742675781
  0.20890000000000003         0.73251730203628540
