 -0.12000000000000000          0.0000000000000000
 -0.11889999999999999          0.0000000000000000
 -0.11780000000000000          0.0000000000000000
 -0.11670000000000000          0.0000000000000000
 -0.11559999999999999         -2.8052723791915923E-005
 -0.11449999999999999         -1.3418175512924790E-004
 -0.11340000000000000         -2.6939722010865808E-004
 -0.11230000000000000         -1.9844237249344587E-004
 -0.11119999999999999          2.5098540936596692E-004
 -0.11009999999999999          6.7790673347190022E-004
 -0.10900000000000000          2.9706232453463599E-005
 -0.10790000000000000         -2.4523707106709480E-003
 -0.10679999999999999         -5.7863420806825161E-003
 -0.10569999999999999         -6.8259374238550663E-003
 -0.10460000000000000         -1.9680135883390903E-003
 -0.10349999999999999          9.4938771799206734E-003
 -0.10239999999999999          2.2214837372303009E-002
 -0.10130000000000000          2.4289378896355629E-002
 -0.10020000000000000          2.1713594906032085E-003
  -9.9099999999999994E-002    -4.7304693609476089E-002
  -9.7999999999999990E-002   -0.10206775367259979
  -9.6899999999999986E-002   -0.11164813488721848
  -9.5799999999999996E-002    -2.3765852674841881E-002
  -9.4699999999999993E-002    0.15973050892353058
  -9.3599999999999989E-002    0.33630567789077759
  -9.2499999999999999E-002    0.32851186394691467
  -9.1399999999999995E-002     1.0747266933321953E-002
  -9.0299999999999991E-002   -0.52907019853591919
  -8.9200000000000002E-002   -0.94152420759201050
  -8.8099999999999984E-002   -0.79746174812316895
  -8.6999999999999994E-002     5.8909222483634949E-002
  -8.5899999999999990E-002     1.2423709630966187
  -8.4799999999999986E-002     1.9281506538391113
  -8.3699999999999997E-002     1.3694467544555664
  -8.2599999999999993E-002   -0.47861769795417786
  -8.1499999999999989E-002    -2.7120852470397949
  -8.0399999999999999E-002    -3.8832259178161621
  -7.9299999999999995E-002    -2.8615622520446777
  -7.8199999999999992E-002    0.40211486816406250
  -7.7100000000000002E-002     4.6992621421813965
  -7.5999999999999984E-002     8.0415935516357422
  -7.4899999999999994E-002     8.4539480209350586
  -7.3799999999999991E-002     4.6844348907470703
  -7.2699999999999987E-002    -3.3177249431610107
  -7.1599999999999997E-002    -14.103876113891602
  -7.0499999999999993E-002    -24.647512435913086
  -6.9399999999999989E-002    -30.746940612792969
  -6.8300000000000000E-002    -28.097269058227539
  -6.7199999999999996E-002    -13.699543952941895
  -6.6099999999999992E-002     13.271907806396484
  -6.5000000000000002E-002     51.931720733642578
  -6.3899999999999985E-002     101.35321044921875
  -6.2799999999999995E-002     162.26306152343750
  -6.1699999999999991E-002     237.38438415527344
  -6.0599999999999994E-002     330.09423828125000
  -5.9499999999999990E-002     442.55349731445312
  -5.8399999999999994E-002     575.07104492187500
  -5.7299999999999990E-002     727.54351806640625
  -5.6199999999999986E-002     902.12335205078125
  -5.5099999999999996E-002     1105.3087158203125
  -5.3999999999999992E-002     1348.2766113281250
  -5.2899999999999989E-002     1645.8160400390625
  -5.1799999999999985E-002     2015.1922607421875
  -5.0699999999999995E-002     2475.8061523437500
  -4.9599999999999991E-002     3049.3227539062500
  -4.8499999999999988E-002     3759.3776855468750
  -4.7399999999999998E-002     4630.7568359375000
  -4.6299999999999994E-002     5689.1567382812500
  -4.5199999999999990E-002     6962.7509765625000
  -4.4099999999999986E-002     8485.5283203125000
  -4.2999999999999997E-002     10300.740234375000
  -4.1899999999999993E-002     12462.641601562500
  -4.0799999999999989E-002     15036.204101562500
  -3.9699999999999985E-002     18096.248046875000
  -3.8599999999999995E-002     21727.498046875000
  -3.7499999999999992E-002     26025.623046875000
  -3.6399999999999988E-002     31097.773437500000
  -3.5299999999999984E-002     37061.738281250000
  -3.4199999999999994E-002     44044.703125000000
  -3.3099999999999991E-002     52184.210937500000
  -3.1999999999999987E-002     61632.714843750000
  -3.0899999999999997E-002     72563.726562500000
  -2.9799999999999993E-002     85175.968750000000
  -2.8699999999999989E-002     99692.601562500000
  -2.7599999999999986E-002     116356.42968750000
  -2.6499999999999996E-002     135425.04687500000
  -2.5399999999999992E-002     157168.29687500000
  -2.4299999999999988E-002     181868.31250000000
  -2.3199999999999985E-002     209819.79687500000
  -2.2099999999999995E-002     241328.25000000000
  -2.0999999999999991E-002     276707.75000000000
  -1.9899999999999987E-002     316280.50000000000
  -1.8799999999999983E-002     360377.09375000000
  -1.7699999999999994E-002     409334.25000000000
  -1.6599999999999990E-002     463486.40625000000
  -1.5499999999999986E-002     523151.40625000000
  -1.4399999999999996E-002     588615.00000000000
  -1.3299999999999992E-002     660122.37500000000
  -1.2199999999999989E-002     737874.62500000000
  -1.1099999999999985E-002     822026.25000000000
  -9.9999999999999950E-003     912674.68750000000
  -8.8999999999999913E-003     1009843.0000000000
  -7.7999999999999875E-003     1113459.7500000000
  -6.6999999999999837E-003     1223347.2500000000
  -5.5999999999999939E-003     1339218.0000000000
  -4.4999999999999901E-003     1460667.8750000000
  -3.3999999999999864E-003     1587164.6250000000
  -2.2999999999999826E-003     1718026.6250000000
  -1.1999999999999927E-003     1852399.1250000000
  -9.9999999999988987E-005     1989247.1250000000
   1.0000000000000148E-003     2127357.2500000000
   2.1000000000000185E-003     2265346.7500000000
   3.2000000000000084E-003     2401664.0000000000
   4.3000000000000121E-003     2534579.2500000000
   5.4000000000000159E-003     2662176.0000000000
   6.5000000000000058E-003     2782360.2500000000
   7.6000000000000234E-003     2892884.5000000000
   8.7000000000000133E-003     2991387.7500000000
   9.8000000000000032E-003     3075410.2500000000
   1.0900000000000021E-002     3142420.7500000000
   1.2000000000000011E-002     3189816.5000000000
   1.3100000000000001E-002     3214961.5000000000
   1.4200000000000018E-002     3215244.2500000000
   1.5300000000000008E-002     3188132.2500000000
   1.6400000000000026E-002     3131233.2500000000
   1.7500000000000016E-002     3042328.2500000000
   1.8600000000000005E-002     2919405.7500000000
   1.9700000000000023E-002     2760714.2500000000
   2.0800000000000013E-002     2564835.5000000000
   2.1900000000000003E-002     2330738.7500000000
   2.3000000000000020E-002     2057847.8750000000
   2.4100000000000010E-002     1746067.1250000000
   2.5200000000000000E-002     1395800.5000000000
   2.6300000000000018E-002     1007988.6250000000
   2.7400000000000008E-002     584133.93750000000
   2.8500000000000025E-002     126344.58593750000
   2.9600000000000015E-002    -362648.56250000000
   3.0700000000000005E-002    -879513.18750000000
   3.1800000000000023E-002    -1420333.1250000000
   3.2900000000000013E-002    -1980657.3750000000
   3.4000000000000002E-002    -2555501.5000000000
   3.5100000000000020E-002    -3139393.7500000000
   3.6200000000000010E-002    -3726426.2500000000
   3.7300000000000028E-002    -4310351.0000000000
   3.8400000000000017E-002    -4884674.5000000000
   3.9500000000000007E-002    -5442740.0000000000
   4.0600000000000025E-002    -5977817.0000000000
   4.1700000000000015E-002    -6483185.0000000000
   4.2800000000000005E-002    -6952247.0000000000
   4.3900000000000022E-002    -7378653.5000000000
   4.5000000000000012E-002    -7756424.0000000000
   4.6100000000000002E-002    -8080044.5000000000
   4.7200000000000020E-002    -8344557.0000000000
   4.8300000000000010E-002    -8545626.0000000000
   4.9400000000000027E-002    -8679638.0000000000
   5.0500000000000017E-002    -8743788.0000000000
   5.1600000000000007E-002    -8736174.0000000000
   5.2700000000000025E-002    -8655819.0000000000
   5.3800000000000014E-002    -8502690.0000000000
   5.4900000000000004E-002    -8277687.5000000000
   5.6000000000000022E-002    -7982645.0000000000
   5.7100000000000012E-002    -7620322.5000000000
   5.8200000000000002E-002    -7194417.5000000000
   5.9300000000000019E-002    -6709480.5000000000
   6.0400000000000009E-002    -6170840.5000000000
   6.1500000000000027E-002    -5584479.5000000000
   6.2600000000000017E-002    -4956947.5000000000
   6.3700000000000007E-002    -4295274.5000000000
   6.4800000000000024E-002    -3606900.2500000000
   6.5900000000000014E-002    -2899543.7500000000
   6.7000000000000004E-002    -2181070.2500000000
   6.8100000000000022E-002    -1459325.7500000000
   6.9200000000000012E-002    -742036.75000000000
   7.0300000000000029E-002    -36669.578125000000
   7.1400000000000019E-002     649621.75000000000
   7.2500000000000009E-002     1310078.1250000000
   7.3600000000000027E-002     1938480.3750000000
   7.4700000000000016E-002     2529212.7500000000
   7.5800000000000006E-002     3077372.0000000000
   7.6900000000000024E-002     3578797.5000000000
   7.8000000000000014E-002     4030095.5000000000
   7.9100000000000004E-002     4428607.5000000000
   8.0200000000000021E-002     4772482.0000000000
   8.1300000000000011E-002     5060635.0000000000
   8.2400000000000029E-002     5292768.0000000000
   8.3500000000000019E-002     5469327.5000000000
   8.4600000000000009E-002     5591478.5000000000
   8.5700000000000026E-002     5660989.0000000000
   8.6800000000000016E-002     5680204.5000000000
   8.7900000000000006E-002     5651952.5000000000
   8.9000000000000024E-002     5579487.5000000000
   9.0100000000000013E-002     5466435.0000000000
   9.1200000000000003E-002     5316711.5000000000
   9.2300000000000021E-002     5134458.0000000000
   9.3400000000000011E-002     4923911.0000000000
   9.4500000000000028E-002     4689357.5000000000
   9.5600000000000018E-002     4435046.5000000000
   9.6700000000000008E-002     4165137.7500000000
   9.7800000000000026E-002     3883682.5000000000
   9.8900000000000016E-002     3594547.5000000000
  0.10000000000000001          3301388.5000000000
  0.10110000000000002          3007591.7500000000
  0.10220000000000001          2716220.2500000000
  0.10330000000000003          2430015.5000000000
  0.10440000000000002          2151409.7500000000
  0.10550000000000001          1882520.0000000000
  0.10660000000000003          1625174.2500000000
  0.10770000000000002          1380862.1250000000
  0.10880000000000001          1150756.0000000000
  0.10990000000000003          935682.68750000000
  0.11100000000000002          736203.56250000000
  0.11210000000000001          552637.18750000000
  0.11320000000000002          385086.06250000000
  0.11430000000000001          233459.25000000000
  0.11540000000000003          97475.812500000000
  0.11650000000000002         -23317.107421875000
  0.11760000000000001         -129519.98437500000
  0.11870000000000003         -221844.43750000000
  0.11980000000000002         -301057.43750000000
  0.12090000000000001         -367986.25000000000
  0.12200000000000003         -423491.87500000000
  0.12310000000000001         -468470.50000000000
  0.12420000000000003         -503831.87500000000
  0.12530000000000002         -530503.68750000000
  0.12640000000000001         -549391.12500000000
  0.12750000000000003         -561357.56250000000
  0.12860000000000002         -567226.43750000000
  0.12970000000000001         -567759.62500000000
  0.13080000000000003         -563673.31250000000
  0.13190000000000002         -555649.62500000000
  0.13300000000000001         -544333.06250000000
  0.13410000000000000         -530321.43750000000
  0.13520000000000004         -514161.25000000000
  0.13630000000000003         -496313.68750000000
  0.13740000000000002         -477176.84375000000
  0.13850000000000001         -457101.34375000000
  0.13960000000000000         -436415.84375000000
  0.14070000000000005         -415434.84375000000
  0.14180000000000004         -394435.31250000000
  0.14290000000000003         -373634.09375000000
  0.14400000000000002         -353175.50000000000
  0.14510000000000001         -333166.09375000000
  0.14620000000000000         -313703.81250000000
  0.14730000000000004         -294902.96875000000
  0.14840000000000003         -276878.68750000000
  0.14950000000000002         -259712.92187500000
  0.15060000000000001         -243429.82812500000
  0.15170000000000000         -228006.71875000000
  0.15280000000000005         -213415.29687500000
  0.15390000000000004         -199655.84375000000
  0.15500000000000003         -186755.53125000000
  0.15610000000000002         -174735.26562500000
  0.15720000000000001         -163580.59375000000
  0.15830000000000000         -153231.93750000000
  0.15940000000000004         -143611.73437500000
  0.16050000000000003         -134663.54687500000
  0.16160000000000002         -126368.91406250000
  0.16270000000000001         -118727.32031250000
  0.16380000000000000         -111718.02343750000
  0.16490000000000005         -105291.21875000000
  0.16600000000000004         -99366.703125000000
  0.16710000000000003         -93874.250000000000
  0.16820000000000002         -88771.500000000000
  0.16930000000000001         -84041.968750000000
  0.17040000000000000         -79681.828125000000
  0.17150000000000004         -75670.273437500000
  0.17260000000000003         -71959.679687500000
  0.17370000000000002         -68494.062500000000
  0.17480000000000001         -65227.261718750000
  0.17590000000000000         -62134.781250000000
  0.17700000000000005         -59212.851562500000
  0.17810000000000004         -56465.179687500000
  0.17920000000000003         -53885.417968750000
  0.18030000000000002         -51448.894531250000
  0.18140000000000001         -49122.320312500000
  0.18250000000000000         -46879.792968750000
  0.18360000000000004         -44718.726562500000
  0.18470000000000003         -42655.597656250000
  0.18580000000000002         -40713.281250000000
  0.18690000000000001         -38896.472656250000
  0.18800000000000000         -37189.207031250000
  0.18910000000000005         -35563.316406250000
  0.19020000000000004         -34000.984375000000
  0.19130000000000003         -32507.894531250000
  0.19240000000000002         -31107.750000000000
  0.19350000000000001         -29821.892578125000
  0.19460000000000005         -28648.687500000000
  0.19570000000000004         -27563.746093750000
  0.19680000000000003         -26535.458984375000
  0.19790000000000002         -25551.492187500000
  0.19900000000000001         -24623.410156250000
  0.20010000000000000         -23772.339843750000
  0.20120000000000005         -23008.136718750000
  0.20230000000000004         -22316.826171875000
  0.20340000000000003         -21668.916015625000
  0.20450000000000002         -21040.533203125000
  0.20560000000000000         -20427.119140625000
  0.20670000000000005         -19842.703125000000
  0.20780000000000004         -19301.119140625000
  0.20890000000000003         -18802.738281250000
