 -0.12000000000000000          0.0000000000000000
 -0.11889999999999999          0.0000000000000000
 -0.11780000000000000          0.0000000000000000
 -0.11670000000000000          0.0000000000000000
 -0.11559999999999999          0.0000000000000000
 -0.11449999999999999          0.0000000000000000
 -0.11340000000000000          0.0000000000000000
 -0.11230000000000000          0.0000000000000000
 -0.11119999999999999          0.0000000000000000
 -0.11009999999999999         -1.8390978671147647E-038
 -0.10900000000000000         -5.9352378416804097E-026
 -0.10790000000000000         -2.8590140980810167E-025
 -0.10679999999999999          1.4471362413835967E-024
 -0.10569999999999999          1.4697592535858407E-023
 -0.10460000000000000          2.9786295997605084E-023
 -0.10349999999999999         -1.1889927395840288E-022
 -0.10239999999999999         -7.9638661301294187E-022
 -0.10130000000000000         -1.4134352791499384E-021
 -0.10020000000000000          2.5787436375712142E-021
  -9.9099999999999994E-002     1.8271889818710699E-020
  -9.7999999999999990E-002     3.3014526312246463E-020
  -9.6899999999999986E-002    -2.5311062737837445E-020
  -9.5799999999999996E-002    -2.5253666419933937E-019
  -9.4699999999999993E-002    -4.9503058028031175E-019
  -9.3599999999999989E-002     4.4616060752277528E-020
  -9.2499999999999999E-002     2.4036255598593232E-018
  -9.1399999999999995E-002     5.4017334182498345E-018
  -9.0299999999999991E-002     2.3576543769281169E-018
  -8.9200000000000002E-002    -1.6086848079892059E-017
  -8.8099999999999984E-002    -4.4590951012336296E-017
  -8.6999999999999994E-002    -3.9306027904273044E-017
  -8.5899999999999990E-002     6.9911617924544494E-017
  -8.4799999999999986E-002     2.7995844452045959E-016
  -8.3699999999999997E-002     3.6454622512761409E-016
  -8.2599999999999993E-002    -1.0884901444334801E-016
  -8.1499999999999989E-002    -1.3139322249781904E-015
  -8.0399999999999999E-002    -2.3563510033289543E-015
  -7.9299999999999995E-002    -1.0585308273148028E-015
  -7.8199999999999992E-002     4.2937099595199128E-015
  -7.7100000000000002E-002     1.1252410034830608E-014
  -7.5999999999999984E-002     1.0958116907634482E-014
  -7.4899999999999994E-002    -6.8507453026717863E-015
  -7.3799999999999991E-002    -3.9675561962341786E-014
  -7.2699999999999987E-002    -5.9077905328177879E-014
  -7.1599999999999997E-002    -1.9779215429116930E-014
  -7.0499999999999993E-002     9.5598754064862202E-014
  -6.9399999999999989E-002     2.1962793183505450E-013
  -6.8300000000000000E-002     1.9770524193462533E-013
  -6.7199999999999996E-002    -9.8796947185828562E-014
  -6.6099999999999992E-002    -5.7879233090331008E-013
  -6.5000000000000002E-002    -8.3344144302997366E-013
  -6.3899999999999985E-002    -3.4851971569114411E-013
  -6.2799999999999995E-002     9.6499576992401850E-013
  -6.1699999999999991E-002     2.3072991000430824E-012
  -6.0599999999999994E-002     2.2081973836263737E-012
  -5.9499999999999990E-002    -3.0709565749767022E-013
  -5.8399999999999994E-002    -4.2728923697885967E-012
  -5.7299999999999990E-002    -6.5264265346189797E-012
  -5.6199999999999986E-002    -3.7176047830422673E-012
  -5.5099999999999996E-002     4.2420867166219293E-012
  -5.3999999999999992E-002     1.2257890882882003E-011
  -5.2899999999999989E-002     1.2636113509709948E-011
  -5.1799999999999985E-002     1.7669338214771963E-012
  -5.0699999999999995E-002    -1.4305001627689823E-011
  -4.9599999999999991E-002    -2.2083460060604441E-011
  -4.8499999999999988E-002    -1.1865108721917784E-011
  -4.7399999999999998E-002     1.0330907136701854E-011
  -4.6299999999999994E-002     2.3405447718835541E-011
  -4.5199999999999990E-002     9.6604868202152945E-012
  -4.4099999999999986E-002    -2.1871938288284724E-011
  -4.2999999999999997E-002    -3.2763024931929026E-011
  -4.1899999999999993E-002     1.2191692100322636E-011
  -4.0799999999999989E-002     9.6374998259646762E-011
  -3.9699999999999985E-002     1.3588365155301617E-010
  -3.8599999999999995E-002     3.5510677731638543E-011
  -3.7499999999999992E-002    -2.0583312831946333E-010
  -3.6399999999999988E-002    -4.2999656613137790E-010
  -3.5299999999999984E-002    -3.8876213359622359E-010
  -3.4199999999999994E-002     5.3325479448868848E-011
  -3.3099999999999991E-002     7.2237416048893383E-010
  -3.1999999999999987E-002     1.1434049262958689E-009
  -3.0899999999999997E-002     8.3608042711333955E-010
  -2.9799999999999993E-002    -2.6338287106864667E-010
  -2.8699999999999989E-002    -1.5941133968411443E-009
  -2.7599999999999986E-002    -2.2330648441480942E-009
  -2.6499999999999996E-002    -1.5350170023962488E-009
  -2.5399999999999992E-002     3.0602828604583308E-010
  -2.4299999999999988E-002     2.2671209354286732E-009
  -2.3199999999999985E-002     3.1654885379594696E-009
  -2.2099999999999995E-002     2.5051454244361023E-009
  -2.0999999999999991E-002     7.9232709282427612E-010
  -1.9899999999999987E-002    -9.8753494270938055E-010
  -1.8799999999999983E-002    -2.2735557880796132E-009
  -1.7699999999999994E-002    -3.3125779896894066E-009
  -1.6599999999999990E-002    -4.5182919627960886E-009
  -1.5499999999999986E-002    -5.3333462091126204E-009
  -1.4399999999999996E-002    -3.8769463195354898E-009
  -1.3299999999999992E-002     1.7298047438896073E-009
  -1.2199999999999989E-002     1.0955965024095924E-008
  -1.1099999999999985E-002     1.9391084293828882E-008
  -9.9999999999999950E-003     2.0175336956638638E-008
  -8.8999999999999913E-003     8.3538163053705835E-009
  -7.7999999999999875E-003    -1.4391023483997265E-008
  -6.6999999999999837E-003    -3.8280823844161966E-008
  -5.5999999999999939E-003    -4.9299284654578824E-008
  -4.4999999999999901E-003    -3.6898189392782950E-008
  -3.3999999999999864E-003    -1.1353806783582768E-009
  -2.2999999999999826E-003     4.5300524220697052E-008
  -1.1999999999999927E-003     8.1808188667766386E-008
  -9.9999999999988987E-005     8.9027196281674603E-008
   1.0000000000000148E-003     5.7825289445638856E-008
   2.1000000000000185E-003    -5.9030349497486483E-009
   3.2000000000000084E-003    -8.2156347502869114E-008
   4.3000000000000121E-003    -1.4262499803408504E-007
   5.4000000000000159E-003    -1.5951994214446763E-007
   6.5000000000000058E-003    -1.1551697554067394E-007
   7.6000000000000234E-003    -1.2584652431238931E-008
   8.7000000000000133E-003     1.2345991251551965E-007
   9.8000000000000032E-003     2.4622394789731803E-007
   1.0900000000000021E-002     3.0169761089382217E-007
   1.2000000000000011E-002     2.4868106152096265E-007
   1.3100000000000001E-002     7.9789607809709690E-008
   1.4200000000000018E-002    -1.6632091615068921E-007
   1.5300000000000008E-002    -4.0921628396975057E-007
   1.6400000000000026E-002    -5.4956376516201914E-007
   1.7500000000000016E-002    -5.0529621375969038E-007
   1.8600000000000005E-002    -2.4915465246516934E-007
   1.9700000000000023E-002     1.6742602326763966E-007
   2.0800000000000013E-002     6.1696590591968611E-007
   2.1900000000000003E-002     9.3004069867675966E-007
   2.3000000000000020E-002     9.5373081876456736E-007
   2.4100000000000010E-002     6.1559825326178347E-007
   2.5200000000000000E-002    -3.1496760755177892E-008
   2.6300000000000018E-002    -8.0476291941530879E-007
   2.7400000000000008E-002    -1.4355703115143627E-006
   2.8500000000000025E-002    -1.6542149978704350E-006
   2.9600000000000015E-002    -1.2921906318296528E-006
   3.0700000000000005E-002    -3.6885134591089159E-007
   3.1800000000000023E-002     8.7336798060294142E-007
   3.2900000000000013E-002     2.0134853002674849E-006
   3.4000000000000002E-002     2.5826127512119059E-006
   3.5100000000000020E-002     2.2506128516396660E-006
   3.6200000000000010E-002     9.9928104191328199E-007
   3.7300000000000028E-002    -8.0603950891628948E-007
   3.8400000000000017E-002    -2.5090187136814135E-006
   3.9500000000000007E-002    -3.4098814012396840E-006
   4.0600000000000025E-002    -3.0715232242072665E-006
   4.1700000000000015E-002    -1.5377374893429743E-006
   4.2800000000000005E-002     6.5511716229638443E-007
   4.3900000000000022E-002     2.6905593131236865E-006
   4.5000000000000012E-002     3.8069701986390409E-006
   4.6100000000000002E-002     3.5902062336390665E-006
   4.7200000000000020E-002     2.0928259800709279E-006
   4.8300000000000010E-002    -2.4259935571589229E-007
   4.9400000000000027E-002    -2.7692894946091816E-006
   5.0500000000000017E-002    -4.8074880396603999E-006
   5.1600000000000007E-002    -5.7332763390153750E-006
   5.2700000000000025E-002    -5.0175849537482054E-006
   5.3800000000000014E-002    -2.3109901121639425E-006
   5.4900000000000004E-002     2.3611301003264351E-006
   5.6000000000000022E-002     8.3414979599194454E-006
   5.7100000000000012E-002     1.4187897249941166E-005
   5.8200000000000002E-002     1.7817639673013603E-005
   5.9300000000000019E-002     1.7031270544976962E-005
   6.0400000000000009E-002     1.0283478331985232E-005
   6.1500000000000027E-002    -2.6319123662695360E-006
   6.2600000000000017E-002    -2.0370278434713467E-005
   6.3700000000000007E-002    -4.0520819311499164E-005
   6.4800000000000024E-002    -6.0676877183145835E-005
   6.5900000000000014E-002    -7.9646095400682189E-005
   6.7000000000000004E-002    -9.8219767096460113E-005
   6.8100000000000022E-002    -1.1909933527932551E-004
   6.9200000000000012E-002    -1.4600405120292079E-004
   7.0300000000000029E-002    -1.8242863006891457E-004
   7.1400000000000019E-002    -2.3071709438229229E-004
   7.2500000000000009E-002    -2.9194052331152261E-004
   7.3600000000000027E-002    -3.6661178455691410E-004
   7.4700000000000016E-002    -4.5581473386850603E-004
   7.5800000000000006E-002    -5.6214403593917741E-004
   7.6900000000000024E-002    -6.9003732642164970E-004
   7.8000000000000014E-002    -8.4549351595349608E-004
   7.9100000000000004E-002    -1.0355333797634559E-003
   8.0200000000000021E-002    -1.2678494676948710E-003
   8.1300000000000011E-002    -1.5508980723099293E-003
   8.2400000000000029E-002    -1.8943541217597019E-003
   8.3500000000000019E-002    -2.3096194490792423E-003
   8.4600000000000009E-002    -2.8100816998633269E-003
   8.5700000000000026E-002    -3.4110348206016486E-003
   8.6800000000000016E-002    -4.1294349357489457E-003
   8.7900000000000006E-002    -4.9838372506205717E-003
   8.9000000000000024E-002    -5.9948074631398299E-003
   9.0100000000000013E-002    -7.1858158335096093E-003
   9.1200000000000003E-002    -8.5843438282616636E-003
   9.2300000000000021E-002    -1.0222754441202599E-002
   9.3400000000000011E-002    -1.2138579972089419E-002
   9.4500000000000028E-002    -1.4374190941454264E-002
   9.5600000000000018E-002    -1.6976214945317831E-002
   9.6700000000000008E-002    -1.9995110109450220E-002
   9.7800000000000026E-002    -2.3485230281951142E-002
   9.8900000000000016E-002    -2.7505243197085930E-002
  0.10000000000000001         -3.2118529081347477E-002
  0.10110000000000002         -3.7393312901261813E-002
  0.10220000000000001         -4.3402295559648578E-002
  0.10330000000000003         -5.0222061574463572E-002
  0.10440000000000002         -5.7932838797574458E-002
  0.10550000000000001         -6.6618628799921281E-002
  0.10660000000000003         -7.6367296278483557E-002
  0.10770000000000002         -8.7270058691509431E-002
  0.10880000000000001         -9.9419601261624663E-002
  0.10990000000000003        -0.11290720105172215
  0.11100000000000002        -0.12781967222691729
  0.11210000000000001        -0.14423675835133892
  0.11320000000000002        -0.16222932934762502
  0.11430000000000001        -0.18185849487783157
  0.11540000000000003        -0.20317482948305046
  0.11650000000000002        -0.22621634602548724
  0.11760000000000001        -0.25100538134577144
  0.11870000000000003        -0.27754312753679861
  0.11980000000000002        -0.30580413341524965
  0.12090000000000001        -0.33573180437091033
  0.12200000000000003        -0.36723500490191902
  0.12310000000000001        -0.40018600225452211
  0.12420000000000003        -0.43441957235340217
  0.12530000000000002        -0.46973136067394677
  0.12640000000000001        -0.50587522983555588
  0.12750000000000003        -0.54255986213688978
  0.12860000000000002        -0.57944452762608989
  0.12970000000000001        -0.61613559722905953
  0.13080000000000003        -0.65218734741216833
  0.13190000000000002        -0.68710625171667594
  0.13300000000000001        -0.72035443782812913
  0.13410000000000000        -0.75135296583182465
  0.13520000000000004        -0.77948391437537579
  0.13630000000000003        -0.80409359931953095
  0.13740000000000002        -0.82449817657478186
  0.13850000000000001        -0.83999288082130441
  0.13960000000000000        -0.84986418485649207
  0.14070000000000005        -0.85340142250068807
  0.14180000000000004        -0.84991067647941709
  0.14290000000000003        -0.83872580528266938
  0.14400000000000002        -0.81921672821052416
  0.14510000000000001        -0.79079753160483934
  0.14620000000000000        -0.75294429063803914
  0.14730000000000004        -0.70521903038031397
  0.14840000000000003        -0.64728373289114249
  0.14950000000000002        -0.57891225814824709
  0.15060000000000001        -0.50000452995304956
  0.15170000000000000        -0.41059628129009296
  0.15280000000000005        -0.31086534261706456
  0.15390000000000004        -0.20114253461362910
  0.15500000000000003         -8.1918269395837295E-002
  0.15610000000000002          4.6155910938980700E-002
  0.15720000000000001         0.18226985633374743
  0.15830000000000000         0.32545220851900969
  0.15940000000000004         0.47456476092342692
  0.16050000000000003         0.62830764055257604
  0.16160000000000002         0.78523641824729240
  0.16270000000000001         0.94379055500038911
  0.16380000000000000          1.1023198366166145
  0.16490000000000005          1.2591004371644194
  0.16600000000000004          1.4123430252076463
  0.16710000000000003          1.5602064132691833
  0.16820000000000002          1.7008309364320380
  0.16930000000000001          1.8323825597764716
  0.17040000000000000          1.9530919790269710
  0.17150000000000004          2.0612795352937656
  0.17260000000000003          2.1553709506990479
  0.17370000000000002          2.2339200973512772
  0.17480000000000001          2.2956407070161999
  0.17590000000000000          2.3394379615785819
  0.17700000000000005          2.3644354343416460
  0.17810000000000004          2.3699898719789760
  0.17920000000000003          2.3557004928591017
  0.18030000000000002          2.3214182853700853
  0.18140000000000001          2.2672574520113158
  0.18250000000000000          2.1936001777650938
  0.18360000000000004          2.1010906696321507
  0.18470000000000003          1.9906195402147215
  0.18580000000000002          1.8633112907411384
  0.18690000000000001          1.7205142974855103
  0.18800000000000000          1.5637818574906841
  0.18910000000000005          1.3948513269425731
  0.19020000000000004          1.2156161069871125
  0.19130000000000003          1.0280880928040510
  0.19240000000000002         0.83435666561134547
  0.19350000000000001         0.63656055927282651
  0.19460000000000005         0.43686425685886782
  0.19570000000000004         0.23742923140528210
  0.19680000000000003          4.0381584316497993E-002
  0.19790000000000002        -0.15223695337773543
  0.19900000000000001        -0.33850565552714368
  0.20010000000000000        -0.51663976907734621
  0.20120000000000005        -0.68500459194189411
  0.20230000000000004        -0.84212660789497262
  0.20340000000000003        -0.98671644926080015
  0.20450000000000002         -1.1176960468293242
  0.20560000000000000         -1.2342181205750626
  0.20670000000000005         -1.3356695175172106
  0.20780000000000004         -1.4216544628144598
  0.20890000000000003         -1.4919822216035290
