 -0.12000000000000000          0.0000000000000000
 -0.11889999999999999          0.0000000000000000
 -0.11780000000000000          0.0000000000000000
 -0.11670000000000000          0.0000000000000000
 -0.11559999999999999          0.0000000000000000
 -0.11449999999999999          0.0000000000000000
 -0.11340000000000000         -2.8948027129081888E-023
 -0.11230000000000000         -3.1841630789443487E-016
 -0.11119999999999999         -2.2528780937676407E-015
 -0.11009999999999999         -4.5913323497133074E-015
 -0.10900000000000000          1.1094258819183185E-014
 -0.10790000000000000          8.5399860739931038E-014
 -0.10679999999999999          1.9858771474045818E-013
 -0.10569999999999999          7.2923810815899929E-014
 -0.10460000000000000         -8.4122802040254552E-013
 -0.10349999999999999         -2.5666419944253697E-012
 -0.10239999999999999         -2.9965294568587187E-012
 -0.10130000000000000          2.3731411800948207E-012
 -0.10020000000000000          1.5761093818955381E-011
  -9.9099999999999994E-002     2.7672969818427663E-011
  -9.7999999999999990E-002     1.3142045611484155E-011
  -9.6899999999999986E-002    -4.9615232061702452E-011
  -9.5799999999999996E-002    -1.3678053134569555E-010
  -9.4699999999999993E-002    -1.5079208715020222E-010
  -9.3599999999999989E-002     2.9089905831368777E-011
  -9.2499999999999999E-002     3.9880146407433192E-010
  -9.1399999999999995E-002     6.9157418680636264E-010
  -9.0299999999999991E-002     4.5621098565549650E-010
  -8.9200000000000002E-002    -5.4336507515620700E-010
  -8.8099999999999984E-002    -1.8414816338463906E-009
  -8.6999999999999994E-002    -2.2438706448471270E-009
  -8.5899999999999990E-002    -6.5183497488552890E-010
  -8.4799999999999986E-002     2.6423647714323078E-009
  -8.3699999999999997E-002     5.3981956682495830E-009
  -8.2599999999999993E-002     4.6990842328407064E-009
  -8.1499999999999989E-002    -3.6033148686979709E-010
  -8.0399999999999999E-002    -6.8493286597973079E-009
  -7.9299999999999995E-002    -9.4776844150617257E-009
  -7.8199999999999992E-002    -5.1869579742478395E-009
  -7.7100000000000002E-002     2.9985185445718663E-009
  -7.5999999999999984E-002     7.5459549719901597E-009
  -7.4899999999999994E-002     3.7587728485315835E-009
  -7.3799999999999991E-002    -3.4761651335179235E-009
  -7.2699999999999987E-002    -2.0404833378530043E-009
  -7.1599999999999997E-002     1.4558367844579445E-008
  -7.0499999999999993E-002     3.4492842360117678E-008
  -6.9399999999999989E-002     3.0767420611257331E-008
  -6.8300000000000000E-002    -1.5179900003647531E-008
  -6.7199999999999996E-002    -8.6256960685191689E-008
  -6.6099999999999992E-002    -1.2755187128732182E-007
  -6.5000000000000002E-002    -8.3051816091045986E-008
  -6.3899999999999985E-002     5.0517776628538506E-008
  -6.2799999999999995E-002     2.0017313318019708E-007
  -6.1699999999999991E-002     2.5629344690970791E-007
  -6.0599999999999994E-002     1.5597466074272997E-007
  -5.9499999999999990E-002    -5.6390398128722543E-008
  -5.8399999999999994E-002    -2.5082056254176380E-007
  -5.7299999999999990E-002    -3.0861798450136469E-007
  -5.6199999999999986E-002    -2.1514418335762071E-007
  -5.5099999999999996E-002    -6.2869141004332204E-008
  -5.3999999999999992E-002     4.3414328132497724E-008
  -5.2899999999999989E-002     9.0509168160288644E-008
  -5.1799999999999985E-002     1.6136208103040900E-007
  -5.0699999999999995E-002     3.2245552006316128E-007
  -4.9599999999999991E-002     5.0145388286176209E-007
  -4.8499999999999988E-002     4.9615437092136165E-007
  -4.7399999999999998E-002     1.4494355582428421E-007
  -4.6299999999999994E-002    -4.7758067012172802E-007
  -4.5199999999999990E-002    -1.0354580126657808E-006
  -4.4099999999999986E-002    -1.1436915201556405E-006
  -4.2999999999999997E-002    -6.6666603970597618E-007
  -4.1899999999999993E-002     1.5282014942365798E-007
  -4.0799999999999989E-002     8.6157740497564243E-007
  -3.9699999999999985E-002     1.1278849569861853E-006
  -3.8599999999999995E-002     9.5112199005610389E-007
  -3.7499999999999992E-002     5.7440905720816924E-007
  -3.6399999999999988E-002     2.0719377857874536E-007
  -3.5299999999999984E-002    -1.5364517480518012E-007
  -3.4199999999999994E-002    -6.2120153643271889E-007
  -3.3099999999999991E-002    -1.1510844615259858E-006
  -3.1999999999999987E-002    -1.4201134490576869E-006
  -3.0899999999999997E-002    -1.0390066336184780E-006
  -2.9799999999999993E-002     5.2869953748396058E-008
  -2.8699999999999989E-002     1.3847200079908319E-006
  -2.7599999999999986E-002     2.1819500943819217E-006
  -2.6499999999999996E-002     1.8775809849101116E-006
  -2.5399999999999992E-002     4.9384891553909129E-007
  -2.4299999999999988E-002    -1.4026682038093930E-006
  -2.3199999999999985E-002    -3.0796225019002917E-006
  -2.2099999999999995E-002    -3.9824981286073315E-006
  -2.0999999999999991E-002    -3.7811180391144663E-006
  -1.9899999999999987E-002    -2.2154242742545060E-006
  -1.8799999999999983E-002     9.5059561999724200E-007
  -1.7699999999999994E-002     5.7312763601658197E-006
  -1.6599999999999990E-002     1.1709767932189133E-005
  -1.5499999999999986E-002     1.8174607248512324E-005
  -1.4399999999999996E-002     2.4644492441441126E-005
  -1.3299999999999992E-002     3.1359919375975723E-005
  -1.2199999999999989E-002     3.9229274989342142E-005
  -1.1099999999999985E-002     4.9185120587939751E-005
  -9.9999999999999950E-003     6.1524391639982464E-005
  -8.8999999999999913E-003     7.5929710874339927E-005
  -7.7999999999999875E-003     9.2283808044165674E-005
  -6.6999999999999837E-003     1.1159810674144957E-004
  -5.5999999999999939E-003     1.3616360956804214E-004
  -4.4999999999999901E-003     1.6867686645129343E-004
  -3.3999999999999864E-003     2.1104139159435357E-004
  -2.2999999999999826E-003     2.6389895356262446E-004
  -1.1999999999999927E-003     3.2733229454609504E-004
  -9.9999999999988987E-005     4.0215707849714584E-004
   1.0000000000000148E-003     4.9074593698610102E-004
   2.1000000000000185E-003     5.9682666324084176E-004
   3.2000000000000084E-003     7.2466192068538322E-004
   4.3000000000000121E-003     8.7850034469746116E-004
   5.4000000000000159E-003     1.0627659503371434E-003
   6.5000000000000058E-003     1.2826314195991668E-003
   7.6000000000000234E-003     1.5442833537237194E-003
   8.7000000000000133E-003     1.8546420615168037E-003
   9.8000000000000032E-003     2.2210066672416471E-003
   1.0900000000000021E-002     2.6512562762948193E-003
   1.2000000000000011E-002     3.1546186655762552E-003
   1.3100000000000001E-002     3.7423358298841391E-003
   1.4200000000000018E-002     4.4275699183348701E-003
   1.5300000000000008E-002     5.2246591076259398E-003
   1.6400000000000026E-002     6.1485320329671507E-003
   1.7500000000000016E-002     7.2149485349661466E-003
   1.8600000000000005E-002     8.4413373842842816E-003
   1.9700000000000023E-002     9.8473271355041560E-003
   2.0800000000000013E-002     1.1454347521067672E-002
   2.1900000000000003E-002     1.3284672982991911E-002
   2.3000000000000020E-002     1.5360947698356074E-002
   2.4100000000000010E-002     1.7706817016007081E-002
   2.5200000000000000E-002     2.0348044112326515E-002
   2.6300000000000018E-002     2.3312833160164036E-002
   2.7400000000000008E-002     2.6630612090232351E-002
   2.8500000000000025E-002     3.0330009758475135E-002
   2.9600000000000015E-002     3.4437555819752892E-002
   3.0700000000000005E-002     3.8977939635518682E-002
   3.1800000000000023E-002     4.3975226581100570E-002
   3.2900000000000013E-002     4.9453429877762446E-002
   3.4000000000000002E-002     5.5435497313742831E-002
   3.5100000000000020E-002     6.1941202729945966E-002
   3.6200000000000010E-002     6.8985268473631373E-002
   3.7300000000000028E-002     7.6576367020613878E-002
   3.8400000000000017E-002     8.4716893732555393E-002
   3.9500000000000007E-002     9.3402527272709687E-002
   4.0600000000000025E-002    0.10262103378773663
   4.1700000000000015E-002    0.11235097050667826
   4.2800000000000005E-002    0.12256088107825437
   4.3900000000000022E-002    0.13320894539357442
   4.5000000000000012E-002    0.14424248039723755
   4.6100000000000002E-002    0.15559653937818038
   4.7200000000000020E-002    0.16719233989717103
   4.8300000000000010E-002    0.17893615365030019
   4.9400000000000027E-002    0.19071963429452737
   5.0500000000000017E-002    0.20242083072664213
   5.1600000000000007E-002    0.21390476822855056
   5.2700000000000025E-002    0.22502371668817689
   5.3800000000000014E-002    0.23561647534372601
   5.4900000000000004E-002    0.24550797045233141
   5.6000000000000022E-002    0.25451171398165207
   5.7100000000000012E-002    0.26243332028391420
   5.8200000000000002E-002    0.26907360553743970
   5.9300000000000019E-002    0.27423062920572944
   6.0400000000000009E-002    0.27770066261294113
   6.1500000000000027E-002    0.27928060293200263
   6.2600000000000017E-002    0.27877214550974622
   6.3700000000000007E-002    0.27598673105242488
   6.4800000000000024E-002    0.27074930071833331
   6.5900000000000014E-002    0.26290071010592120
   6.7000000000000004E-002    0.25230041146280813
   6.8100000000000022E-002    0.23883090913298061
   6.9200000000000012E-002    0.22240392863752631
   7.0300000000000029E-002    0.20296734571458913
   7.1400000000000019E-002    0.18050707876684086
   7.2500000000000009E-002    0.15504428744317678
   7.3600000000000027E-002    0.12663765251637826
   7.4700000000000016E-002     9.5387600362311253E-002
   7.5800000000000006E-002     6.1440326273448601E-002
   7.6900000000000024E-002     2.4989545345310348E-002
   7.8000000000000014E-002    -1.3726716861128418E-002
   7.9100000000000004E-002    -5.4429382085803543E-002
   8.0200000000000021E-002    -9.6801973879344624E-002
   8.1300000000000011E-002   -0.14049161970616525
   8.2400000000000029E-002   -0.18510758876802094
   8.3500000000000019E-002   -0.23022486269476009
   8.4600000000000009E-002   -0.27539432048800017
   8.5700000000000026E-002   -0.32015356421473473
   8.6800000000000016E-002   -0.36403283476832782
   8.7900000000000006E-002   -0.40655755996707760
   8.9000000000000024E-002   -0.44725278019909143
   9.0100000000000013E-002   -0.48565217852596893
   9.1200000000000003E-002   -0.52131080627446180
   9.2300000000000021E-002   -0.55381697416310638
   9.3400000000000011E-002   -0.58279812335973402
   9.4500000000000028E-002   -0.60792201757436659
   9.5600000000000018E-002   -0.62889951467519889
   9.6700000000000008E-002   -0.64549309015280076
   9.7800000000000026E-002   -0.65752905607229661
   9.8900000000000016E-002   -0.66490638256079238
  0.10000000000000001        -0.66759663820273007
  0.10110000000000002        -0.66563826799398984
  0.10220000000000001        -0.65913230180746596
  0.10330000000000003        -0.64824473857885789
  0.10440000000000002        -0.63321256637579271
  0.10550000000000001        -0.61434489488607547
  0.10660000000000003        -0.59201377630239427
  0.10770000000000002        -0.56663936376577084
  0.10880000000000001        -0.53867894411092210
  0.10990000000000003        -0.50862401723866590
  0.11100000000000002        -0.47700172662739582
  0.11210000000000001        -0.44436910748486042
  0.11320000000000002        -0.41129633784298103
  0.11430000000000001        -0.37834477424625240
  0.11540000000000003        -0.34605297446254257
  0.11650000000000002        -0.31493401527407827
  0.11760000000000001        -0.28547537326815492
  0.11870000000000003        -0.25813317298891636
  0.11980000000000002        -0.23331536352636659
  0.12090000000000001        -0.21136088669302086
  0.12200000000000003        -0.19253000617029095
  0.12310000000000001        -0.17700880765916566
  0.12420000000000003        -0.16491444408895103
  0.12530000000000002        -0.15629205107690325
  0.12640000000000001        -0.15110576152802871
  0.12750000000000003        -0.14922671020032305
  0.12860000000000002        -0.15042871236802477
  0.12970000000000001        -0.15440073609353472
  0.13080000000000003        -0.16076608002187237
  0.13190000000000002        -0.16909050941468778
  0.13300000000000001        -0.17887601256372132
  0.13410000000000000        -0.18955686688424850
  0.13520000000000004        -0.20050679147245307
  0.13630000000000003        -0.21106104552747740
  0.13740000000000002        -0.22054344415666705
  0.13850000000000001        -0.22828072309496147
  0.13960000000000000        -0.23359951376917185
  0.14070000000000005        -0.23582457005979890
  0.14180000000000004        -0.23429417610170736
  0.14290000000000003        -0.22838819026949284
  0.14400000000000002        -0.21755801141264258
  0.14510000000000001        -0.20133526623251150
  0.14620000000000000        -0.17932498455049542
  0.14730000000000004        -0.15120290219785498
  0.14840000000000003        -0.11672964692117223
  0.14950000000000002         -7.5777091085921802E-002
  0.15060000000000001         -2.8347853571183534E-002
  0.15170000000000000          2.5422371923921109E-002
  0.15280000000000005          8.5281744599345191E-002
  0.15390000000000004         0.15087497234345348
  0.15500000000000003         0.22174055874349186
  0.15610000000000002         0.29729822278024948
  0.15720000000000001         0.37684199213984537
  0.15830000000000000         0.45955371856693128
  0.15940000000000004         0.54452705383305244
  0.16050000000000003         0.63079059123998193
  0.16160000000000002         0.71731722354895011
  0.16270000000000001         0.80302470922477021
  0.16380000000000000         0.88678485155113329
  0.16490000000000005         0.96744841337212506
  0.16600000000000004          1.0438739061356519
  0.16710000000000003          1.1149541139603663
  0.16820000000000002          1.1796337366105194
  0.16930000000000001          1.2369136810303862
  0.17040000000000000          1.2858628034592856
  0.17150000000000004          1.3256412744523320
  0.17260000000000003          1.3555248975755045
  0.17370000000000002          1.3749208450318671
  0.17480000000000001          1.3833740949632041
  0.17590000000000000          1.3805718421937345
  0.17700000000000005          1.3663489818574304
  0.17810000000000004          1.3406964540482857
  0.17920000000000003          1.3037681579591107
  0.18030000000000002          1.2558792829514775
  0.18140000000000001          1.1974947452546345
  0.18250000000000000          1.1292150020600487
  0.18360000000000004          1.0517677068711382
  0.18470000000000003         0.96600502729425686
  0.18580000000000002         0.87289530038842578
  0.18690000000000001         0.77350413799293960
  0.18800000000000000         0.66896849870688879
  0.18910000000000005         0.56047171354299941
  0.19020000000000004         0.44922894239430738
  0.19130000000000003         0.33647435903553219
  0.19240000000000002         0.22344800829890343
  0.19350000000000001         0.11137187480928397
  0.19460000000000005          1.4189336216159612E-003
  0.19570000000000004        -0.10530391335487578
  0.19680000000000003        -0.20776475965977931
  0.19790000000000002        -0.30501320958139688
  0.19900000000000001        -0.39618766307833897
  0.20010000000000000        -0.48053476214412810
  0.20120000000000005        -0.55742740631108234
  0.20230000000000004        -0.62636816501622861
  0.20340000000000003        -0.68698316812521332
  0.20450000000000002        -0.73901224136359167
  0.20560000000000000        -0.78231215476996840
  0.20670000000000005        -0.81686204671867235
  0.20780000000000004        -0.84276396036155865
  0.20890000000000003        -0.86023169755943696
