 -0.12000000000000000          0.0000000000000000
 -0.11889999999999999          0.0000000000000000
 -0.11780000000000000          0.0000000000000000
 -0.11670000000000000          0.0000000000000000
 -0.11559999999999999          0.0000000000000000
 -0.11449999999999999          9.5060982857830822E-005
 -0.11340000000000000          4.8254776629619300E-004
 -0.11230000000000000          7.7323033474385738E-004
 -0.11119999999999999         -1.0704671731218696E-003
 -0.11009999999999999         -7.6224296353757381E-003
 -0.10900000000000000         -1.6600474715232849E-002
 -0.10790000000000000         -1.5404708683490753E-002
 -0.10679999999999999          1.3600349426269531E-002
 -0.10569999999999999          7.1748659014701843E-002
 -0.10460000000000000         0.12169019877910614
 -0.10349999999999999          9.4744741916656494E-002
 -0.10239999999999999         -5.6625485420227051E-002
 -0.10130000000000000        -0.29151794314384460
 -0.10020000000000000        -0.46292483806610107
  -9.9099999999999994E-002   -0.39085367321968079
  -9.7999999999999990E-002     7.1607832796871662E-003
  -9.6899999999999986E-002    0.62089014053344727
  -9.5799999999999996E-002     1.1624542474746704
  -9.4699999999999993E-002     1.2861928939819336
  -9.3599999999999989E-002    0.74649667739868164
  -9.2499999999999999E-002   -0.46362128853797913
  -9.1399999999999995E-002    -2.0140399932861328
  -9.0299999999999991E-002    -3.2200176715850830
  -8.9200000000000002E-002    -3.2127940654754639
  -8.8099999999999984E-002    -1.3825042247772217
  -8.6999999999999994E-002     2.0387282371520996
  -8.5899999999999990E-002     5.6720566749572754
  -8.4799999999999986E-002     7.4170160293579102
  -8.3699999999999997E-002     5.6286792755126953
  -8.2599999999999993E-002    0.39819374680519104
  -8.1499999999999989E-002    -6.0453977584838867
  -8.0399999999999999E-002    -10.354399681091309
  -7.9299999999999995E-002    -10.030312538146973
  -7.8199999999999992E-002    -5.0563468933105469
  -7.7100000000000002E-002     1.9797190427780151
  -7.5999999999999984E-002     7.4250855445861816
  -7.4899999999999994E-002     8.7560911178588867
  -7.3799999999999991E-002     6.0014586448669434
  -7.2699999999999987E-002     1.5506839752197266
  -7.1599999999999997E-002    -1.4247802495956421
  -7.0499999999999993E-002   -0.91241794824600220
  -6.9399999999999989E-002     2.7657096385955811
  -6.8300000000000000E-002     7.1552186012268066
  -6.7199999999999996E-002     9.0656986236572266
  -6.6099999999999992E-002     6.2711839675903320
  -6.5000000000000002E-002    -1.5960365533828735
  -6.3899999999999985E-002    -13.489922523498535
  -6.2799999999999995E-002    -28.048898696899414
  -6.1699999999999991E-002    -43.748985290527344
  -6.0599999999999994E-002    -57.085224151611328
  -5.9499999999999990E-002    -59.943653106689453
  -5.8399999999999994E-002    -39.396640777587891
  -5.7299999999999990E-002     17.441722869873047
  -5.6199999999999986E-002     114.87887573242188
  -5.5099999999999996E-002     242.49456787109375
  -5.3999999999999992E-002     378.12478637695312
  -5.2899999999999989E-002     501.08258056640625
  -5.1799999999999985E-002     608.07354736328125
  -5.0699999999999995E-002     719.90856933593750
  -4.9599999999999991E-002     872.13873291015625
  -4.8499999999999988E-002     1094.6477050781250
  -4.7399999999999998E-002     1394.8217773437500
  -4.6299999999999994E-002     1757.6821289062500
  -4.5199999999999990E-002     2164.3295898437500
  -4.4099999999999986E-002     2616.3129882812500
  -4.2999999999999997E-002     3148.9343261718750
  -4.1899999999999993E-002     3824.4758300781250
  -4.0799999999999989E-002     4710.2597656250000
  -3.9699999999999985E-002     5855.8701171875000
  -3.8599999999999995E-002     7283.1791992187500
  -3.7499999999999992E-002     8994.6015625000000
  -3.6399999999999988E-002     10995.508789062500
  -3.5299999999999984E-002     13320.580078125000
  -3.4199999999999994E-002     16051.728515625000
  -3.3099999999999991E-002     19316.869140625000
  -3.1999999999999987E-002     23266.496093750000
  -3.0899999999999997E-002     28038.164062500000
  -2.9799999999999993E-002     33730.871093750000
  -2.8699999999999989E-002     40411.652343750000
  -2.7599999999999986E-002     48158.660156250000
  -2.6499999999999996E-002     57117.054687500000
  -2.5399999999999992E-002     67528.625000000000
  -2.4299999999999988E-002     79709.398437500000
  -2.3199999999999985E-002     93985.414062500000
  -2.2099999999999995E-002     110630.85156250000
  -2.0999999999999991E-002     129854.71093750000
  -1.9899999999999987E-002     151847.28125000000
  -1.8799999999999983E-002     176853.96875000000
  -1.7699999999999994E-002     205225.10937500000
  -1.6599999999999990E-002     237410.26562500000
  -1.5499999999999986E-002     273903.75000000000
  -1.4399999999999996E-002     315185.90625000000
  -1.3299999999999992E-002     361692.28125000000
  -1.2199999999999989E-002     413819.59375000000
  -1.1099999999999985E-002     471955.50000000000
  -9.9999999999999950E-003     536499.18750000000
  -8.8999999999999913E-003     607870.31250000000
  -7.7999999999999875E-003     686494.18750000000
  -6.6999999999999837E-003     772776.31250000000
  -5.5999999999999939E-003     867073.62500000000
  -4.4999999999999901E-003     969663.43750000000
  -3.3999999999999864E-003     1080732.5000000000
  -2.2999999999999826E-003     1200389.2500000000
  -1.1999999999999927E-003     1328670.0000000000
  -9.9999999999988987E-005     1465539.3750000000
   1.0000000000000148E-003     1610844.1250000000
   2.1000000000000185E-003     1764242.0000000000
   3.2000000000000084E-003     1925138.5000000000
   4.3000000000000121E-003     2092703.7500000000
   5.4000000000000159E-003     2265923.7500000000
   6.5000000000000058E-003     2443651.5000000000
   7.6000000000000234E-003     2624608.7500000000
   8.7000000000000133E-003     2807311.0000000000
   9.8000000000000032E-003     2989983.0000000000
   1.0900000000000021E-002     3170523.2500000000
   1.2000000000000011E-002     3346550.0000000000
   1.3100000000000001E-002     3515455.5000000000
   1.4200000000000018E-002     3674445.0000000000
   1.5300000000000008E-002     3820556.2500000000
   1.6400000000000026E-002     3950676.0000000000
   1.7500000000000016E-002     4061501.5000000000
   1.8600000000000005E-002     4149611.0000000000
   1.9700000000000023E-002     4211539.0000000000
   2.0800000000000013E-002     4243819.0000000000
   2.1900000000000003E-002     4243013.5000000000
   2.3000000000000020E-002     4205808.5000000000
   2.4100000000000010E-002     4128995.7500000000
   2.5200000000000000E-002     4009621.7500000000
   2.6300000000000018E-002     3844983.0000000000
   2.7400000000000008E-002     3632712.2500000000
   2.8500000000000025E-002     3370945.0000000000
   2.9600000000000015E-002     3058350.2500000000
   3.0700000000000005E-002     2694229.5000000000
   3.1800000000000023E-002     2278499.0000000000
   3.2900000000000013E-002     1811806.5000000000
   3.4000000000000002E-002     1295438.3750000000
   3.5100000000000020E-002     731391.50000000000
   3.6200000000000010E-002     122432.22656250000
   3.7300000000000028E-002    -527848.81250000000
   3.8400000000000017E-002    -1214927.5000000000
   3.9500000000000007E-002    -1933460.7500000000
   4.0600000000000025E-002    -2677411.5000000000
   4.1700000000000015E-002    -3440162.0000000000
   4.2800000000000005E-002    -4214480.0000000000
   4.3900000000000022E-002    -4992542.5000000000
   4.5000000000000012E-002    -5766019.0000000000
   4.6100000000000002E-002    -6526183.5000000000
   4.7200000000000020E-002    -7264134.0000000000
   4.8300000000000010E-002    -7970948.0000000000
   4.9400000000000027E-002    -8637820.0000000000
   5.0500000000000017E-002    -9256088.0000000000
   5.1600000000000007E-002    -9817346.0000000000
   5.2700000000000025E-002    -10313590.000000000
   5.3800000000000014E-002    -10737473.000000000
   5.4900000000000004E-002    -11082476.000000000
   5.6000000000000022E-002    -11343032.000000000
   5.7100000000000012E-002    -11514529.000000000
   5.8200000000000002E-002    -11593324.000000000
   5.9300000000000019E-002    -11576854.000000000
   6.0400000000000009E-002    -11463788.000000000
   6.1500000000000027E-002    -11254155.000000000
   6.2600000000000017E-002    -10949349.000000000
   6.3700000000000007E-002    -10551998.000000000
   6.4800000000000024E-002    -10065892.000000000
   6.5900000000000014E-002    -9495903.0000000000
   6.7000000000000004E-002    -8848056.0000000000
   6.8100000000000022E-002    -8129409.5000000000
   6.9200000000000012E-002    -7347967.0000000000
   7.0300000000000029E-002    -6512454.5000000000
   7.1400000000000019E-002    -5632165.0000000000
   7.2500000000000009E-002    -4716936.0000000000
   7.3600000000000027E-002    -3777021.7500000000
   7.4700000000000016E-002    -2822901.0000000000
   7.5800000000000006E-002    -1864997.6250000000
   7.6900000000000024E-002    -913406.68750000000
   7.8000000000000014E-002     22098.767578125000
   7.9100000000000004E-002     932192.62500000000
   8.0200000000000021E-002     1807910.7500000000
   8.1300000000000011E-002     2640889.5000000000
   8.2400000000000029E-002     3423760.5000000000
   8.3500000000000019E-002     4150151.5000000000
   8.4600000000000009E-002     4814836.0000000000
   8.5700000000000026E-002     5413426.0000000000
   8.6800000000000016E-002     5942287.0000000000
   8.7900000000000006E-002     6398758.5000000000
   8.9000000000000024E-002     6781285.5000000000
   9.0100000000000013E-002     7089534.5000000000
   9.1200000000000003E-002     7324456.5000000000
   9.2300000000000021E-002     7487740.0000000000
   9.3400000000000011E-002     7581594.5000000000
   9.4500000000000028E-002     7608785.0000000000
   9.5600000000000018E-002     7572829.5000000000
   9.6700000000000008E-002     7478083.5000000000
   9.7800000000000026E-002     7329576.0000000000
   9.8900000000000016E-002     7132574.5000000000
  0.10000000000000001          6892395.0000000000
  0.10110000000000002          6614299.5000000000
  0.10220000000000001          6303690.0000000000
  0.10330000000000003          5966191.0000000000
  0.10440000000000002          5607502.5000000000
  0.10550000000000001          5233098.5000000000
  0.10660000000000003          4847994.5000000000
  0.10770000000000002          4456779.5000000000
  0.10880000000000001          4063820.5000000000
  0.10990000000000003          3673255.0000000000
  0.11100000000000002          3288877.2500000000
  0.11210000000000001          2913949.5000000000
  0.11320000000000002          2551168.7500000000
  0.11430000000000001          2202820.2500000000
  0.11540000000000003          1870909.5000000000
  0.11650000000000002          1557202.1250000000
  0.11760000000000001          1263080.5000000000
  0.11870000000000003          989375.12500000000
  0.11980000000000002          736439.18750000000
  0.12090000000000001          504401.56250000000
  0.12200000000000003          293336.25000000000
  0.12310000000000001          103221.11718750000
  0.12420000000000003         -66312.734375000000
  0.12530000000000002         -216097.25000000000
  0.12640000000000001         -347247.25000000000
  0.12750000000000003         -460822.09375000000
  0.12860000000000002         -557635.75000000000
  0.12970000000000001         -638376.06250000000
  0.13080000000000003         -703943.37500000000
  0.13190000000000002         -755625.62500000000
  0.13300000000000001         -794933.00000000000
  0.13410000000000000         -823222.06250000000
  0.13520000000000004         -841470.93750000000
  0.13630000000000003         -850405.93750000000
  0.13740000000000002         -850840.06250000000
  0.13850000000000001         -843904.93750000000
  0.13960000000000000         -830904.68750000000
  0.14070000000000005         -812966.93750000000
  0.14180000000000004         -790831.56250000000
  0.14290000000000003         -764957.56250000000
  0.14400000000000002         -735842.75000000000
  0.14510000000000001         -704207.87500000000
  0.14620000000000000         -670900.18750000000
  0.14730000000000004         -636627.75000000000
  0.14840000000000003         -601825.12500000000
  0.14950000000000002         -566762.37500000000
  0.15060000000000001         -531741.00000000000
  0.15170000000000000         -497186.25000000000
  0.15280000000000005         -463530.90625000000
  0.15390000000000004         -431030.53125000000
  0.15500000000000003         -399784.21875000000
  0.15610000000000002         -369866.56250000000
  0.15720000000000001         -341479.46875000000
  0.15830000000000000         -314883.06250000000
  0.15940000000000004         -290197.31250000000
  0.16050000000000003         -267283.15625000000
  0.16160000000000002         -245896.64062500000
  0.16270000000000001         -225965.21875000000
  0.16380000000000000         -207680.64062500000
  0.16490000000000005         -191323.07812500000
  0.16600000000000004         -176945.93750000000
  0.16710000000000003         -164238.06250000000
  0.16820000000000002         -152736.42187500000
  0.16930000000000001         -142194.75000000000
  0.17040000000000000         -132738.39062500000
  0.17150000000000004         -124637.42187500000
  0.17260000000000003         -117935.75000000000
  0.17370000000000002         -112279.85156250000
  0.17480000000000001         -107168.49218750000
  0.17590000000000000         -102328.57812500000
  0.17700000000000005         -97877.648437500000
  0.17810000000000004         -94116.242187500000
  0.17920000000000003         -91160.140625000000
  0.18030000000000002         -88747.750000000000
  0.18140000000000001         -86456.828125000000
  0.18250000000000000         -84040.195312500000
  0.18360000000000004         -81592.757812500000
  0.18470000000000003         -79363.023437500000
  0.18580000000000002         -77454.742187500000
  0.18690000000000001         -75703.820312500000
  0.18800000000000000         -73838.609375000000
  0.18910000000000005         -71735.437500000000
  0.19020000000000004         -69499.398437500000
  0.19130000000000003         -67300.226562500000
  0.19240000000000002         -65183.839843750000
  0.19350000000000001         -63052.667968750000
  0.19460000000000005         -60822.902343750000
  0.19570000000000004         -58550.714843750000
  0.19680000000000003         -56379.609375000000
  0.19790000000000002         -54363.902343750000
  0.19900000000000001         -52382.625000000000
  0.20010000000000000         -50266.308593750000
  0.20120000000000005         -47996.042968750000
  0.20230000000000004         -45762.855468750000
  0.20340000000000003         -43787.460937500000
  0.20450000000000002         -42083.480468750000
  0.20560000000000000         -40438.082031250000
  0.20670000000000005         -38635.476562500000
  0.20780000000000004         -36714.167968750000
  0.20890000000000003         -34961.214843750000
