 -0.12000000000000000          0.0000000000000000
 -0.11889999999999999          0.0000000000000000
 -0.11780000000000000          0.0000000000000000
 -0.11670000000000000         -1.2938851379207250E-012
 -0.11559999999999999         -2.1593881197046194E-012
 -0.11449999999999999          4.1498679492768531E-012
 -0.11340000000000000         -1.0380642526119921E-011
 -0.11230000000000000         -1.4457704478054723E-010
 -0.11119999999999999         -4.1024345032170118E-010
 -0.11009999999999999         -3.8475675423477185E-010
 -0.10900000000000000          7.1693923020532679E-010
 -0.10790000000000000          2.8614517422198560E-009
 -0.10679999999999999          3.6604814734886304E-009
 -0.10569999999999999         -8.7241064372634014E-010
 -0.10460000000000000         -1.1501279040260215E-008
 -0.10349999999999999         -2.0209832030104735E-008
 -0.10239999999999999         -1.2033965823832204E-008
 -0.10130000000000000          2.1053908838553070E-008
 -0.10020000000000000          6.2860685545729211E-008
  -9.9099999999999994E-002     7.2426693975558010E-008
  -9.7999999999999990E-002     1.3137995580336792E-008
  -9.6899999999999986E-002    -1.0367673297650981E-007
  -9.5799999999999996E-002    -2.0150227442172763E-007
  -9.4699999999999993E-002    -1.7993831136209337E-007
  -9.3599999999999989E-002     1.6064020114114896E-009
  -9.2499999999999999E-002     2.6394465635348752E-007
  -9.1399999999999995E-002     4.3623782630675123E-007
  -9.0299999999999991E-002     3.6957831639483629E-007
  -8.9200000000000002E-002     5.3429154434070369E-008
  -8.8099999999999984E-002    -3.6277094750403194E-007
  -8.6999999999999994E-002    -6.6517566210677614E-007
  -8.5899999999999990E-002    -7.0826666842549457E-007
  -8.4799999999999986E-002    -4.7501399080829287E-007
  -8.3699999999999997E-002    -3.2589134946192644E-008
  -8.2599999999999993E-002     5.3840278724237578E-007
  -8.1499999999999989E-002     1.1398323067624005E-006
  -8.0399999999999999E-002     1.5755019830976380E-006
  -7.9299999999999995E-002     1.5175349972196273E-006
  -7.8199999999999992E-002     6.4832619273147429E-007
  -7.7100000000000002E-002    -1.0474093414813979E-006
  -7.5999999999999984E-002    -3.0520573091052938E-006
  -7.4899999999999994E-002    -4.3885229388251901E-006
  -7.3799999999999991E-002    -4.0521135815652087E-006
  -7.2699999999999987E-002    -1.5851751413720194E-006
  -7.1599999999999997E-002     2.5505441954010166E-006
  -7.0499999999999993E-002     7.0305372901202645E-006
  -6.9399999999999989E-002     1.0116412340721581E-005
  -6.8300000000000000E-002     1.0257891517539974E-005
  -6.7199999999999996E-002     6.5867416196851991E-006
  -6.6099999999999992E-002    -8.5177151731841150E-007
  -6.5000000000000002E-002    -1.1175224244652782E-005
  -6.3899999999999985E-002    -2.3033255274640396E-005
  -6.2799999999999995E-002    -3.5189455957151949E-005
  -6.1699999999999991E-002    -4.7122539399424568E-005
  -6.0599999999999994E-002    -5.9367790527176112E-005
  -5.9499999999999990E-002    -7.3399380198679864E-005
  -5.8399999999999994E-002    -9.1121393779758364E-005
  -5.7299999999999990E-002    -1.1430759332142770E-004
  -5.6199999999999986E-002    -1.4435825869441032E-004
  -5.5099999999999996E-002    -1.8247133994009346E-004
  -5.3999999999999992E-002    -2.2998731583356857E-004
  -5.2899999999999989E-002    -2.8858112636953592E-004
  -5.1799999999999985E-002    -3.6022116546519101E-004
  -5.0699999999999995E-002    -4.4712971430271864E-004
  -4.9599999999999991E-002    -5.5201322538778186E-004
  -4.8499999999999988E-002    -6.7852350184693933E-004
  -4.7399999999999998E-002    -8.3158374764025211E-004
  -4.6299999999999994E-002    -1.0172530310228467E-003
  -4.5199999999999990E-002    -1.2422307627275586E-003
  -4.4099999999999986E-002    -1.5135201392695308E-003
  -4.2999999999999997E-002    -1.8387287855148315E-003
  -4.1899999999999993E-002    -2.2269666660577059E-003
  -4.0799999999999989E-002    -2.6897774077951908E-003
  -3.9699999999999985E-002    -3.2415122259408236E-003
  -3.8599999999999995E-002    -3.8990285247564316E-003
  -3.7499999999999992E-002    -4.6811345964670181E-003
  -3.6399999999999988E-002    -5.6082806549966335E-003
  -3.5299999999999984E-002    -6.7026223987340927E-003
  -3.4199999999999994E-002    -7.9882247373461723E-003
  -3.3099999999999991E-002    -9.4912322238087654E-003
  -3.1999999999999987E-002    -1.1240185238420963E-002
  -3.0899999999999997E-002    -1.3266814872622490E-002
  -2.9799999999999993E-002    -1.5607282519340515E-002
  -2.8699999999999989E-002    -1.8303250893950462E-002
  -2.7599999999999986E-002    -2.1402014419436455E-002
  -2.6499999999999996E-002    -2.4955520406365395E-002
  -2.5399999999999992E-002    -2.9018957167863846E-002
  -2.4299999999999988E-002    -3.3649917691946030E-002
  -2.3199999999999985E-002    -3.8908585906028748E-002
  -2.2099999999999995E-002    -4.4858425855636597E-002
  -2.0999999999999991E-002    -5.1566421985626221E-002
  -1.9899999999999987E-002    -5.9102438390254974E-002
  -1.8799999999999983E-002    -6.7538052797317505E-002
  -1.7699999999999994E-002    -7.6945565640926361E-002
  -1.6599999999999990E-002    -8.7397351861000061E-002
  -1.5499999999999986E-002    -9.8965041339397430E-002
  -1.4399999999999996E-002   -0.11171788722276688
  -1.3299999999999992E-002   -0.12572042644023895
  -1.2199999999999989E-002   -0.14103029668331146
  -1.1099999999999985E-002   -0.15769679844379425
  -9.9999999999999950E-003   -0.17576004564762115
  -8.8999999999999913E-003   -0.19524957239627838
  -7.7999999999999875E-003   -0.21618135273456573
  -6.6999999999999837E-003   -0.23855379223823547
  -5.5999999999999939E-003   -0.26234388351440430
  -4.4999999999999901E-003   -0.28750455379486084
  -3.3999999999999864E-003   -0.31396344304084778
  -2.2999999999999826E-003   -0.34162124991416931
  -1.1999999999999927E-003   -0.37034904956817627
  -9.9999999999988987E-005   -0.39998498558998108
   1.0000000000000148E-003   -0.43033120036125183
   2.1000000000000185E-003   -0.46115219593048096
   3.2000000000000084E-003   -0.49217456579208374
   4.3000000000000121E-003   -0.52308636903762817
   5.4000000000000159E-003   -0.55353593826293945
   6.5000000000000058E-003   -0.58313065767288208
   7.6000000000000234E-003   -0.61143755912780762
   8.7000000000000133E-003   -0.63798660039901733
   9.8000000000000032E-003   -0.66227507591247559
   1.0900000000000021E-002   -0.68377178907394409
   1.2000000000000011E-002   -0.70192003250122070
   1.3100000000000001E-002   -0.71614056825637817
   1.4200000000000018E-002   -0.72583711147308350
   1.5300000000000008E-002   -0.73040407896041870
   1.6400000000000026E-002   -0.72923612594604492
   1.7500000000000016E-002   -0.72173780202865601
   1.8600000000000005E-002   -0.70733124017715454
   1.9700000000000023E-002   -0.68546456098556519
   2.0800000000000013E-002   -0.65562230348587036
   2.1900000000000003E-002   -0.61733770370483398
   2.3000000000000020E-002   -0.57020485401153564
   2.4100000000000010E-002   -0.51388937234878540
   2.5200000000000000E-002   -0.44813665747642517
   2.6300000000000018E-002   -0.37277883291244507
   2.7400000000000008E-002   -0.28774383664131165
   2.8500000000000025E-002   -0.19306585192680359
   2.9600000000000015E-002    -8.8894806802272797E-002
   3.0700000000000005E-002     2.4496950209140778E-002
   3.1800000000000023E-002    0.14671166241168976
   3.2900000000000013E-002    0.27722579240798950
   3.4000000000000002E-002    0.41538876295089722
   3.5100000000000020E-002    0.56042170524597168
   3.6200000000000010E-002    0.71141797304153442
   3.7300000000000028E-002    0.86734747886657715
   3.8400000000000017E-002     1.0270648002624512
   3.9500000000000007E-002     1.1893187761306763
   4.0600000000000025E-002     1.3527618646621704
   4.1700000000000015E-002     1.5159596204757690
   4.2800000000000005E-002     1.6774022579193115
   4.3900000000000022E-002     1.8355195522308350
   4.5000000000000012E-002     1.9886974096298218
   4.6100000000000002E-002     2.1352961063385010
   4.7200000000000020E-002     2.2736666202545166
   4.8300000000000010E-002     2.4021670818328857
   4.9400000000000027E-002     2.5191807746887207
   5.0500000000000017E-002     2.6231346130371094
   5.1600000000000007E-002     2.7125201225280762
   5.2700000000000025E-002     2.7859132289886475
   5.3800000000000014E-002     2.8419902324676514
   5.4900000000000004E-002     2.8795440196990967
   5.6000000000000022E-002     2.8974995613098145
   5.7100000000000012E-002     2.8949301242828369
   5.8200000000000002E-002     2.8710741996765137
   5.9300000000000019E-002     2.8253481388092041
   6.0400000000000009E-002     2.7573564052581787
   6.1500000000000027E-002     2.6668994426727295
   6.2600000000000017E-002     2.5539820194244385
   6.3700000000000007E-002     2.4188230037689209
   6.4800000000000024E-002     2.2618622779846191
   6.5900000000000014E-002     2.0837638378143311
   6.7000000000000004E-002     1.8854131698608398
   6.8100000000000022E-002     1.6679136753082275
   6.9200000000000012E-002     1.4325823783874512
   7.0300000000000029E-002     1.1809469461441040
   7.1400000000000019E-002    0.91473925113677979
   7.2500000000000009E-002    0.63588356971740723
   7.3600000000000027E-002    0.34648096561431885
   7.4700000000000016E-002     4.8790901899337769E-002
   7.5800000000000006E-002   -0.25478643178939819
   7.6900000000000024E-002   -0.56172949075698853
   7.8000000000000014E-002   -0.86941742897033691
   7.9100000000000004E-002    -1.1751562356948853
   8.0200000000000021E-002    -1.4762097597122192
   8.1300000000000011E-002    -1.7698299884796143
   8.2400000000000029E-002    -2.0532886981964111
   8.3500000000000019E-002    -2.3239073753356934
   8.4600000000000009E-002    -2.5790877342224121
   8.5700000000000026E-002    -2.8163454532623291
   8.6800000000000016E-002    -3.0333442687988281
   8.7900000000000006E-002    -3.2279295921325684
   8.9000000000000024E-002    -3.3981590270996094
   9.0100000000000013E-002    -3.5423290729522705
   9.1200000000000003E-002    -3.6589999198913574
   9.2300000000000021E-002    -3.7470185756683350
   9.3400000000000011E-002    -3.8055408000946045
   9.4500000000000028E-002    -3.8340470790863037
   9.5600000000000018E-002    -3.8323509693145752
   9.6700000000000008E-002    -3.8006031513214111
   9.7800000000000026E-002    -3.7392914295196533
   9.8900000000000016E-002    -3.6492378711700439
  0.10000000000000001         -3.5315921306610107
  0.10110000000000002         -3.3878166675567627
  0.10220000000000001         -3.2196645736694336
  0.10330000000000003         -3.0291533470153809
  0.10440000000000002         -2.8185362815856934
  0.10550000000000001         -2.5902724266052246
  0.10660000000000003         -2.3469927310943604
  0.10770000000000002         -2.0914618968963623
  0.10880000000000001         -1.8265365362167358
  0.10990000000000003         -1.5551197528839111
  0.11100000000000002         -1.2801209688186646
  0.11210000000000001         -1.0044175386428833
  0.11320000000000002        -0.73081660270690918
  0.11430000000000001        -0.46201792359352112
  0.11540000000000003        -0.20057643949985504
  0.11650000000000002          5.1132079213857651E-002
  0.11760000000000001         0.29093885421752930
  0.11870000000000003         0.51690423488616943
  0.11980000000000002         0.72733461856842041
  0.12090000000000001         0.92079710960388184
  0.12200000000000003          1.0961322784423828
  0.12310000000000001          1.2524608373641968
  0.12420000000000003          1.3891837596893311
  0.12530000000000002          1.5059756040573120
  0.12640000000000001          1.6027725934982300
  0.12750000000000003          1.6797612905502319
  0.12860000000000002          1.7373641729354858
  0.12970000000000001          1.7762206792831421
  0.13080000000000003          1.7971653938293457
  0.13190000000000002          1.8012022972106934
  0.13300000000000001          1.7894780635833740
  0.13410000000000000          1.7632569074630737
  0.13520000000000004          1.7238959074020386
  0.13630000000000003          1.6728190183639526
  0.13740000000000002          1.6114900112152100
  0.13850000000000001          1.5413869619369507
  0.13960000000000000          1.4639797210693359
  0.14070000000000005          1.3807104825973511
  0.14180000000000004          1.2929761409759521
  0.14290000000000003          1.2021107673645020
  0.14400000000000002          1.1093697547912598
  0.14510000000000001          1.0159168243408203
  0.14620000000000000         0.92281550168991089
  0.14730000000000004         0.83102530241012573
  0.14840000000000003         0.74139821529388428
  0.14950000000000002         0.65467584133148193
  0.15060000000000001         0.57148689031600952
  0.15170000000000000         0.49234792590141296
  0.15280000000000005         0.41766843199729919
  0.15390000000000004         0.34775841236114502
  0.15500000000000003         0.28283581137657166
  0.15610000000000002         0.22303225100040436
  0.15720000000000001         0.16839799284934998
  0.15830000000000000         0.11890865862369537
  0.15940000000000004          7.4475117027759552E-002
  0.16050000000000003          3.4954745322465897E-002
  0.16160000000000002          1.6167061403393745E-004
  0.16270000000000001         -3.0125722289085388E-002
  0.16380000000000000         -5.6159194558858871E-002
  0.16490000000000005         -7.8214406967163086E-002
  0.16600000000000004         -9.6583217382431030E-002
  0.16710000000000003        -0.11156544834375381
  0.16820000000000002        -0.12346226722002029
  0.16930000000000001        -0.13257206976413727
  0.17040000000000000        -0.13918794691562653
  0.17150000000000004        -0.14359503984451294
  0.17260000000000003        -0.14606697857379913
  0.17370000000000002        -0.14686246216297150
  0.17480000000000001        -0.14622305333614349
  0.17590000000000000        -0.14437246322631836
  0.17700000000000005        -0.14151647686958313
  0.17810000000000004        -0.13784250617027283
  0.17920000000000003        -0.13351878523826599
  0.18030000000000002        -0.12869426608085632
  0.18140000000000001        -0.12350018322467804
  0.18250000000000000        -0.11805213987827301
  0.18360000000000004        -0.11245154589414597
  0.18470000000000003        -0.10678585618734360
  0.18580000000000002        -0.10112822800874710
  0.18690000000000001         -9.5538347959518433E-002
  0.18800000000000000         -9.0064689517021179E-002
  0.18910000000000005         -8.4746956825256348E-002
  0.19020000000000004         -7.9617209732532501E-002
  0.19130000000000003         -7.4699424207210541E-002
  0.19240000000000002         -7.0008978247642517E-002
  0.19350000000000001         -6.5553776919841766E-002
  0.19460000000000005         -6.1337023973464966E-002
  0.19570000000000004         -5.7359963655471802E-002
  0.19680000000000003         -5.3622629493474960E-002
  0.19790000000000002         -5.0122525542974472E-002
  0.19900000000000001         -4.6853117644786835E-002
  0.20010000000000000         -4.3804049491882324E-002
  0.20120000000000005         -4.0963336825370789E-002
  0.20230000000000004         -3.8319833576679230E-002
  0.20340000000000003         -3.5863962024450302E-002
  0.20450000000000002         -3.3586435019969940E-002
  0.20560000000000000         -3.1476560980081558E-002
  0.20670000000000005         -2.9521908611059189E-002
  0.20780000000000004         -2.7709620073437691E-002
  0.20890000000000003         -2.6028184220194817E-002
