 -0.12000000000000000          0.0000000000000000
 -0.11889999999999999          0.0000000000000000
 -0.11780000000000000          0.0000000000000000
 -0.11670000000000000          0.0000000000000000
 -0.11559999999999999          0.0000000000000000
 -0.11449999999999999          0.0000000000000000
 -0.11340000000000000          0.0000000000000000
 -0.11230000000000000          0.0000000000000000
 -0.11119999999999999          0.0000000000000000
 -0.11009999999999999          0.0000000000000000
 -0.10900000000000000         -1.1999608259360836E-018
 -0.10790000000000000         -2.3345965105620348E-018
 -0.10679999999999999          2.5871203586319837E-017
 -0.10569999999999999          7.4241564324163684E-017
 -0.10460000000000000         -3.6786392083317237E-016
 -0.10349999999999999         -2.2050770599392136E-015
 -0.10239999999999999         -1.7375313901990937E-015
 -0.10130000000000000          1.8267088823560187E-014
 -0.10020000000000000          6.8734582370401645E-014
  -9.9099999999999994E-002     5.4151497332495977E-014
  -9.7999999999999990E-002    -3.1092855612244646E-013
  -9.6899999999999986E-002    -1.1208328102447205E-012
  -9.5799999999999996E-002    -1.0976308837539385E-012
  -9.4699999999999993E-002     2.9511577643434779E-012
  -9.3599999999999989E-002     1.1996850561579962E-011
  -9.2499999999999999E-002     1.4520576581415596E-011
  -9.1399999999999995E-002    -1.6990114176654691E-011
  -9.0299999999999991E-002    -9.4345344037181371E-011
  -8.9200000000000002E-002    -1.4109539925313549E-010
  -8.8099999999999984E-002     3.5670341680334031E-011
  -8.6999999999999994E-002     5.5993026881746819E-010
  -8.5899999999999990E-002     1.0533089955800876E-009
  -8.4799999999999986E-002     3.9948755414832538E-010
  -8.3699999999999997E-002    -2.4133286480317394E-009
  -8.2599999999999993E-002    -6.0851763628024831E-009
  -8.1499999999999989E-002    -5.3225326368548285E-009
  -8.0399999999999999E-002     6.2955254342943902E-009
  -7.9299999999999995E-002     2.6812349673832068E-008
  -7.8199999999999992E-002     3.6167154604531906E-008
  -7.7100000000000002E-002     2.2531472243614560E-009
  -7.5999999999999984E-002    -8.5170682950767246E-008
  -7.4899999999999994E-002    -1.6904839128529595E-007
  -7.3799999999999991E-002    -1.2257389414574942E-007
  -7.2699999999999987E-002     1.5465053593284885E-007
  -7.1599999999999997E-002     5.6516654467486713E-007
  -7.0499999999999993E-002     7.2131143724626516E-007
  -6.9399999999999989E-002     1.3960375611090602E-007
  -6.8300000000000000E-002    -1.2429752587194556E-006
  -6.7199999999999996E-002    -2.5754559374037360E-006
  -6.6099999999999992E-002    -2.2498725229528387E-006
  -6.5000000000000002E-002     9.1090117848550528E-007
  -6.3899999999999985E-002     5.9544363466558403E-006
  -6.2799999999999995E-002     9.0951616584795920E-006
  -6.1699999999999991E-002     5.5188838814509553E-006
  -6.0599999999999994E-002    -6.4274890974047806E-006
  -5.9499999999999990E-002    -2.1340387320380137E-005
  -5.8399999999999994E-002    -2.7202175260756111E-005
  -5.7299999999999990E-002    -1.2357970263110619E-005
  -5.6199999999999986E-002     2.3682472601652418E-005
  -5.5099999999999996E-002     6.3171159126800531E-005
  -5.3999999999999992E-002     7.4790987127927393E-005
  -5.2899999999999989E-002     3.2042949896997007E-005
  -5.1799999999999985E-002    -6.2742466980139728E-005
  -5.0699999999999995E-002    -1.6474496806041290E-004
  -4.9599999999999991E-002    -1.9867984519804586E-004
  -4.8499999999999988E-002    -1.0013405699279292E-004
  -4.7399999999999998E-002     1.2965088535569786E-004
  -4.6299999999999994E-002     3.8948093424551406E-004
  -4.5199999999999990E-002     5.0164764979847894E-004
  -4.4099999999999986E-002     3.0698670889240049E-004
  -4.2999999999999997E-002    -2.0396179752432079E-004
  -4.1899999999999993E-002    -8.0993707524608047E-004
  -4.0799999999999989E-002    -1.1208509095011227E-003
  -3.9699999999999985E-002    -8.0203573452284672E-004
  -3.8599999999999995E-002     1.5216627798519581E-004
  -3.7499999999999992E-002     1.3049478875471465E-003
  -3.6399999999999988E-002     1.9783454481508279E-003
  -3.5299999999999984E-002     1.6963126836340664E-003
  -3.4199999999999994E-002     5.4667174117631182E-004
  -3.3099999999999991E-002    -8.8263058569248314E-004
  -3.1999999999999987E-002    -2.0076679065817913E-003
  -3.0899999999999997E-002    -2.7360501699145666E-003
  -2.9799999999999993E-002    -3.3408410381526171E-003
  -2.8699999999999989E-002    -3.6415550857785942E-003
  -2.7599999999999986E-002    -2.3078555241229635E-003
  -2.6499999999999996E-002     2.5075080338867184E-003
  -2.5399999999999992E-002     1.0889352299273361E-002
  -2.4299999999999988E-002     1.8798915669321809E-002
  -2.3199999999999985E-002     1.8469732254742251E-002
  -2.2099999999999995E-002     3.2533027697334263E-003
  -2.0999999999999991E-002    -2.5094609707595042E-002
  -1.9899999999999987E-002    -5.2421852946279768E-002
  -1.8799999999999983E-002    -5.7152166962618642E-002
  -1.7699999999999994E-002    -2.4287078529590139E-002
  -1.6599999999999990E-002     3.9676599204543583E-002
  -1.5499999999999986E-002    0.10312721133231791
  -1.4399999999999996E-002    0.12397522479294701
  -1.3299999999999992E-002     7.6506577432142453E-002
  -1.2199999999999989E-002    -2.7146328240641813E-002
  -1.1099999999999985E-002   -0.13817913830280121
  -9.9999999999999950E-003   -0.19752749800680686
  -8.8999999999999913E-003   -0.17086492478845425
  -7.7999999999999875E-003    -6.7484974861126396E-002
  -6.6999999999999837E-003     6.9928713142879670E-002
  -5.5999999999999939E-003    0.19410739839076280
  -4.4999999999999901E-003    0.27470576763151028
  -3.3999999999999864E-003    0.29489669203755448
  -2.2999999999999826E-003    0.23236747086045342
  -1.1999999999999927E-003     5.5247735232094794E-002
  -9.9999999999988987E-005   -0.24496170878410778
   1.0000000000000148E-003   -0.59915983676908535
   2.1000000000000185E-003   -0.83754175901408401
   3.2000000000000084E-003   -0.74739098548882399
   4.3000000000000121E-003   -0.20786698162548681
   5.4000000000000159E-003    0.67395639419559683
   6.5000000000000058E-003     1.5332688093185187
   7.6000000000000234E-003     1.8848155736922174
   8.7000000000000133E-003     1.3818596601484552
   9.8000000000000032E-003     5.5205948650669648E-002
   1.0900000000000021E-002    -1.6223245859146995
   1.2000000000000011E-002    -2.9107329845427881
   1.3100000000000001E-002    -3.1419842243192400
   1.4200000000000018E-002    -2.0492601394650163
   1.5300000000000008E-002     8.2828670740421231E-002
   1.6400000000000026E-002     2.5146167278291189
   1.7500000000000016E-002     4.3337602615355451
   1.8600000000000005E-002     4.7876338958736895
   1.9700000000000023E-002     3.5395665168757504
   2.0800000000000013E-002    0.78798943757965878
   2.1900000000000003E-002    -2.7518327236178224
   2.3000000000000020E-002    -5.9866423606872310
   2.4100000000000010E-002    -7.7019753456112223
   2.5200000000000000E-002    -6.9321746826165755
   2.6300000000000018E-002    -3.3836283683769590
   2.7400000000000008E-002     2.2408132553106888
   2.8500000000000025E-002     8.2252435684207121
   2.9600000000000015E-002     12.280986785888462
   3.0700000000000005E-002     12.394218444823441
   3.1800000000000023E-002     7.7746081352221816
   3.2900000000000013E-002   -0.55697280168663521
   3.4000000000000002E-002    -9.9188823699960587
   3.5100000000000020E-002    -16.900375366211097
   3.6200000000000010E-002    -18.700345993041147
   3.7300000000000028E-002    -14.255933761594941
   3.8400000000000017E-002    -4.6484751701333114
   3.9500000000000007E-002     7.3269906044025968
   4.0600000000000025E-002     18.117818832398509
   4.1700000000000015E-002     24.423395156860014
   4.2800000000000005E-002     23.965457916257964
   4.3900000000000022E-002     16.033184051510780
   4.5000000000000012E-002     1.9250684976545347
   4.6100000000000002E-002    -14.815152168276608
   4.7200000000000020E-002    -28.799736022950540
   4.8300000000000010E-002    -34.264652252196775
   4.9400000000000027E-002    -27.463918685910848
   5.0500000000000017E-002    -8.9873218536342740
   5.1600000000000007E-002     15.474387168887976
   5.2700000000000025E-002     36.892696380618240
   5.3800000000000014E-002     46.766475677491826
   5.4900000000000004E-002     41.194080352783118
   5.6000000000000022E-002     22.802785873411551
   5.7100000000000012E-002   -0.74181783199551843
   5.8200000000000002E-002    -20.870431900027103
   5.9300000000000019E-002    -32.412597656252615
   6.0400000000000009E-002    -35.457717895510456
   6.1500000000000027E-002    -33.794094085696578
   6.2600000000000017E-002    -31.288507461552538
   6.3700000000000007E-002    -29.014163970954485
   6.4800000000000024E-002    -25.400598526011876
   6.5900000000000014E-002    -19.443166732803849
   6.7000000000000004E-002    -14.551939964316201
   6.8100000000000022E-002    -19.718473434476941
   6.9200000000000012E-002    -46.158020019567381
   7.0300000000000029E-002    -100.70734405521932
   7.1400000000000019E-002    -179.98547363286312
   7.2500000000000009E-002    -269.73492431646395
   7.3600000000000027E-002    -351.09582519537838
   7.4700000000000016E-002    -411.27221679695214
   7.5800000000000006E-002    -452.72640991220271
   7.6900000000000024E-002    -495.13351440441301
   7.8000000000000014E-002    -568.15020751967745
   7.9100000000000004E-002    -698.60461425799588
   8.0200000000000021E-002    -899.30267334007101
   8.1300000000000011E-002    -1166.0734863284029
   8.2400000000000029E-002    -1484.6396484378361
   8.3500000000000019E-002    -1843.1098632816538
   8.4600000000000009E-002    -2242.5595703129839
   8.5700000000000026E-002    -2699.8234863287034
   8.6800000000000016E-002    -3241.8420410163158
   8.7900000000000006E-002    -3896.1547851570731
   8.9000000000000024E-002    -4684.0952148447277
   9.0100000000000013E-002    -5620.4692382824087
   9.1200000000000003E-002    -6719.3051757826188
   9.2300000000000021E-002    -8000.4038085953653
   9.3400000000000011E-002    -9493.3554687519008
   9.4500000000000028E-002    -11235.920898439732
   9.5600000000000018E-002    -13269.642578127610
   9.6700000000000008E-002    -15635.111328128045
   9.7800000000000026E-002    -18370.464843753540
   9.8900000000000016E-002    -21512.792968754100
  0.10000000000000001         -25102.130859379737
  0.10110000000000002         -29184.732421880457
  0.10220000000000001         -33812.183593756265
  0.10330000000000003         -39041.101562507167
  0.10440000000000002         -44929.902343758178
  0.10550000000000001         -51538.066406259291
  0.10660000000000003         -58927.777343760528
  0.10770000000000002         -67166.031250011889
  0.10880000000000001         -76322.156250013388
  0.10990000000000003         -86465.257812515018
  0.11100000000000002         -97656.671875016793
  0.11210000000000001         -109942.03906251871
  0.11320000000000002         -123349.67187502078
  0.11430000000000001         -137899.21875002299
  0.11540000000000003         -153602.71875002532
  0.11650000000000002         -170477.31250002782
  0.11760000000000001         -188545.00000003041
  0.11870000000000003         -207811.12500003312
  0.11980000000000002         -228265.71875003594
  0.12090000000000001         -249856.82812503882
  0.12200000000000003         -272490.21875004173
  0.12310000000000001         -296032.81250004470
  0.12420000000000003         -320327.84375004761
  0.12530000000000002         -345195.56250005052
  0.12640000000000001         -370463.96875005332
  0.12750000000000003         -395945.50000005600
  0.12860000000000002         -421415.71875005850
  0.12970000000000001         -446596.12500006071
  0.13080000000000003         -471145.50000006263
  0.13190000000000002         -494661.25000006420
  0.13300000000000001         -516717.28125006531
  0.13410000000000000         -536872.81250006601
  0.13520000000000004         -554691.31250006612
  0.13630000000000003         -569739.75000006554
  0.13740000000000002         -581592.68750006438
  0.13850000000000001         -589785.43750006240
  0.13960000000000000         -593828.37500005960
  0.14070000000000005         -593188.62500005600
  0.14180000000000004         -587333.75000005157
  0.14290000000000003         -575742.81250004622
  0.14400000000000002         -557998.25000003981
  0.14510000000000001         -533684.87500003260
  0.14620000000000000         -502566.56250002439
  0.14730000000000004         -464395.62500001525
  0.14840000000000003         -418935.46875000524
  0.14950000000000002         -365991.93749999441
  0.15060000000000001         -305456.93749998283
  0.15170000000000000         -237349.53124997052
  0.15280000000000005         -161802.54687495762
  0.15390000000000004         -79171.249999944281
  0.15500000000000003          10159.870117256920
  0.15610000000000002          105673.30468758332
  0.15720000000000001          206903.12500009729
  0.15830000000000000          313165.09375011118
  0.15940000000000004          423645.25000012474
  0.16050000000000003          537361.93750013784
  0.16160000000000002          653231.68750015029
  0.16270000000000001          770169.62500016182
  0.16380000000000000          886983.50000017253
  0.16490000000000005          1002461.2500001820
  0.16600000000000004          1115256.2500001900
  0.16710000000000003          1223997.7500001967
  0.16820000000000002          1327377.6250002019
  0.16930000000000001          1424098.5000002051
  0.17040000000000000          1512891.2500002068
  0.17150000000000004          1592446.3750002063
  0.17260000000000003          1661494.1250002040
  0.17370000000000002          1718915.5000001998
  0.17480000000000001          1763782.5000001937
  0.17590000000000000          1795337.0000001858
  0.17700000000000005          1812921.8750001760
  0.17810000000000004          1815956.0000001644
  0.17920000000000003          1804000.6250001513
  0.18030000000000002          1776826.0000001367
  0.18140000000000001          1734501.7500001211
  0.18250000000000000          1677323.0000001041
  0.18360000000000004          1605744.5000000861
  0.18470000000000003          1520339.8750000678
  0.18580000000000002          1421869.8750000489
  0.18690000000000001          1311204.1250000296
  0.18800000000000000          1189463.8750000105
  0.18910000000000005          1057960.4999999916
  0.19020000000000004          918144.06249997311
  0.19130000000000003          771545.62499995541
  0.19240000000000002          619721.87499993842
  0.19350000000000001          464318.93749992253
  0.19460000000000005          307016.71874990786
  0.19570000000000004          149458.76562489453
  0.19680000000000003         -6688.7568360548794
  0.19790000000000002         -159811.25000012774
  0.19900000000000001         -308309.71875013644
  0.20010000000000000         -450697.00000014354
  0.20120000000000005         -585559.93750014901
  0.20230000000000004         -711674.93750015274
  0.20340000000000003         -827996.68750015495
  0.20450000000000002         -933624.25000015553
  0.20560000000000000         -1027796.6875001547
  0.20670000000000005         -1109923.5000001525
  0.20780000000000004         -1179497.6250001490
  0.20890000000000003         -1236269.6250001441
