 -0.12000000000000000          0.0000000000000000
 -0.11889999999999999          0.0000000000000000
 -0.11780000000000000          0.0000000000000000
 -0.11670000000000000          0.0000000000000000
 -0.11559999999999999          0.0000000000000000
 -0.11449999999999999          0.0000000000000000
 -0.11340000000000000          0.0000000000000000
 -0.11230000000000000          0.0000000000000000
 -0.11119999999999999          0.0000000000000000
 -0.11009999999999999          0.0000000000000000
 -0.10900000000000000         -2.2229818337185610E-031
 -0.10790000000000000          4.3865853100369734E-030
 -0.10679999999999999         -4.5569264710101115E-028
 -0.10569999999999999          2.8633296410165715E-028
 -0.10460000000000000         -3.6509374880675164E-028
 -0.10349999999999999         -8.2857265622790330E-026
 -0.10239999999999999         -2.2725398954422769E-025
 -0.10130000000000000          8.6576596879487672E-025
 -0.10020000000000000          4.0109912771583699E-024
  -9.9099999999999994E-002    -5.1471375462807116E-024
  -9.7999999999999990E-002    -5.3142441606442132E-023
  -9.6899999999999986E-002    -4.2992625878288401E-023
  -9.5799999999999996E-002     4.0092107392091955E-022
  -9.4699999999999993E-002     1.1414813764451185E-021
  -9.3599999999999989E-002    -7.3455617488947876E-022
  -9.2499999999999999E-002    -9.4239790537307133E-021
  -9.1399999999999995E-002    -1.4503542522434703E-020
  -9.0299999999999991E-002     2.7055872608607651E-020
  -8.9200000000000002E-002     1.3736860478167126E-019
  -8.8099999999999984E-002     1.3677116065955777E-019
  -8.6999999999999994E-002    -4.1367069789229633E-019
  -8.5899999999999990E-002    -1.4953842458061467E-018
  -8.4799999999999986E-002    -1.1374585418635060E-018
  -8.3699999999999997E-002     4.2295428032382850E-018
  -8.2599999999999993E-002     1.3219532365595783E-017
  -8.1499999999999989E-002     9.3650096774415832E-018
  -8.0399999999999999E-002    -3.2464082876905310E-017
  -7.9299999999999995E-002    -9.8750700880932164E-017
  -7.8199999999999992E-002    -7.6644312245342301E-017
  -7.7100000000000002E-002     1.9408105625107186E-016
  -7.5999999999999984E-002     6.3353024608585502E-016
  -7.4899999999999994E-002     5.8442801083131925E-016
  -7.3799999999999991E-002    -8.9288866404068799E-016
  -7.2699999999999987E-002    -3.5014241397783585E-015
  -7.1599999999999997E-002    -3.9370938421327134E-015
  -7.0499999999999993E-002     2.8514426080326937E-015
  -6.9399999999999989E-002     1.6579677219888747E-014
  -6.8300000000000000E-002     2.2883084655118437E-014
  -6.7199999999999996E-002    -2.8545080202688070E-015
  -6.6099999999999992E-002    -6.6245193195996893E-014
  -6.5000000000000002E-002    -1.1384715056534517E-013
  -6.3899999999999985E-002    -3.8196859276874370E-014
  -6.2799999999999995E-002     2.1568029751495993E-013
  -6.1699999999999991E-002     4.8274454095623143E-013
  -6.0599999999999994E-002     3.4742106652489724E-013
  -5.9499999999999990E-002    -5.1963565828733183E-013
  -5.8399999999999994E-002    -1.7296373751654603E-012
  -5.7299999999999990E-002    -1.8769970386994794E-012
  -5.6199999999999986E-002     5.6611014704124885E-013
  -5.5099999999999996E-002     5.1238800528874417E-012
  -5.3999999999999992E-002     7.7181889351907174E-012
  -5.2899999999999989E-002     2.5002322261158394E-012
  -5.1799999999999985E-002    -1.1849044315170865E-011
  -5.0699999999999995E-002    -2.5564168837366452E-011
  -4.9599999999999991E-002    -1.9764929276577803E-011
  -4.8499999999999988E-002     1.7401916713177812E-011
  -4.7399999999999998E-002     6.8530216223994245E-011
  -4.6299999999999994E-002     8.2172921245238228E-011
  -4.5199999999999990E-002     7.2824914501556925E-012
  -4.4099999999999986E-002    -1.4282053317771215E-010
  -4.2999999999999997E-002    -2.5207913534330828E-010
  -4.1899999999999993E-002    -1.5719003876313309E-010
  -4.0799999999999989E-002     1.9579841914474372E-010
  -3.9699999999999985E-002     6.0321347916669765E-010
  -3.8599999999999995E-002     6.4512450936859977E-010
  -3.7499999999999992E-002     6.1630856668104528E-012
  -3.6399999999999988E-002    -1.0955422125036307E-009
  -3.5299999999999984E-002    -1.7837370469564462E-009
  -3.4199999999999994E-002    -1.0454830334793996E-009
  -3.3099999999999991E-002     1.2616103717277838E-009
  -3.1999999999999987E-002     3.7131204777551829E-009
  -3.0899999999999997E-002     3.8722758333165075E-009
  -2.9799999999999993E-002     2.3713928043456178E-010
  -2.8699999999999989E-002    -5.6824385197273841E-009
  -2.7599999999999986E-002    -9.2535668017035277E-009
  -2.6499999999999996E-002    -5.7356048799306336E-009
  -2.5399999999999992E-002     5.0489061820258030E-009
  -2.4299999999999988E-002     1.6287664550418413E-008
  -2.3199999999999985E-002     1.7507149507878239E-008
  -2.2099999999999995E-002     3.0292659491948370E-009
  -2.0999999999999991E-002    -2.0459040683817875E-008
  -1.9899999999999987E-002    -3.4992186925819624E-008
  -1.8799999999999983E-002    -2.3645286617579586E-008
  -1.7699999999999994E-002     1.3199097814720062E-008
  -1.6599999999999990E-002     5.1607184303747999E-008
  -1.5499999999999986E-002     5.7573945611011368E-008
  -1.4399999999999996E-002     1.4730854758226997E-008
  -1.3299999999999992E-002    -5.4645248326323781E-008
  -1.2199999999999989E-002    -9.7183239233800123E-008
  -1.1099999999999985E-002    -6.6974635615224543E-008
  -9.9999999999999950E-003     3.0522144811584440E-008
  -8.8999999999999913E-003     1.2795594273029565E-007
  -7.7999999999999875E-003     1.3871390081021673E-007
  -6.6999999999999837E-003     2.9478094631940621E-008
  -5.5999999999999939E-003    -1.3474847548877733E-007
  -4.4999999999999901E-003    -2.2184065073815873E-007
  -3.3999999999999864E-003    -1.3289127309690230E-007
  -2.2999999999999826E-003     1.0000177752544914E-007
  -1.1999999999999927E-003     3.0712701004631526E-007
  -9.9999999999988987E-005     2.9576136739706271E-007
   1.0000000000000148E-003     1.5393739616342828E-008
   2.1000000000000185E-003    -3.5998164094053209E-007
   3.2000000000000084E-003    -5.2603263611672446E-007
   4.3000000000000121E-003    -2.8003623242511821E-007
   5.4000000000000159E-003     2.7767754318119842E-007
   6.5000000000000058E-003     7.5416613753986894E-007
   7.6000000000000234E-003     7.2679068807701697E-007
   8.7000000000000133E-003     9.2407361762525397E-008
   9.8000000000000032E-003    -7.7301416467889794E-007
   1.0900000000000021E-002    -1.2192085705464706E-006
   1.2000000000000011E-002    -7.9679534792376217E-007
   1.3100000000000001E-002     3.3535380339344556E-007
   1.4200000000000018E-002     1.4191257378115552E-006
   1.5300000000000008E-002     1.5949132148307399E-006
   1.6400000000000026E-002     5.7304873735120054E-007
   1.7500000000000016E-002    -1.0355804533901392E-006
   1.8600000000000005E-002    -2.0580914679158013E-006
   1.9700000000000023E-002    -1.6083256468846230E-006
   2.0800000000000013E-002     1.5589449731123750E-007
   2.1900000000000003E-002     1.9969127151853172E-006
   2.3000000000000020E-002     2.4321248019987252E-006
   2.4100000000000010E-002     9.0435742094996385E-007
   2.5200000000000000E-002    -1.6119585097840172E-006
   2.6300000000000018E-002    -3.1599195153830806E-006
   2.7400000000000008E-002    -2.2507856556330808E-006
   2.8500000000000025E-002     8.1959842646028847E-007
   2.9600000000000015E-002     3.8921816667425446E-006
   3.0700000000000005E-002     4.3833133531734347E-006
   3.1800000000000023E-002     1.3268162319945986E-006
   3.2900000000000013E-002    -3.5417390336078824E-006
   3.4000000000000002E-002    -6.7006230892729945E-006
   3.5100000000000020E-002    -5.3463772928807884E-006
   3.6200000000000010E-002     2.7436013283477223E-007
   3.7300000000000028E-002     6.5967387854470871E-006
   3.8400000000000017E-002     9.0416415332583711E-006
   3.9500000000000007E-002     5.4082729548099451E-006
   4.0600000000000025E-002    -2.1937605652055936E-006
   4.1700000000000015E-002    -8.5662986748502590E-006
   4.2800000000000005E-002    -9.1589372459566221E-006
   4.3900000000000022E-002    -3.5887167086912086E-006
   4.5000000000000012E-002     3.8935636439418886E-006
   4.6100000000000002E-002     7.6187125159776770E-006
   4.7200000000000020E-002     5.0531921260699164E-006
   4.8300000000000010E-002    -1.0011865470005432E-006
   4.9400000000000027E-002    -4.6494778871419840E-006
   5.0500000000000017E-002    -2.0950965335941873E-006
   5.1600000000000007E-002     4.4800954128731973E-006
   5.2700000000000025E-002     8.0680129030952230E-006
   5.3800000000000014E-002     2.8476490570028545E-006
   5.4900000000000004E-002    -9.5345767476828769E-006
   5.6000000000000022E-002    -1.9209330275771208E-005
   5.7100000000000012E-002    -1.4963222383812536E-005
   5.8200000000000002E-002     5.4891947911528405E-006
   5.9300000000000019E-002     3.0178065571817569E-005
   6.0400000000000009E-002     3.8670437788823619E-005
   6.1500000000000027E-002     1.7164569726446643E-005
   6.2600000000000017E-002    -2.7362382752471603E-005
   6.3700000000000007E-002    -6.6154920205008239E-005
   6.4800000000000024E-002    -6.5397325670346618E-005
   6.5900000000000014E-002    -1.1982989235548303E-005
   6.7000000000000004E-002     6.9819427153561264E-005
   6.8100000000000022E-002     1.2632687867153436E-004
   6.9200000000000012E-002     1.0717237455537543E-004
   7.0300000000000029E-002     3.9735327845846768E-006
   7.1400000000000019E-002    -1.3268337352201343E-004
   7.2500000000000009E-002    -2.1542949252761900E-004
   7.3600000000000027E-002    -1.7375878815073520E-004
   7.4700000000000016E-002    -6.9976022132323124E-006
   7.5800000000000006E-002     2.0112452330067754E-004
   7.6900000000000024E-002     3.2345508225262165E-004
   7.8000000000000014E-002     2.6692202663980424E-004
   7.9100000000000004E-002     3.9147831557784230E-005
   8.0200000000000021E-002    -2.4258470511995256E-004
   8.1300000000000011E-002    -4.1358481394127011E-004
   8.2400000000000029E-002    -3.6205720971338451E-004
   8.3500000000000019E-002    -1.0480109631316736E-004
   8.4600000000000009E-002     2.1432078210636973E-004
   8.5700000000000026E-002     4.0893870755098760E-004
   8.6800000000000016E-002     3.6825647111982107E-004
   8.7900000000000006E-002     1.3223793939687312E-004
   8.9000000000000024E-002    -1.3016644516028464E-004
   9.0100000000000013E-002    -2.3289455566555262E-004
   9.1200000000000003E-002    -1.0598106746328995E-004
   9.2300000000000021E-002     1.4005783305037767E-004
   9.3400000000000011E-002     2.7172279078513384E-004
   9.4500000000000028E-002     8.8453220087103546E-005
   9.5600000000000018E-002    -4.1580639663152397E-004
   9.6700000000000008E-002    -9.9442934151738882E-004
   9.7800000000000026E-002    -1.2496442068368196E-003
   9.8900000000000016E-002    -8.5502397269010544E-004
  0.10000000000000001          2.2177539358381182E-004
  0.10110000000000002          1.6332404920831323E-003
  0.10220000000000001          2.7746174018830061E-003
  0.10330000000000003          3.0700366478413343E-003
  0.10440000000000002          2.2752492222934961E-003
  0.10550000000000001          6.2483479268848896E-004
  0.10660000000000003         -1.2745828134939075E-003
  0.10770000000000002         -2.7647183742374182E-003
  0.10880000000000001         -3.5012082662433386E-003
  0.10990000000000003         -3.6549936048686504E-003
  0.11100000000000002         -3.8197350222617388E-003
  0.11210000000000001         -4.6602478250861168E-003
  0.11320000000000002         -6.4980471506714821E-003
  0.11430000000000001         -9.0887211263179779E-003
  0.11540000000000003         -1.1754789389669895E-002
  0.11650000000000002         -1.3832566328346729E-002
  0.11760000000000001         -1.5185342170298100E-002
  0.11870000000000003         -1.6455624252557755E-002
  0.11980000000000002         -1.8848786130547523E-002
  0.12090000000000001         -2.3511761799454689E-002
  0.12200000000000003         -3.0848469585180283E-002
  0.12310000000000001         -4.0215939283370972E-002
  0.12420000000000003         -5.0278987735509872E-002
  0.12530000000000002         -5.9922352433204651E-002
  0.12640000000000001         -6.9240525364875793E-002
  0.12750000000000003         -7.9987183213233948E-002
  0.12860000000000002         -9.5104619860649109E-002
  0.12970000000000001        -0.11746471375226974
  0.13080000000000003        -0.14847496151924133
  0.13190000000000002        -0.18737992644309998
  0.13300000000000001        -0.23177614808082581
  0.13410000000000000        -0.27919268608093262
  0.13520000000000004        -0.32891529798507690
  0.13630000000000003        -0.38299927115440369
  0.13740000000000002        -0.44586411118507385
  0.13850000000000001        -0.52260255813598633
  0.13960000000000000        -0.61697685718536377
  0.14070000000000005        -0.73027652502059937
  0.14180000000000004        -0.86172151565551758
  0.14290000000000003         -1.0101846456527710
  0.14400000000000002         -1.1761350631713867
  0.14510000000000001         -1.3625583648681641
  0.14620000000000000         -1.5742245912551880
  0.14730000000000004         -1.8156731128692627
  0.14840000000000003         -2.0893406867980957
  0.14950000000000002         -2.3950247764587402
  0.15060000000000001         -2.7311959266662598
  0.15170000000000000         -3.0974459648132324
  0.15280000000000005         -3.4964764118194580
  0.15390000000000004         -3.9340183734893799
  0.15500000000000003         -4.4167594909667969
  0.15610000000000002         -4.9490976333618164
  0.15720000000000001         -5.5306611061096191
  0.15830000000000000         -6.1560325622558594
  0.15940000000000004         -6.8173131942749023
  0.16050000000000003         -7.5075168609619141
  0.16160000000000002         -8.2234067916870117
  0.16270000000000001         -8.9653005599975586
  0.16380000000000000         -9.7341375350952148
  0.16490000000000005         -10.527244567871094
  0.16600000000000004         -11.335544586181641
  0.16710000000000003         -12.143827438354492
  0.16820000000000002         -12.934155464172363
  0.16930000000000001         -13.689401626586914
  0.17040000000000000         -14.396080017089844
  0.17150000000000004         -15.043652534484863
  0.17260000000000003         -15.621116638183594
  0.17370000000000002         -16.111806869506836
  0.17480000000000001         -16.492509841918945
  0.17590000000000000         -16.733306884765625
  0.17700000000000005         -16.802753448486328
  0.17810000000000004         -16.671924591064453
  0.17920000000000003         -16.318740844726562
  0.18030000000000002         -15.726440429687500
  0.18140000000000001         -14.882363319396973
  0.18250000000000000         -13.773270606994629
  0.18360000000000004         -12.380578994750977
  0.18470000000000003         -10.682888984680176
  0.18580000000000002         -8.6574487686157227
  0.18690000000000001         -6.2890286445617676
  0.18800000000000000         -3.5722887516021729
  0.18910000000000005        -0.51340949535369873
  0.19020000000000004          2.8779497146606445
  0.19130000000000003          6.5871276855468750
  0.19240000000000002          10.597504615783691
  0.19350000000000001          14.884614944458008
  0.19460000000000005          19.415746688842773
  0.19570000000000004          24.151969909667969
  0.19680000000000003          29.047571182250977
  0.19790000000000002          34.047077178955078
  0.19900000000000001          39.086563110351562
  0.20010000000000000          44.102466583251953
  0.20120000000000005          49.025634765625000
  0.20230000000000004          53.790321350097656
  0.20340000000000003          58.321037292480469
  0.20450000000000002          62.538879394531250
  0.20560000000000000          66.354866027832031
  0.20670000000000005          69.679809570312500
  0.20780000000000004          72.431236267089844
  0.20890000000000003          74.537483215332031
