 -0.12000000000000000          0.0000000000000000
 -0.11889999999999999          0.0000000000000000
 -0.11780000000000000          0.0000000000000000
 -0.11670000000000000          0.0000000000000000
 -0.11559999999999999          0.0000000000000000
 -0.11449999999999999          0.0000000000000000
 -0.11340000000000000         -5.2632776763561073E-020
 -0.11230000000000000         -5.7893864398647034E-013
 -0.11119999999999999         -2.9382646489495072E-012
 -0.11009999999999999         -1.3134699491247412E-012
 -0.10900000000000000          2.9832726566867577E-011
 -0.10790000000000000          1.0526836347057842E-010
 -0.10679999999999999          1.0052774584991144E-010
 -0.10569999999999999         -3.2900757118700285E-010
 -0.10460000000000000         -1.3330866410754451E-009
 -0.10349999999999999         -1.8040294813560646E-009
 -0.10239999999999999          1.0224161517410567E-009
 -0.10130000000000000          8.7406215598660210E-009
 -0.10020000000000000          1.5601109737418278E-008
  -9.9099999999999994E-002     6.0568461357511769E-009
  -9.7999999999999990E-002    -3.2476705769111259E-008
  -9.6899999999999986E-002    -8.1627433701216652E-008
  -9.5799999999999996E-002    -7.6854924202517119E-008
  -9.4699999999999993E-002     5.1379359433654252E-008
  -9.3599999999999989E-002     2.7567881488721400E-007
  -9.2499999999999999E-002     3.9652402961113121E-007
  -9.1399999999999995E-002     1.3578996060920276E-007
  -9.0299999999999991E-002    -5.6372306289627914E-007
  -8.9200000000000002E-002    -1.2536879694380918E-006
  -8.8099999999999984E-002    -1.1065239959863845E-006
  -8.6999999999999994E-002     3.7490769955165433E-007
  -8.5899999999999990E-002     2.5197025479428915E-006
  -8.4799999999999986E-002     3.4697513910945574E-006
  -8.3699999999999997E-002     1.5408502349606711E-006
  -8.2599999999999993E-002    -2.8119613943997092E-006
  -8.1499999999999989E-002    -6.3869761106621756E-006
  -8.0399999999999999E-002    -5.4112001635088930E-006
  -7.9299999999999995E-002     6.3237166614161247E-007
  -7.8199999999999992E-002     7.1689491960572885E-006
  -7.7100000000000002E-002     7.7137356129264232E-006
  -7.5999999999999984E-002     5.5433133639136352E-007
  -7.4899999999999994E-002    -7.4401173151268012E-006
  -7.3799999999999991E-002    -5.7143156482230099E-006
  -7.2699999999999987E-002     8.3246459325839979E-006
  -7.1599999999999997E-002     2.1855083105035484E-005
  -7.0499999999999993E-002     1.4389418538489499E-005
  -6.9399999999999989E-002    -2.1162917619212188E-005
  -6.8300000000000000E-002    -6.2377665017258630E-005
  -6.7199999999999996E-002    -6.6853353928313054E-005
  -6.6099999999999992E-002    -8.2283040683416588E-006
  -6.5000000000000002E-002     8.9137487520911442E-005
  -6.3899999999999985E-002     1.5371631889138135E-004
  -6.2799999999999995E-002     1.1838431964863414E-004
  -6.1699999999999991E-002    -1.6347399650805282E-005
  -6.0599999999999994E-002    -1.6605039127168961E-004
  -5.9499999999999990E-002    -2.2006790095476127E-004
  -5.8399999999999994E-002    -1.3344148464971347E-004
  -5.7299999999999990E-002     2.8355250833509456E-005
  -5.6199999999999986E-002     1.4159710553939768E-004
  -5.5099999999999996E-002     1.3526660040956784E-004
  -5.3999999999999992E-002     5.7976070820650947E-005
  -5.2899999999999989E-002     2.7650907213712842E-005
  -5.1799999999999985E-002     1.0117256897498211E-004
  -5.0699999999999995E-002     1.9172459724351950E-004
  -4.9599999999999991E-002     1.3372697867448553E-004
  -4.8499999999999988E-002    -1.4336242747955546E-004
  -4.7399999999999998E-002    -4.9520272295912565E-004
  -4.6299999999999994E-002    -6.3665956258765813E-004
  -4.5199999999999990E-002    -3.7766282912345220E-004
  -4.4099999999999986E-002     1.8087463104154088E-004
  -4.2999999999999997E-002     6.8644434213623669E-004
  -4.1899999999999993E-002     8.0353056546294621E-004
  -4.0799999999999989E-002     4.8511900240563559E-004
  -3.9699999999999985E-002    -9.2351689300818997E-007
  -3.8599999999999995E-002    -3.2046364503898327E-004
  -3.7499999999999992E-002    -3.6446889862416532E-004
  -3.6399999999999988E-002    -3.0319526558752704E-004
  -3.5299999999999984E-002    -3.5287556238486171E-004
  -3.4199999999999994E-002    -4.9722695257520722E-004
  -3.3099999999999991E-002    -4.6619656495744979E-004
  -3.1999999999999987E-002    -2.2946955141279189E-005
  -3.0899999999999997E-002     7.1586837293585509E-004
  -2.9799999999999993E-002     1.2693618191405688E-003
  -2.8699999999999989E-002     1.1521837441249548E-003
  -2.7599999999999986E-002     2.9732543043781785E-004
  -2.6499999999999996E-002    -8.5072376532483102E-004
  -2.5399999999999992E-002    -1.6651527257635617E-003
  -2.4299999999999988E-002    -1.7830601427703055E-003
  -2.3199999999999985E-002    -1.2659474741666624E-003
  -2.2099999999999995E-002    -3.7564439116975036E-004
  -2.0999999999999991E-002     7.4179016519331973E-004
  -1.9899999999999987E-002     2.1049256902187148E-003
  -1.8799999999999983E-002     3.6514741368591690E-003
  -1.7699999999999994E-002     5.0406726077201142E-003
  -1.6599999999999990E-002     5.8293119072919406E-003
  -1.5499999999999986E-002     5.9249429032214385E-003
  -1.4399999999999996E-002     5.8384868316360833E-003
  -1.3299999999999992E-002     6.3713779672987247E-003
  -1.2199999999999989E-002     7.9365391284232228E-003
  -1.1099999999999985E-002     1.0164996609092229E-002
  -9.9999999999999950E-003     1.2270037084818677E-002
  -8.8999999999999913E-003     1.3921442441643644E-002
  -7.7999999999999875E-003     1.5813276171686170E-002
  -6.6999999999999837E-003     1.9303629174830736E-002
  -5.5999999999999939E-003     2.5360919535162358E-002
  -4.4999999999999901E-003     3.3754099160435279E-002
  -3.3999999999999864E-003     4.3272320181134402E-002
  -2.2999999999999826E-003     5.2832346409563358E-002
  -1.1999999999999927E-003     6.2501028180127829E-002
  -9.9999999999988987E-005     7.3544077575213501E-002
   1.0000000000000148E-003     8.7526582181461574E-002
   2.1000000000000185E-003    0.10534745454789110
   3.2000000000000084E-003    0.12708023190499415
   4.3000000000000121E-003    0.15262594819070208
   5.4000000000000159E-003    0.18240228295327832
   6.5000000000000058E-003    0.21735315024854690
   7.6000000000000234E-003    0.25837764143946085
   8.7000000000000133E-003    0.30591079592707449
   9.8000000000000032E-003    0.36020684242251655
   1.0900000000000021E-002    0.42206528782848196
   1.2000000000000011E-002    0.49313911795620446
   1.3100000000000001E-002    0.57543766498570725
   1.4200000000000018E-002    0.67044216394430345
   1.5300000000000008E-002    0.77881109714514918
   1.6400000000000026E-002    0.90095835924156509
   1.7500000000000016E-002     1.0379810333252870
   1.8600000000000005E-002     1.1918169260026077
   1.9700000000000023E-002     1.3645275831223742
   2.0800000000000013E-002     1.5573266744615026
   2.1900000000000003E-002     1.7705370187760971
   2.3000000000000020E-002     2.0045068264009358
   2.4100000000000010E-002     2.2607107162477611
   2.5200000000000000E-002     2.5415227413179768
   2.6300000000000018E-002     2.8490028381350205
   2.7400000000000008E-002     3.1833226680758462
   2.8500000000000025E-002     3.5428559780124020
   2.9600000000000015E-002     3.9254124164584825
   3.0700000000000005E-002     4.3298301696781252
   3.1800000000000023E-002     4.7561464309696690
   3.2900000000000013E-002     5.2042241096501307
   3.4000000000000002E-002     5.6722612380986597
   3.5100000000000020E-002     6.1562952995305888
   3.6200000000000010E-002     6.6510896682745315
   3.7300000000000028E-002     7.1508989334112973
   3.8400000000000017E-002     7.6500563621528004
   3.9500000000000007E-002     8.1420059204109041
   4.0600000000000025E-002     8.6189155578621204
   4.1700000000000015E-002     9.0718746185311101
   4.2800000000000005E-002     9.4915952682503892
   4.3900000000000022E-002     9.8685169219979851
   4.5000000000000012E-002     10.192454338074681
   4.6100000000000002E-002     10.451291084290528
   4.7200000000000020E-002     10.631991386414573
   4.8300000000000010E-002     10.720413208008821
   4.9400000000000027E-002     10.704087257386266
   5.0500000000000017E-002     10.570805549622587
   5.1600000000000007E-002     10.309080123902353
   5.2700000000000025E-002     9.9071912765512486
   5.3800000000000014E-002     9.3523693084725892
   5.4900000000000004E-002     8.6321544647225288
   5.6000000000000022E-002     7.7382879257209867
   5.7100000000000012E-002     6.6645917892462840
   5.8200000000000002E-002     5.4086141586309386
   5.9300000000000019E-002     3.9677920341496096
   6.0400000000000009E-002     2.3413553237917979
   6.1500000000000027E-002    0.53126657009137856
   6.2600000000000017E-002    -1.4557034969330322
   6.3700000000000007E-002    -3.6086809635164805
   6.4800000000000024E-002    -5.9139027595524585
   6.5900000000000014E-002    -8.3562507629401352
   6.7000000000000004E-002    -10.917042732239690
   6.8100000000000022E-002    -13.572946548463081
   6.9200000000000012E-002    -16.294271469117632
   7.0300000000000029E-002    -19.044944763185271
   7.1400000000000019E-002    -21.791893005373034
   7.2500000000000009E-002    -24.504085540773684
   7.3600000000000027E-002    -27.144321441652842
   7.4700000000000016E-002    -29.673959732058361
   7.5800000000000006E-002    -32.048358917239256
   7.6900000000000024E-002    -34.225788116458219
   7.8000000000000014E-002    -36.167415618899817
   7.9100000000000004E-002    -37.837429046634362
   8.0200000000000021E-002    -39.203636169437239
   8.1300000000000011E-002    -40.232086181644384
   8.2400000000000029E-002    -40.887866973880790
   8.3500000000000019E-002    -41.143543243412083
   8.4600000000000009E-002    -40.982730865482395
   8.5700000000000026E-002    -40.397682189945250
   8.6800000000000016E-002    -39.382812500003766
   8.7900000000000006E-002    -37.934867858890364
   8.9000000000000024E-002    -36.056415557864817
   9.0100000000000013E-002    -33.760684967044305
   9.1200000000000003E-002    -31.073188781741329
   9.2300000000000021E-002    -28.028966903689298
   9.3400000000000011E-002    -24.664085388186063
   9.4500000000000028E-002    -21.015701293947448
   9.5600000000000018E-002    -17.125211715700019
   9.6700000000000008E-002    -13.044990539552177
   9.7800000000000026E-002    -8.8386507034311776
   9.8900000000000016E-002    -4.5746808052068975
  0.10000000000000001        -0.31669625639934784
  0.10110000000000002          3.8773772716524304
  0.10220000000000001          7.9516582489019685
  0.10330000000000003          11.843909263611819
  0.10440000000000002          15.487375259400752
  0.10550000000000001          18.817523956300498
  0.10660000000000003          21.784530639650406
  0.10770000000000002          24.350723266603794
  0.10880000000000001          26.486381530764170
  0.10990000000000003          28.158945083620793
  0.11100000000000002          29.336084365847491
  0.11210000000000001          29.995937347414959
  0.11320000000000002          30.136365890505818
  0.11430000000000001          29.775537490847601
  0.11540000000000003          28.936811447146368
  0.11650000000000002          27.643108367922629
  0.11760000000000001          25.918025970461546
  0.11870000000000003          23.795063018801205
  0.11980000000000002          21.328218460085164
  0.12090000000000001          18.589019775392529
  0.12200000000000003          15.648945808412272
  0.12310000000000001          12.571405410767936
  0.12420000000000003          9.4183397293101123
  0.12530000000000002          6.2587251663215264
  0.12640000000000001          3.1708736419681962
  0.12750000000000003         0.24557033181203466
  0.12860000000000002         -2.4310219287873780
  0.12970000000000001         -4.7908439636234439
  0.13080000000000003         -6.7825174331671185
  0.13190000000000002         -8.3527984619148548
  0.13300000000000001         -9.4390211105355952
  0.13410000000000000         -9.9807100296030669
  0.13520000000000004         -9.9282360076914813
  0.13630000000000003         -9.2613029479990789
  0.13740000000000002         -7.9794063568124738
  0.13850000000000001         -6.0883841514595494
  0.13960000000000000         -3.5821623802191134
  0.14070000000000005        -0.46340733766590703
  0.14180000000000004          3.2459254264831192
  0.14290000000000003          7.4922361373904698
  0.14400000000000002          12.199020385742941
  0.14510000000000001          17.296886444093015
  0.14620000000000000          22.721803665162849
  0.14730000000000004          28.409240722658495
  0.14840000000000003          34.269386291506699
  0.14950000000000002          40.189800262454526
  0.15060000000000001          46.045177459720719
  0.15170000000000000          51.718868255619718
  0.15280000000000005          57.116348266606586
  0.15390000000000004          62.144065856939129
  0.15500000000000003          66.702445983892716
  0.15610000000000002          70.675148010260330
  0.15720000000000001          73.949897766120074
  0.15830000000000000          76.435043334968029
  0.15940000000000004          78.061973571784662
  0.16050000000000003          78.780906677253540
  0.16160000000000002          78.540229797370785
  0.16270000000000001          77.291488647468398
  0.16380000000000000          74.999633789069819
  0.16490000000000005          71.661384582526608
  0.16600000000000004          67.294151306159094
  0.16710000000000003          61.942749023443810
  0.16820000000000002          55.656703948980393
  0.16930000000000001          48.488765716557900
  0.17040000000000000          40.509681701664618
  0.17150000000000004          31.814750671390414
  0.17260000000000003          22.519107818606372
  0.17370000000000002          12.746191024782236
  0.17480000000000001          2.6231701374064182
  0.17590000000000000         -7.7182803153991166
  0.17700000000000005         -18.141389846802689
  0.17810000000000004         -28.499433517457973
  0.17920000000000003         -38.642837524416962
  0.18030000000000002         -48.427845001224554
  0.18140000000000001         -57.725860595707907
  0.18250000000000000         -66.419013977056437
  0.18360000000000004         -74.394180297858028
  0.18470000000000003         -81.537940979011111
  0.18580000000000002         -87.752464294441452
  0.18690000000000001         -92.958740234383427
  0.18800000000000000         -97.106033325204223
  0.18910000000000005         -100.16084289551709
  0.19020000000000004         -102.09877014161111
  0.19130000000000003         -102.90956878663080
  0.19240000000000002         -102.59287261963865
  0.19350000000000001         -101.18192291260736
  0.19460000000000005         -98.732513427743925
  0.19570000000000004         -95.309020996103044
  0.19680000000000003         -90.983421325692547
  0.19790000000000002         -85.831932067879606
  0.19900000000000001         -79.939811706550984
  0.20010000000000000         -73.418540954597276
  0.20120000000000005         -66.386215209967744
  0.20230000000000004         -58.960556030279577
  0.20340000000000003         -51.248497009282772
  0.20450000000000002         -43.349861145024221
  0.20560000000000000         -35.377357482914093
  0.20670000000000005         -27.440649032595953
  0.20780000000000004         -19.653686523439930
  0.20890000000000003         -12.105834960939198
