 -0.12000000000000000          0.0000000000000000
 -0.11889999999999999          0.0000000000000000
 -0.11780000000000000          0.0000000000000000
 -0.11670000000000000          0.0000000000000000
 -0.11559999999999999          0.0000000000000000
 -0.11449999999999999          0.0000000000000000
 -0.11340000000000000          0.0000000000000000
 -0.11230000000000000          0.0000000000000000
 -0.11119999999999999          0.0000000000000000
 -0.11009999999999999          0.0000000000000000
 -0.10900000000000000          0.0000000000000000
 -0.10790000000000000         -2.1193536465777533E-029
 -0.10679999999999999          1.4116244361013429E-028
 -0.10569999999999999         -3.1017924126442687E-027
 -0.10460000000000000         -1.4404587803384031E-026
 -0.10349999999999999          3.3028090009551543E-026
 -0.10239999999999999          1.2349542282929911E-025
 -0.10130000000000000         -9.2905450428372175E-025
 -0.10020000000000000         -3.6246356047737062E-024
  -9.9099999999999994E-002     6.4126471430979841E-024
  -9.7999999999999990E-002     5.3645728553085896E-023
  -9.6899999999999986E-002     3.7481580485541995E-023
  -9.5799999999999996E-002    -4.0890341227044441E-022
  -9.4699999999999993E-002    -1.1113099837970860E-021
  -9.3599999999999989E-002     8.3233887934895924E-022
  -9.2499999999999999E-002     9.3319576339648898E-021
  -9.1399999999999995E-002     1.3545565591108862E-020
  -9.0299999999999991E-002    -2.8410894618371812E-020
  -8.9200000000000002E-002    -1.3381976730927149E-019
  -8.8099999999999984E-002    -1.2034875621763037E-019
  -8.6999999999999994E-002     4.2919904933902462E-019
  -8.5899999999999990E-002     1.4388101583887715E-018
  -8.4799999999999986E-002     9.3184822155515474E-019
  -8.3699999999999997E-002    -4.3985188451803113E-018
  -8.2599999999999993E-002    -1.2616951968866216E-017
  -8.1499999999999989E-002    -7.3086304028286309E-018
  -8.0399999999999999E-002     3.4258452692492090E-017
  -7.9299999999999995E-002     9.4055074476154444E-017
  -7.8199999999999992E-002     5.9657053253267506E-017
  -7.7100000000000002E-002    -2.1149210964945962E-016
  -7.5999999999999984E-002    -6.0673817044772788E-016
  -7.4899999999999994E-002    -4.6726376658914426E-016
  -7.3799999999999991E-002     1.0386074477259895E-015
  -7.2699999999999987E-002     3.4024324580239325E-015
  -7.1599999999999997E-002     3.2633610830295643E-015
  -7.0499999999999993E-002    -3.8793317008441273E-015
  -6.9399999999999989E-002    -1.6532846462300951E-014
  -6.8300000000000000E-002    -1.9698454225744975E-014
  -6.7199999999999996E-002     8.9335743324952220E-015
  -6.6099999999999992E-002     6.8910331542555714E-014
  -6.5000000000000002E-002     1.0196074399278915E-013
  -6.3899999999999985E-002     8.1217330631004961E-015
  -6.2799999999999995E-002    -2.4110981223721129E-013
  -6.1699999999999991E-002    -4.5195832211290810E-013
  -6.0599999999999994E-002    -2.2402103772283660E-013
  -5.9499999999999990E-002     6.7311542624459708E-013
  -5.8399999999999994E-002     1.7101811503397735E-012
  -5.7299999999999990E-002     1.4680799978461501E-012
  -5.6199999999999986E-002    -1.2736362528867340E-012
  -5.5099999999999996E-002    -5.4632101793850030E-012
  -5.3999999999999992E-002    -6.7072172468818358E-012
  -5.2899999999999989E-002     1.0514388703230723E-013
  -5.1799999999999985E-002     1.4305421430771403E-011
  -5.0699999999999995E-002     2.4268358156387393E-011
  -4.9599999999999991E-002     1.2139429218793740E-011
  -4.8499999999999988E-002    -2.8240351029884536E-011
  -4.7399999999999998E-002    -7.1790573485941422E-011
  -4.6299999999999994E-002    -6.5561965578719850E-011
  -4.5199999999999990E-002     2.8566348939107478E-011
  -4.4099999999999986E-002     1.7228531101753930E-010
  -4.2999999999999997E-002     2.3256366277202289E-010
  -4.1899999999999993E-002     6.5849395380901399E-011
  -4.0799999999999989E-002    -3.1613472950553501E-010
  -3.9699999999999985E-002    -6.3694544083503501E-010
  -3.8599999999999995E-002    -4.7753129228667035E-010
  -3.7499999999999992E-002     3.4217656486035253E-010
  -3.6399999999999988E-002     1.3815644184234088E-009
  -3.5299999999999984E-002     1.6400392155446752E-009
  -3.4199999999999994E-002     2.9456731498456179E-010
  -3.3099999999999991E-002    -2.2687192124948297E-009
  -3.1999999999999987E-002    -4.0921714905550743E-009
  -3.0899999999999997E-002    -2.7765116872302542E-009
  -2.9799999999999993E-002     2.2187318649002918E-009
  -2.8699999999999989E-002     7.8974764505801431E-009
  -2.7599999999999986E-002     8.8295504241386880E-009
  -2.6499999999999996E-002     1.4260508329755339E-009
  -2.5399999999999992E-002    -1.1371475316934720E-008
  -2.4299999999999988E-002    -1.9647201199290976E-008
  -2.3199999999999985E-002    -1.2954024519729046E-008
  -2.2099999999999995E-002     9.5004137889986850E-009
  -2.0999999999999991E-002     3.3430527679456645E-008
  -1.9899999999999987E-002     3.6505905853800868E-008
  -1.8799999999999983E-002     6.5225771450627690E-009
  -1.7699999999999994E-002    -4.2328572646965767E-008
  -1.6599999999999990E-002    -7.1907422238837171E-008
  -1.5499999999999986E-002    -4.6740101566911108E-008
  -1.4399999999999996E-002     3.1168159608796486E-008
  -1.3299999999999992E-002     1.0964259189449876E-007
  -1.2199999999999989E-002     1.1646299213907696E-007
  -1.1099999999999985E-002     1.9643653814682693E-008
  -9.9999999999999950E-003    -1.2829022466576134E-007
  -8.8999999999999913E-003    -2.0952829515863414E-007
  -7.7999999999999875E-003    -1.2772188995313627E-007
  -6.6999999999999837E-003     9.5953964773798361E-008
  -5.5999999999999939E-003     3.0379428039850609E-007
  -4.4999999999999901E-003     3.0227337788346631E-007
  -3.3999999999999864E-003     2.7557970128100351E-008
  -2.2999999999999826E-003    -3.5617173921309586E-007
  -1.1999999999999927E-003    -5.3618236961483490E-007
  -9.9999999999988987E-005    -2.8935048135281249E-007
   1.0000000000000148E-003     2.9038088200650236E-007
   2.1000000000000185E-003     7.8388433166765026E-007
   3.2000000000000084E-003     7.2774486170601449E-007
   4.3000000000000121E-003     1.3500091711193818E-008
   5.4000000000000159E-003    -9.1786540679095197E-007
   6.5000000000000058E-003    -1.3136641427990980E-006
   7.6000000000000234E-003    -6.8418466980801895E-007
   8.7000000000000133E-003     7.0230026949502644E-007
   9.8000000000000032E-003     1.8564221591077512E-006
   1.0900000000000021E-002     1.7371729654769297E-006
   1.2000000000000011E-002     1.3014512489917252E-007
   1.3100000000000001E-002    -1.9708622858161107E-006
   1.4200000000000018E-002    -2.9225141133792931E-006
   1.5300000000000008E-002    -1.6710181398593704E-006
   1.6400000000000026E-002     1.2279764405320748E-006
   1.7500000000000016E-002     3.7219913338049082E-006
   1.8600000000000005E-002     3.6593821732822107E-006
   1.9700000000000023E-002     5.6980439921971993E-007
   2.0800000000000013E-002    -3.5907157780457055E-006
   2.1900000000000003E-002    -5.5746254474797752E-006
   2.3000000000000020E-002    -3.2958985229925020E-006
   2.4100000000000010E-002     2.1855471459275577E-006
   2.5200000000000000E-002     6.9097541199880652E-006
   2.6300000000000018E-002     6.7444530031934846E-006
   2.7400000000000008E-002     8.1669622886693105E-007
   2.8500000000000025E-002    -7.0812961894262116E-006
   2.9600000000000015E-002    -1.0701714927563444E-005
   3.0700000000000005E-002    -6.0578709053515922E-006
   3.1800000000000023E-002     4.7739467845531181E-006
   3.2900000000000013E-002     1.4114282748778351E-005
   3.4000000000000002E-002     1.3878181562176906E-005
   3.5100000000000020E-002     2.1594667032331927E-006
   3.6200000000000010E-002    -1.3946865692560095E-005
   3.7300000000000028E-002    -2.2329080820782110E-005
   3.8400000000000017E-002    -1.4692821423523128E-005
   3.9500000000000007E-002     6.0342231336107943E-006
   4.0600000000000025E-002     2.5981818907894194E-005
   4.1700000000000015E-002     2.9433831514324993E-005
   4.2800000000000005E-002     1.0949488569167443E-005
   4.3900000000000022E-002    -1.8684584574657492E-005
   4.5000000000000012E-002    -3.8402060454245657E-005
   4.6100000000000002E-002    -3.1806946935830638E-005
   4.7200000000000020E-002    -6.0210527408344205E-007
   4.8300000000000010E-002     3.4350825444562361E-005
   4.9400000000000027E-002     4.6867306082276627E-005
   5.0500000000000017E-002     2.5189647203660570E-005
   5.1600000000000007E-002    -1.7221394955413416E-005
   5.2700000000000025E-002    -4.9495251005282626E-005
   5.3800000000000014E-002    -4.5776763727189973E-005
   5.4900000000000004E-002    -6.1285127230803482E-006
   5.6000000000000022E-002     4.0939106838777661E-005
   5.7100000000000012E-002     5.8405981690157205E-005
   5.8200000000000002E-002     2.9642294975928962E-005
   5.9300000000000019E-002    -2.6050869564642198E-005
   6.0400000000000009E-002    -6.5375505073461682E-005
   6.1500000000000027E-002    -5.3890831622993574E-005
   6.2600000000000017E-002     4.6221211960073560E-006
   6.3700000000000007E-002     6.6808468545787036E-005
   6.4800000000000024E-002     8.0945021181832999E-005
   6.5900000000000014E-002     2.8979964554309845E-005
   6.7000000000000004E-002    -5.4096206440590322E-005
   6.8100000000000022E-002    -1.0268965706927702E-004
   6.9200000000000012E-002    -7.1778900746721774E-005
   7.0300000000000029E-002     2.2120766516309232E-005
   7.1400000000000019E-002     1.0629004827933386E-004
   7.2500000000000009E-002     1.0603253758745268E-004
   7.3600000000000027E-002     9.4970191639731638E-006
   7.4700000000000016E-002    -1.1057296796934679E-004
   7.5800000000000006E-002    -1.4469171583186835E-004
   7.6900000000000024E-002    -3.6464316508499905E-005
   7.8000000000000014E-002     1.5400905977003276E-004
   7.9100000000000004E-002     2.7284323005005717E-004
   8.0200000000000021E-002     1.8099311273545027E-004
   8.1300000000000011E-002    -1.2258817150723189E-004
   8.2400000000000029E-002    -4.6124099753797054E-004
   8.3500000000000019E-002    -5.7489483151584864E-004
   8.4600000000000009E-002    -3.0227904790081084E-004
   8.5700000000000026E-002     2.7284756652079523E-004
   8.6800000000000016E-002     8.3017372526228428E-004
   8.7900000000000006E-002     9.9721585866063833E-004
   8.9000000000000024E-002     6.0176168335601687E-004
   9.0100000000000013E-002    -1.8214459123555571E-004
   9.1200000000000003E-002    -9.1437442461028695E-004
   9.2300000000000021E-002    -1.1637378484010696E-003
   9.3400000000000011E-002    -8.0062687629833817E-004
   9.4500000000000028E-002    -9.8509939562063664E-005
   9.5600000000000018E-002     4.4555962085723877E-004
   9.6700000000000008E-002     4.6438921708613634E-004
   9.7800000000000026E-002     3.9816109165258240E-006
   9.8900000000000016E-002    -4.7761772293597460E-004
  0.10000000000000001         -4.2078542173840106E-004
  0.10110000000000002          4.1509224683977664E-004
  0.10220000000000001          1.7171204090118408E-003
  0.10330000000000003          2.7558938600122929E-003
  0.10440000000000002          2.8260175604373217E-003
  0.10550000000000001          1.7006034031510353E-003
  0.10660000000000003         -2.1715853654313833E-004
  0.10770000000000002         -2.1639745682477951E-003
  0.10880000000000001         -3.5337605513632298E-003
  0.10990000000000003         -4.2865867726504803E-003
  0.11100000000000002         -4.9590212292969227E-003
  0.11210000000000001         -6.2607759609818459E-003
  0.11320000000000002         -8.5373176261782646E-003
  0.11430000000000001         -1.1482952162623405E-002
  0.11540000000000003         -1.4323490671813488E-002
  0.11650000000000002         -1.6364118084311485E-002
  0.11760000000000001         -1.7541699111461639E-002
  0.11870000000000003         -1.8613059073686600E-002
  0.11980000000000002         -2.0852966234087944E-002
  0.12090000000000001         -2.5458976626396179E-002
  0.12200000000000003         -3.3036205917596817E-002
  0.12310000000000001         -4.3460678309202194E-002
  0.12420000000000003         -5.6153342127799988E-002
  0.12530000000000002         -7.0551268756389618E-002
  0.12640000000000001         -8.6489893496036530E-002
  0.12750000000000003        -0.10433904826641083
  0.12860000000000002        -0.12493588030338287
  0.12970000000000001        -0.14944988489151001
  0.13080000000000003        -0.17927211523056030
  0.13190000000000002        -0.21588952839374542
  0.13300000000000001        -0.26068741083145142
  0.13410000000000000        -0.31469392776489258
  0.13520000000000004        -0.37846493721008301
  0.13630000000000003        -0.45233112573623657
  0.13740000000000002        -0.53699439764022827
  0.13850000000000001        -0.63417899608612061
  0.13960000000000000        -0.74684929847717285
  0.14070000000000005        -0.87868911027908325
  0.14180000000000004         -1.0329880714416504
  0.14290000000000003         -1.2116919755935669
  0.14400000000000002         -1.4152803421020508
  0.14510000000000001         -1.6438488960266113
  0.14620000000000000         -1.8987756967544556
  0.14730000000000004         -2.1839325428009033
  0.14840000000000003         -2.5055060386657715
  0.14950000000000002         -2.8701875209808350
  0.15060000000000001         -3.2828195095062256
  0.15170000000000000         -3.7448763847351074
  0.15280000000000005         -4.2549576759338379
  0.15390000000000004         -4.8109955787658691
  0.15500000000000003         -5.4129309654235840
  0.15610000000000002         -6.0639233589172363
  0.15720000000000001         -6.7690453529357910
  0.15830000000000000         -7.5323896408081055
  0.15940000000000004         -8.3541173934936523
  0.16050000000000003         -9.2296485900878906
  0.16160000000000002         -10.151534080505371
  0.16270000000000001         -11.112191200256348
  0.16380000000000000         -12.106246948242188
  0.16490000000000005         -13.130212783813477
  0.16600000000000004         -14.179424285888672
  0.16710000000000003         -15.245064735412598
  0.16820000000000002         -16.311742782592773
  0.16930000000000001         -17.358486175537109
  0.17040000000000000         -18.362485885620117
  0.17150000000000004         -19.302270889282227
  0.17260000000000003         -20.160257339477539
  0.17370000000000002         -20.919700622558594
  0.17480000000000001         -21.561826705932617
  0.17590000000000000         -22.061174392700195
  0.17700000000000005         -22.385892868041992
  0.17810000000000004         -22.500026702880859
  0.17920000000000003         -22.370115280151367
  0.18030000000000002         -21.967849731445312
  0.18140000000000001         -21.267314910888672
  0.18250000000000000         -20.247270584106445
  0.18360000000000004         -18.886501312255859
  0.18470000000000003         -17.163597106933594
  0.18580000000000002         -15.055583000183105
  0.18690000000000001         -12.544828414916992
  0.18800000000000000         -9.6188135147094727
  0.18910000000000005         -6.2698659896850586
  0.19020000000000004         -2.5034515857696533
  0.19130000000000003          1.6646516323089600
  0.19240000000000002          6.2172732353210449
  0.19350000000000001          11.131480216979980
  0.19460000000000005          16.381687164306641
  0.19570000000000004          21.928604125976562
  0.19680000000000003          27.721611022949219
  0.19790000000000002          33.698677062988281
  0.19900000000000001          39.791076660156250
  0.20010000000000000          45.929771423339844
  0.20120000000000005          52.041843414306641
  0.20230000000000004          58.042156219482422
  0.20340000000000003          63.838806152343750
  0.20450000000000002          69.331771850585938
  0.20560000000000000          74.427879333496094
  0.20670000000000005          79.032592773437500
  0.20780000000000004          83.063354492187500
  0.20890000000000003          86.428695678710938
