 -0.12000000000000000          0.0000000000000000
 -0.11889999999999999          0.0000000000000000
 -0.11780000000000000          0.0000000000000000
 -0.11670000000000000          0.0000000000000000
 -0.11559999999999999          0.0000000000000000
 -0.11449999999999999          0.0000000000000000
 -0.11340000000000000          0.0000000000000000
 -0.11230000000000000          0.0000000000000000
 -0.11119999999999999          0.0000000000000000
 -0.11009999999999999          0.0000000000000000
 -0.10900000000000000          0.0000000000000000
 -0.10790000000000000         -5.8282225815738146E-033
 -0.10679999999999999          2.7125278584137056E-032
 -0.10569999999999999         -7.8664444009287533E-031
 -0.10460000000000000         -5.6216582284572416E-030
 -0.10349999999999999         -6.0423099163340259E-031
 -0.10239999999999999          4.2496077557141846E-029
 -0.10130000000000000         -1.7954733481148992E-028
 -0.10020000000000000         -1.4454954530696652E-027
  -9.9099999999999994E-002    -7.2082709289779243E-028
  -9.7999999999999990E-002     1.5881970204467436E-026
  -9.6899999999999986E-002     4.1656918680307228E-026
  -9.5799999999999996E-002    -5.9901043502309564E-026
  -9.4699999999999993E-002    -4.8400334042324928E-025
  -9.3599999999999989E-002    -5.7976750444300662E-025
  -9.2499999999999999E-002     2.2239262928542255E-024
  -9.1399999999999995E-002     8.6850201451550002E-024
  -9.0299999999999991E-002     4.9236268249912741E-024
  -8.9200000000000002E-002    -4.0095786639353906E-023
  -8.8099999999999984E-002    -1.1298535414586119E-022
  -8.6999999999999994E-002    -3.2398369071576773E-023
  -8.5899999999999990E-002     4.8834589585532883E-022
  -8.4799999999999986E-002     1.1790393344435040E-021
  -8.3699999999999997E-002     2.7582755053880623E-022
  -8.2599999999999993E-002    -4.4797985556726580E-021
  -8.1499999999999989E-002    -1.0355339187025673E-020
  -8.0399999999999999E-002    -3.4621911110284066E-021
  -7.9299999999999995E-002     3.2386967645980952E-020
  -7.8199999999999992E-002     7.7954528440414484E-020
  -7.7100000000000002E-002     4.0936189469446201E-020
  -7.5999999999999984E-002    -1.8663776973671118E-019
  -7.4899999999999994E-002    -5.0459645877565652E-019
  -7.3799999999999991E-002    -3.8492792936488030E-019
  -7.2699999999999987E-002     8.3745254139971117E-019
  -7.1599999999999997E-002     2.7975796323699212E-018
  -7.0499999999999993E-002     2.8804821549018233E-018
  -6.9399999999999989E-002    -2.6288815231137128E-018
  -6.8300000000000000E-002    -1.3161289751485312E-017
  -6.7199999999999996E-002    -1.7556453552101108E-017
  -6.6099999999999992E-002     2.6998257023250889E-018
  -6.5000000000000002E-002     5.1547477098193580E-017
  -6.3899999999999985E-002     8.8639231838194153E-017
  -6.2799999999999995E-002     3.2626531223043374E-017
  -6.1699999999999991E-002    -1.6078846596391099E-016
  -6.0599999999999994E-002    -3.7320711054365861E-016
  -5.9499999999999990E-002    -2.9271412543145409E-016
  -5.8399999999999994E-002     3.4855935175106493E-016
  -5.7299999999999990E-002     1.3025958536496329E-015
  -5.6199999999999986E-002     1.5396967868494646E-015
  -5.5099999999999996E-002    -1.6327618849510707E-016
  -5.3999999999999992E-002    -3.6648913342030714E-015
  -5.2899999999999989E-002    -6.1103228867712828E-015
  -5.1799999999999985E-002    -2.9480198223709713E-015
  -5.0699999999999995E-002     7.6096135550587571E-015
  -4.9599999999999991E-002     1.9291356638767403E-014
  -4.8499999999999988E-002     1.7983183708434811E-014
  -4.7399999999999998E-002    -7.4852377781827774E-015
  -4.6299999999999994E-002    -4.8164875137302748E-014
  -4.5199999999999990E-002    -6.7735462963396109E-014
  -4.4099999999999986E-002    -2.3212704138410659E-014
  -4.2999999999999997E-002     8.8135817817146939E-014
  -4.1899999999999993E-002     1.9147856043788547E-013
  -4.0799999999999989E-002     1.5982491209393795E-013
  -3.9699999999999985E-002    -7.8640422624363937E-014
  -3.8599999999999995E-002    -4.1498279964267970E-013
  -3.7499999999999992E-002    -5.4818259306865791E-013
  -3.6399999999999988E-002    -1.8368980110854832E-013
  -3.5299999999999984E-002     6.3565000702273111E-013
  -3.4199999999999994E-002     1.3460675716420178E-012
  -3.3099999999999991E-002     1.1266248350905173E-012
  -3.1999999999999987E-002    -3.9090136834916966E-013
  -3.0899999999999997E-002    -2.4536752837867049E-012
  -2.9799999999999993E-002    -3.2972632870581497E-012
  -2.8699999999999989E-002    -1.3706172698538244E-012
  -2.7599999999999986E-002     2.9690275845511982E-012
  -2.6499999999999996E-002     6.7792689864565325E-012
  -2.5399999999999992E-002     6.1003146978322320E-012
  -2.4299999999999988E-002    -6.6731770933733947E-013
  -2.3199999999999985E-002    -1.0053990626146536E-011
  -2.2099999999999995E-002    -1.4478840001941329E-011
  -2.0999999999999991E-002    -7.6245641744687731E-012
  -1.9899999999999987E-002     9.0290292603656397E-012
  -1.8799999999999983E-002     2.4313020346999892E-011
  -1.7699999999999994E-002     2.3853996902745145E-011
  -1.6599999999999990E-002     2.1297122052010842E-012
  -1.5499999999999986E-002    -2.9127110445781312E-011
  -1.4399999999999996E-002    -4.5424160960427784E-011
  -1.3299999999999992E-002    -2.7366870922196362E-011
  -1.2199999999999989E-002     2.0035558281894517E-011
  -1.1099999999999985E-002     6.3972827035740920E-011
  -9.9999999999999950E-003     6.4690468259964717E-011
  -8.8999999999999913E-003     9.1811037938871465E-012
  -7.7999999999999875E-003    -6.9150650483518206E-011
  -6.6999999999999837E-003    -1.0704707953390624E-010
  -5.5999999999999939E-003    -5.9804258767393037E-011
  -4.4999999999999901E-003     5.3253301074418502E-011
  -3.3999999999999864E-003     1.4832252093199827E-010
  -2.2999999999999826E-003     1.3472550852711151E-010
  -1.1999999999999927E-003    -5.3898565298415857E-012
  -9.9999999999988987E-005    -1.8095795695227679E-010
   1.0000000000000148E-003    -2.4364363304663073E-010
   2.1000000000000185E-003    -1.0449284493230238E-010
   3.2000000000000084E-003     1.7095656834609230E-010
   4.3000000000000121E-003     3.7871450420112751E-010
   5.4000000000000159E-003     3.1781188791768500E-010
   6.5000000000000058E-003    -3.4708302204533581E-011
   7.6000000000000234E-003    -4.5850803709335253E-010
   8.7000000000000133E-003    -6.1672150719616070E-010
   9.8000000000000032E-003    -3.1148464363361938E-010
   1.0900000000000021E-002     3.1882943507532957E-010
   1.2000000000000011E-002     8.3917067739136542E-010
   1.3100000000000001E-002     8.1140222318865085E-010
   1.4200000000000018E-002     1.5035490907866489E-010
   1.5300000000000008E-002    -7.3935763067467519E-010
   1.6400000000000026E-002    -1.2003099625346181E-009
   1.7500000000000016E-002    -8.0780543365577273E-010
   1.8600000000000005E-002     2.4929730502165626E-010
   1.9700000000000023E-002     1.2231361479209113E-009
   2.0800000000000013E-002     1.3272187793234025E-009
   2.1900000000000003E-002     3.7392205998187933E-010
   2.3000000000000020E-002    -9.7762919981647656E-010
   2.4100000000000010E-002    -1.6362329269270504E-009
   2.5200000000000000E-002    -9.2638663407029753E-010
   2.6300000000000018E-002     7.6287987038625715E-010
   2.7400000000000008E-002     2.1102857239441164E-009
   2.8500000000000025E-002     1.8133601287217971E-009
   2.9600000000000015E-002    -2.8283189679179088E-010
   3.0700000000000005E-002    -2.7947071323808359E-009
   3.1800000000000023E-002    -3.6276752712893767E-009
   3.2900000000000013E-002    -1.5842046563463441E-009
   3.4000000000000002E-002     2.4213078209101013E-009
   3.5100000000000020E-002     5.6263833592140600E-009
   3.6200000000000010E-002     5.2527777683053500E-009
   3.7300000000000028E-002     7.3766348585024843E-010
   3.8400000000000017E-002    -5.3531277188767490E-009
   3.9500000000000007E-002    -8.7105522794672652E-009
   4.0600000000000025E-002    -6.2945813006365370E-009
   4.1700000000000015E-002     1.1019952728119620E-009
   4.2800000000000005E-002     8.8096649975000219E-009
   4.3900000000000022E-002     1.1198173055504412E-008
   4.5000000000000012E-002     5.7679527820653220E-009
   4.6100000000000002E-002    -4.5319028529888783E-009
   4.7200000000000020E-002    -1.2760132506173250E-008
   4.8300000000000010E-002    -1.2609679522768147E-008
   4.9400000000000027E-002    -3.1326010674348481E-009
   5.0500000000000017E-002     9.9350812021725687E-009
   5.1600000000000007E-002     1.7589481871027601E-008
   5.2700000000000025E-002     1.3684578803463410E-008
   5.3800000000000014E-002    -4.3064349308785665E-010
   5.4900000000000004E-002    -1.6208023367880742E-008
   5.6000000000000022E-002    -2.3247636704581964E-008
   5.7100000000000012E-002    -1.6212341691357324E-008
   5.8200000000000002E-002     1.4256541502888354E-009
   5.9300000000000019E-002     1.9436614095980076E-008
   6.0400000000000009E-002     2.7302066385459511E-008
   6.1500000000000027E-002     2.0692047186798845E-008
   6.2600000000000017E-002     3.6910379197507837E-009
   6.3700000000000007E-002    -1.4339314624578492E-008
   6.4800000000000024E-002    -2.4644158713726938E-008
   6.5900000000000014E-002    -2.3566604667735191E-008
   6.7000000000000004E-002    -1.3158270917301707E-008
   6.8100000000000022E-002     1.3424931166738929E-009
   6.9200000000000012E-002     1.4389069491471673E-008
   7.0300000000000029E-002     2.1368187219650281E-008
   7.1400000000000019E-002     1.8775262233816647E-008
   7.2500000000000009E-002     5.4450080000378875E-009
   7.3600000000000027E-002    -1.4470156628476616E-008
   7.4700000000000016E-002    -2.9483897989734942E-008
   7.5800000000000006E-002    -2.4229791506513720E-008
   7.6900000000000024E-002     1.0005227757403645E-008
   7.8000000000000014E-002     6.2867471228855720E-008
   7.9100000000000004E-002     1.0131864058848805E-007
   8.0200000000000021E-002     8.3463177702469693E-008
   8.1300000000000011E-002    -1.2618206035597268E-008
   8.2400000000000029E-002    -1.6149638781826070E-007
   8.3500000000000019E-002    -2.8692159048659960E-007
   8.4600000000000009E-002    -2.9462913175848371E-007
   8.5700000000000026E-002    -1.3039533541814308E-007
   8.6800000000000016E-002     1.7017210041103681E-007
   8.7900000000000006E-002     4.7759539256730932E-007
   8.9000000000000024E-002     6.2521240806745482E-007
   9.0100000000000013E-002     5.0270062956769834E-007
   9.1200000000000003E-002     1.3197802672948455E-007
   9.2300000000000021E-002    -3.2753735013102414E-007
   9.3400000000000011E-002    -6.5876724875124637E-007
   9.4500000000000028E-002    -7.1137975510282558E-007
   9.5600000000000018E-002    -4.9467837470729137E-007
   9.6700000000000008E-002    -1.7445610467348160E-007
   9.7800000000000026E-002     3.3531080134707736E-008
   9.8900000000000016E-002     1.1748217509932601E-008
  0.10000000000000001         -1.6568829153129627E-007
  0.10110000000000002         -2.6324821078560490E-007
  0.10220000000000001         -2.9506006526958117E-008
  0.10330000000000003          6.2922356391936773E-007
  0.10440000000000002          1.5602736311848275E-006
  0.10550000000000001          2.4245296117442194E-006
  0.10660000000000003          2.8707402179861674E-006
  0.10770000000000002          2.7084024623036385E-006
  0.10880000000000001          1.9563067326089367E-006
  0.10990000000000003          7.2355044267169433E-007
  0.11100000000000002         -1.0011923450292670E-006
  0.11210000000000001         -3.4982792840310140E-006
  0.11320000000000002         -7.2727302722341847E-006
  0.11430000000000001         -1.2806811355403624E-005
  0.11540000000000003         -2.0246676285751164E-005
  0.11650000000000002         -2.9235881811473519E-005
  0.11760000000000001         -3.9051927160471678E-005
  0.11870000000000003         -4.9033005780074745E-005
  0.11980000000000002         -5.9097201301483437E-005
  0.12090000000000001         -7.0071473601274192E-005
  0.12200000000000003         -8.3626902778632939E-005
  0.12310000000000001         -1.0182612459175289E-004
  0.12420000000000003         -1.2651243014261127E-004
  0.12530000000000002         -1.5887508925516158E-004
  0.12640000000000001         -1.9944299128837883E-004
  0.12750000000000003         -2.4852811475284398E-004
  0.12860000000000002         -3.0689168488606811E-004
  0.12970000000000001         -3.7628193967975676E-004
  0.13080000000000003         -4.5956877875141799E-004
  0.13190000000000002         -5.6043721269816160E-004
  0.13300000000000001         -6.8286224268376827E-004
  0.13410000000000000         -8.3072273992002010E-004
  0.13520000000000004         -1.0078377090394497E-003
  0.13630000000000003         -1.2184573570266366E-003
  0.13740000000000002         -1.4679679879918694E-003
  0.13850000000000001         -1.7634145915508270E-003
  0.13960000000000000         -2.1135362330824137E-003
  0.14070000000000005         -2.5282665155827999E-003
  0.14180000000000004         -3.0179859604686499E-003
  0.14290000000000003         -3.5930033773183823E-003
  0.14400000000000002         -4.2636464349925518E-003
  0.14510000000000001         -5.0410432741045952E-003
  0.14620000000000000         -5.9382785111665726E-003
  0.14730000000000004         -6.9713681004941463E-003
  0.14840000000000003         -8.1595182418823242E-003
  0.14950000000000002         -9.5245055854320526E-003
  0.15060000000000001         -1.1089494451880455E-002
  0.15170000000000000         -1.2877867557108402E-002
  0.15280000000000005         -1.4912642538547516E-002
  0.15390000000000004         -1.7216747626662254E-002
  0.15500000000000003         -1.9813884049654007E-002
  0.15610000000000002         -2.2729339078068733E-002
  0.15720000000000001         -2.5990145280957222E-002
  0.15830000000000000         -2.9624352231621742E-002
  0.15940000000000004         -3.3659797161817551E-002
  0.16050000000000003         -3.8122925907373428E-002
  0.16160000000000002         -4.3038159608840942E-002
  0.16270000000000001         -4.8427842557430267E-002
  0.16380000000000000         -5.4312471300363541E-002
  0.16490000000000005         -6.0710411518812180E-002
  0.16600000000000004         -6.7636631429195404E-002
  0.16710000000000003         -7.5100578367710114E-002
  0.16820000000000002         -8.3103783428668976E-002
  0.16930000000000001         -9.1638207435607910E-002
  0.17040000000000000        -0.10068573057651520
  0.17150000000000004        -0.11021881550550461
  0.17260000000000003        -0.12020146101713181
  0.17370000000000002        -0.13058938086032867
  0.17480000000000001        -0.14132829010486603
  0.17590000000000000        -0.15235096216201782
  0.17700000000000005        -0.16357448697090149
  0.17810000000000004        -0.17489884793758392
  0.17920000000000003        -0.18620738387107849
  0.18030000000000002        -0.19736851751804352
  0.18140000000000001        -0.20823732018470764
  0.18250000000000000        -0.21865683794021606
  0.18360000000000004        -0.22845928370952606
  0.18470000000000003        -0.23746563494205475
  0.18580000000000002        -0.24548532068729401
  0.18690000000000001        -0.25231733918190002
  0.18800000000000000        -0.25775253772735596
  0.18910000000000005        -0.26157715916633606
  0.19020000000000004        -0.26357799768447876
  0.19130000000000003        -0.26354798674583435
  0.19240000000000002        -0.26128882169723511
  0.19350000000000001        -0.25661200284957886
  0.19460000000000005        -0.24934116005897522
  0.19570000000000004        -0.23931734263896942
  0.19680000000000003        -0.22640450298786163
  0.19790000000000002        -0.21049445867538452
  0.19900000000000001        -0.19151209294795990
  0.20010000000000000        -0.16941882669925690
  0.20120000000000005        -0.14421470463275909
  0.20230000000000004        -0.11594013869762421
  0.20340000000000003         -8.4679543972015381E-002
  0.20450000000000002         -5.0563935190439224E-002
  0.20560000000000000         -1.3772383332252502E-002
  0.20670000000000005          2.5467444211244583E-002
  0.20780000000000004          6.6880986094474792E-002
  0.20890000000000003         0.11014791578054428
