 -0.12000000000000000          0.0000000000000000
 -0.11889999999999999          0.0000000000000000
 -0.11780000000000000          0.0000000000000000
 -0.11670000000000000          0.0000000000000000
 -0.11559999999999999          0.0000000000000000
 -0.11449999999999999          0.0000000000000000
 -0.11340000000000000          0.0000000000000000
 -0.11230000000000000          0.0000000000000000
 -0.11119999999999999          5.6539140191387205E-027
 -0.11009999999999999         -9.4703035168670281E-026
 -0.10900000000000000         -7.3500857596900079E-026
 -0.10790000000000000          3.9294695037443121E-025
 -0.10679999999999999         -2.8863225397765412E-024
 -0.10569999999999999          2.5414337353052727E-024
 -0.10460000000000000          4.7772737999805985E-023
 -0.10349999999999999          1.3461684155655863E-022
 -0.10239999999999999          1.1290581172306594E-022
 -0.10130000000000000         -4.0815880330656268E-022
 -0.10020000000000000         -8.5685329364766670E-022
  -9.9099999999999994E-002     6.9483777299629534E-023
  -9.7999999999999990E-002     7.6423658051010171E-022
  -9.6899999999999986E-002     6.0906746374828592E-021
  -9.5799999999999996E-002     2.3853259497968908E-021
  -9.4699999999999993E-002    -3.1726964758868866E-021
  -9.3599999999999989E-002     7.9433483754806682E-021
  -9.2499999999999999E-002     3.3880784746417829E-020
  -9.1399999999999995E-002     1.1169309951378428E-019
  -9.0299999999999991E-002     2.2764739087256707E-020
  -8.9200000000000002E-002    -3.1812730463693544E-019
  -8.8099999999999984E-002    -4.8116263881718238E-019
  -8.6999999999999994E-002    -9.5806417303107149E-020
  -8.5899999999999990E-002     6.1562043379737076E-019
  -8.4799999999999986E-002    -1.5509200923077971E-019
  -8.3699999999999997E-002    -1.5186601776651998E-018
  -8.2599999999999993E-002    -1.7558025195264959E-018
  -8.1499999999999989E-002    -2.2300869964539350E-018
  -8.0399999999999999E-002     1.4133594394523458E-019
  -7.9299999999999995E-002     7.2556048168415316E-018
  -7.8199999999999992E-002     1.1524166143164249E-017
  -7.7100000000000002E-002     3.9356128579639985E-018
  -7.5999999999999984E-002    -1.7881477630191569E-017
  -7.4899999999999994E-002    -3.2110016487508112E-017
  -7.3799999999999991E-002    -1.6932909917107610E-017
  -7.2699999999999987E-002     5.8327499384931423E-018
  -7.1599999999999997E-002     3.2392687263874633E-017
  -7.0499999999999993E-002     6.6541174565733923E-017
  -6.9399999999999989E-002    -1.6932911571468835E-017
  -6.8300000000000000E-002    -1.9146964043979705E-016
  -6.7199999999999996E-002    -2.5217806672139906E-016
  -6.6099999999999992E-002    -5.8669948849805927E-017
  -6.5000000000000002E-002     3.6249476426907228E-016
  -6.3899999999999985E-002     7.2674526901912511E-016
  -6.2799999999999995E-002     6.0532838998614150E-016
  -6.1699999999999991E-002    -2.7494379771453249E-016
  -6.0599999999999994E-002    -1.5118780014001468E-015
  -5.9499999999999990E-002    -1.8988943430224515E-015
  -5.8399999999999994E-002    -5.9366315811567368E-016
  -5.7299999999999990E-002     1.8346739990275250E-015
  -5.6199999999999986E-002     3.9139376554206753E-015
  -5.5099999999999996E-002     3.7469895790992209E-015
  -5.3999999999999992E-002    -3.2047496853322374E-016
  -5.2899999999999989E-002    -6.3913171731769507E-015
  -5.1799999999999985E-002    -9.3053218464520839E-015
  -5.0699999999999995E-002    -4.9343150482976210E-015
  -4.9599999999999991E-002     5.0218669148246672E-015
  -4.8499999999999988E-002     1.4492381361815021E-014
  -4.7399999999999998E-002     1.2792544631836777E-014
  -4.6299999999999994E-002    -4.4486479556821602E-015
  -4.5199999999999990E-002    -2.1932674724783538E-014
  -4.4099999999999986E-002    -2.3389676426146394E-014
  -4.2999999999999997E-002    -5.4199817173966082E-015
  -4.1899999999999993E-002     2.5541316295025346E-014
  -4.0799999999999989E-002     4.7760599864105427E-014
  -3.9699999999999985E-002     3.9989919605994476E-014
  -3.8599999999999995E-002    -5.6628175930449436E-015
  -3.7499999999999992E-002    -7.4627587096087744E-014
  -3.6399999999999988E-002    -1.2242028950889411E-013
  -3.5299999999999984E-002    -9.5420219848370985E-014
  -3.4199999999999994E-002     3.0853310629009451E-014
  -3.3099999999999991E-002     2.0763624923158391E-013
  -3.1999999999999987E-002     3.1739709601893984E-013
  -3.0899999999999997E-002     2.3580497363756558E-013
  -2.9799999999999993E-002    -7.9878839003358348E-014
  -2.8699999999999989E-002    -4.9561011761581342E-013
  -2.7599999999999986E-002    -7.0930381793760100E-013
  -2.6499999999999996E-002    -4.0819005619162352E-013
  -2.5399999999999992E-002     3.8927585113701646E-013
  -2.4299999999999988E-002     1.1070922824318874E-012
  -2.3199999999999985E-002     9.6722011910105321E-013
  -2.2099999999999995E-002    -2.4500573011371207E-013
  -2.0999999999999991E-002    -1.6188374425685215E-012
  -1.9899999999999987E-002    -1.5784057004128438E-012
  -1.8799999999999983E-002     5.9738422975713634E-013
  -1.7699999999999994E-002     3.4725351934217219E-012
  -1.6599999999999990E-002     3.8027888130121035E-012
  -1.5499999999999986E-002    -5.9930050288689585E-013
  -1.4399999999999996E-002    -7.5307459920792574E-012
  -1.3299999999999992E-002    -1.0398125936672553E-011
  -1.2199999999999989E-002    -3.4200563388264715E-012
  -1.1099999999999985E-002     1.1313150069525157E-011
  -9.9999999999999950E-003     2.2129935037251691E-011
  -8.8999999999999913E-003     1.5726895480350223E-011
  -7.7999999999999875E-003    -9.1081933661918413E-012
  -6.6999999999999837E-003    -3.4875762000563526E-011
  -5.5999999999999939E-003    -3.6072443643231367E-011
  -4.4999999999999901E-003    -1.9203126502137513E-012
  -3.3999999999999864E-003     4.6498783989878945E-011
  -2.2999999999999826E-003     6.4759878015685501E-011
  -1.1999999999999927E-003     2.2254262668774949E-011
  -9.9999999999988987E-005    -6.0017796288391878E-011
   1.0000000000000148E-003    -1.1056994903002604E-010
   2.1000000000000185E-003    -6.3728300414567229E-011
   3.2000000000000084E-003     7.1792329026099111E-011
   4.3000000000000121E-003     1.9133644668656302E-010
   5.4000000000000159E-003     1.5966317157278809E-010
   6.5000000000000058E-003    -5.6423851702014360E-011
   7.6000000000000234E-003    -3.0282429341887962E-010
   8.7000000000000133E-003    -3.3347963279695136E-010
   9.8000000000000032E-003    -4.1675114748063180E-011
   1.0900000000000021E-002     3.9991698841390644E-010
   1.2000000000000011E-002     6.0988070149647911E-010
   1.3100000000000001E-002     2.6610588732545182E-010
   1.4200000000000018E-002    -4.8447951206398443E-010
   1.5300000000000008E-002    -1.0011985684954539E-009
   1.6400000000000026E-002    -6.8514954820741991E-010
   1.7500000000000016E-002     4.2238976205588585E-010
   1.8600000000000005E-002     1.4792020941456485E-009
   1.9700000000000023E-002     1.4215125743177737E-009
   2.0800000000000013E-002     9.1139968835807217E-012
   2.1900000000000003E-002    -1.6628873833468560E-009
   2.3000000000000020E-002    -2.0746711015817709E-009
   2.4100000000000010E-002    -6.3840110975377229E-010
   2.5200000000000000E-002     1.5637470207607862E-009
   2.6300000000000018E-002     2.6101154571023244E-009
   2.7400000000000008E-002     1.3329888304269844E-009
   2.8500000000000025E-002    -1.4838511530612664E-009
   2.9600000000000015E-002    -3.3179798908378189E-009
   3.0700000000000005E-002    -2.4824764466302440E-009
   3.1800000000000023E-002     5.5862332121181524E-011
   3.2900000000000013E-002     2.1485992984793256E-009
   3.4000000000000002E-002     2.9681883617627136E-009
   3.5100000000000020E-002     2.7135587110649340E-009
   3.6200000000000010E-002     1.9178412191678262E-009
   3.7300000000000028E-002     6.1286448138631044E-010
   3.8400000000000017E-002    -2.0925750021660861E-009
   3.9500000000000007E-002    -4.0977830018107397E-009
   4.0600000000000025E-002    -2.2198896054703710E-009
   4.1700000000000015E-002     2.9681885838073185E-009
   4.2800000000000005E-002     6.2147158530478919E-009
   4.3900000000000022E-002    -3.4199654219690956E-010
   4.5000000000000012E-002    -1.4601254427759613E-008
   4.6100000000000002E-002    -2.2303799696032911E-008
   4.7200000000000020E-002    -1.0972782682472371E-008
   4.8300000000000010E-002     1.0925362836644581E-008
   4.9400000000000027E-002     2.6967027721980230E-008
   5.0500000000000017E-002     3.1932302135828650E-008
   5.1600000000000007E-002     2.3147579852889066E-008
   5.2700000000000025E-002    -2.3713008986958606E-011
   5.3800000000000014E-002    -2.4722782043795632E-008
   5.4900000000000004E-002    -3.9491297343374754E-008
   5.6000000000000022E-002    -3.1343148521045805E-008
   5.7100000000000012E-002    -1.6065373031892705E-008
   5.8200000000000002E-002    -1.5046854429101586E-008
   5.9300000000000019E-002    -7.8759715416154563E-010
   6.0400000000000009E-002     3.2314250830722813E-008
   6.1500000000000027E-002     3.9443879273903804E-008
   6.2600000000000017E-002     1.0416105311605861E-008
   6.3700000000000007E-002    -1.5046854429101586E-008
   6.4800000000000024E-002    -2.8246331940096070E-009
   6.5900000000000014E-002     3.9953139463477783E-008
   6.7000000000000004E-002     5.5230916728987722E-008
   6.8100000000000022E-002     1.9582774513082768E-008
   6.9200000000000012E-002    -1.3009814558984090E-008
   7.0300000000000029E-002    -3.1343144968332126E-008
   7.1400000000000019E-002    -7.4120919180131750E-008
   7.2500000000000009E-002    -1.0569498698487223E-007
   7.3600000000000027E-002    -2.6250550178019694E-008
   7.4700000000000016E-002     1.2449017106064275E-007
   7.5800000000000006E-002     2.1208276734796527E-007
   7.6900000000000024E-002     1.7745314551120828E-007
   7.8000000000000014E-002    -1.1991271975375639E-008
   7.9100000000000004E-002    -1.7902829085869598E-007
   8.0200000000000021E-002    -1.6273200742489280E-007
   8.1300000000000011E-002    -1.3421349365216884E-007
   8.2400000000000029E-002    -2.0958385960057058E-007
   8.3500000000000019E-002    -3.0939867201595916E-007
   8.4600000000000009E-002    -2.4217644067903166E-007
   8.5700000000000026E-002     1.7337907820547116E-007
   8.6800000000000016E-002     5.2986052878623013E-007
   8.7900000000000006E-002     3.8319384998430905E-007
   8.9000000000000024E-002    -2.3402829185670271E-007
   9.0100000000000013E-002    -6.7199118802818703E-007
   9.1200000000000003E-002    -2.4013937149902631E-007
   9.2300000000000021E-002     7.0097161142257391E-007
   9.3400000000000011E-002     1.1684714991133660E-006
   9.4500000000000028E-002     6.8365670813363977E-007
   9.5600000000000018E-002    -2.9310240279301070E-007
   9.6700000000000008E-002    -1.0717596978793154E-006
   9.7800000000000026E-002    -9.1261620127625065E-007
   9.8900000000000016E-002     1.8534660739533138E-007
  0.10000000000000001          9.2351780267563299E-007
  0.10110000000000002          4.1680490880935395E-007
  0.10220000000000001         -6.0680605429297430E-007
  0.10330000000000003         -9.7347265182179399E-007
  0.10440000000000002         -4.5402828163787490E-007
  0.10550000000000001          3.9745307844896161E-007
  0.10660000000000003          1.0044900591310579E-006
  0.10770000000000002          9.6782343916856917E-007
  0.10880000000000001          1.6523100043741579E-007
  0.10990000000000003         -7.0662071038896102E-007
  0.11100000000000002         -8.7773184986872366E-007
  0.11210000000000001         -3.8884300579411502E-007
  0.11320000000000002          2.8745321856149531E-007
  0.11430000000000001          6.8671243980134022E-007
  0.11540000000000003          6.2152724922270863E-007
  0.11650000000000002          4.4226803197489062E-007
  0.11760000000000001          4.0152730207410059E-007
  0.11870000000000003          2.0597177297076996E-007
  0.11980000000000002         -3.9699108356217039E-007
  0.12090000000000001         -1.1629168739091256E-006
  0.12200000000000003         -1.4481020116363652E-006
  0.12310000000000001         -8.6143541011551861E-007
  0.12420000000000003          1.4078669607897609E-007
  0.12530000000000002          8.2523109767862479E-007
  0.12640000000000001          8.0078666542249266E-007
  0.12750000000000003          1.2449044106688234E-007
  0.12860000000000002         -6.5773167534644017E-007
  0.12970000000000001         -6.9032427063575597E-007
  0.13080000000000003         -3.8472496299846171E-008
  0.13190000000000002          4.0152744418264774E-007
  0.13300000000000001          5.1157115876776516E-008
  0.13410000000000000         -6.9439835215234780E-007
  0.13520000000000004         -5.1921313115599332E-007
  0.13630000000000003          8.0893488529909519E-007
  0.13740000000000002          2.1024532088631531E-006
  0.13850000000000001          1.5850457657506922E-006
  0.13960000000000000         -6.6689830191535293E-007
  0.14070000000000005         -2.2629164959653281E-006
  0.14180000000000004         -1.5927312233543489E-006
  0.14290000000000003          3.6078708376408031E-007
  0.14400000000000002          1.7031943571055308E-006
  0.14510000000000001          1.2672685443249065E-006
  0.14620000000000000         -2.2384236331163265E-007
  0.14730000000000004         -8.6347188243962592E-007
  0.14840000000000003         -5.2731273569861514E-008
  0.14950000000000002          1.3161574088371708E-006
  0.15060000000000001          1.6828239495225716E-006
  0.15170000000000000          5.7268596975745822E-008
  0.15280000000000005         -2.2405088202503975E-006
  0.15390000000000004         -2.6968050406139810E-006
  0.15500000000000003         -8.1458307477078051E-007
  0.15610000000000002          1.4098610563451075E-006
  0.15720000000000001          1.6380092802137369E-006
  0.15830000000000000         -1.7087940307192184E-007
  0.15940000000000004         -2.2242124941840302E-006
  0.16050000000000003         -2.0286570361349732E-006
  0.16160000000000002          6.7652769075721153E-007
  0.16270000000000001          2.7217126898904098E-006
  0.16380000000000000          1.7357868955514277E-006
  0.16490000000000005         -1.3768053577223327E-006
  0.16600000000000004         -3.4056940876325825E-006
  0.16710000000000003         -1.8819906699718558E-006
  0.16820000000000002          2.2002309378876816E-006
  0.16930000000000001          5.0765265768859535E-006
  0.17040000000000000          3.8257858250290155E-006
  0.17150000000000004         -5.6199115761046414E-007
  0.17260000000000003         -3.8579164538532495E-006
  0.17370000000000002         -3.0023611543583684E-006
  0.17480000000000001          6.9689758674940094E-007
  0.17590000000000000          3.2472676139150281E-006
  0.17700000000000005          2.1594898953480879E-006
  0.17810000000000004         -1.0793985438795062E-006
  0.17920000000000003         -2.5582871785445604E-006
  0.18030000000000002         -1.8717639704846079E-007
  0.18140000000000001          3.6913415897288360E-006
  0.18250000000000000          4.5876377043896355E-006
  0.18360000000000004          7.4171219921481679E-007
  0.18470000000000003         -4.6829168240947183E-006
  0.18580000000000002         -6.6140278249804396E-006
  0.18690000000000001         -3.1306949495046865E-006
  0.18800000000000000          2.3183783923741430E-006
  0.18910000000000005          4.2678225327108521E-006
  0.19020000000000004          9.2708228294213768E-007
  0.19130000000000003         -3.8518060136993881E-006
  0.19240000000000002         -4.4955095290788449E-006
  0.19350000000000001          3.2411944062005205E-007
  0.19460000000000005          6.0909706007805653E-006
  0.19570000000000004          6.9241191340552177E-006
  0.19680000000000003          1.5402312101286952E-006
  0.19790000000000002         -5.2268046601966489E-006
  0.19900000000000001         -7.1131003096525092E-006
  0.20010000000000000         -2.6336563223594567E-006
  0.20120000000000005          3.5120838219881989E-006
  0.20230000000000004          5.2211576075933408E-006
  0.20340000000000003          1.1124544698759564E-006
  0.20450000000000002         -4.2429151108080987E-006
  0.20560000000000000         -5.1005072236876003E-006
  0.20670000000000005         -5.4976686669760966E-007
  0.20780000000000004          4.6120840124785900E-006
  0.20890000000000003          4.9726395445759408E-006
