 -0.12000000000000000          0.0000000000000000
 -0.11889999999999999          0.0000000000000000
 -0.11780000000000000          0.0000000000000000
 -0.11670000000000000          0.0000000000000000
 -0.11559999999999999          0.0000000000000000
 -0.11449999999999999          0.0000000000000000
 -0.11340000000000000          0.0000000000000000
 -0.11230000000000000         -1.5905969089881542E-020
 -0.11119999999999999         -4.0088423045633113E-020
 -0.11009999999999999          3.4155247151072045E-020
 -0.10900000000000000         -2.5104125089887151E-019
 -0.10790000000000000         -2.9753514993555301E-018
 -0.10679999999999999         -7.2506524865141766E-018
 -0.10569999999999999          4.0178739019308657E-018
 -0.10460000000000000          5.5987190365059644E-017
 -0.10349999999999999          1.0102219178256198E-016
 -0.10239999999999999         -6.9934342230320348E-017
 -0.10130000000000000         -6.2755104051118692E-016
 -0.10020000000000000         -1.0369691801268813E-015
  -9.9099999999999994E-002     3.0687175174921768E-016
  -9.7999999999999990E-002     4.4209194851208434E-015
  -9.6899999999999986E-002     7.8581338688161161E-015
  -9.5799999999999996E-002     1.3577443689003475E-015
  -9.4699999999999993E-002    -2.1259857820054608E-014
  -9.3599999999999989E-002    -4.4893854123572927E-014
  -9.2499999999999999E-002    -2.6838791199234116E-014
  -9.1399999999999995E-002     6.7755710438967276E-014
  -9.0299999999999991E-002     1.9338117262027166E-013
  -8.9200000000000002E-002     1.9031420861979897E-013
  -8.8099999999999984E-002    -1.0633595376842789E-013
  -8.6999999999999994E-002    -6.1945527917231513E-013
  -8.5899999999999990E-002    -8.6889398670866869E-013
  -8.4799999999999986E-002    -2.2389478237985067E-013
  -8.3699999999999997E-002     1.3820322924268380E-012
  -8.2599999999999993E-002     2.8270695246607191E-012
  -8.1499999999999989E-002     2.1799873104605405E-012
  -8.0399999999999999E-002    -1.5765929143804480E-012
  -7.9299999999999995E-002    -6.5930355792886974E-012
  -7.8199999999999992E-002    -8.1870040261056154E-012
  -7.7100000000000002E-002    -2.2022589914877377E-012
  -7.5999999999999984E-002     1.0035184488943472E-011
  -7.4899999999999994E-002     1.9790554611764932E-011
  -7.3799999999999991E-002     1.5884592252657370E-011
  -7.2699999999999987E-002    -5.1223968643154816E-012
  -7.1599999999999997E-002    -3.1675616990467503E-011
  -7.0499999999999993E-002    -4.1752479945644794E-011
  -6.9399999999999989E-002    -1.9618421470690706E-011
  -6.8300000000000000E-002     2.7044866346415120E-011
  -6.7199999999999996E-002     6.6246459706764682E-011
  -6.6099999999999992E-002     6.3195330912702019E-011
  -6.5000000000000002E-002     1.0416934675960832E-011
  -6.3899999999999985E-002    -5.9475681324361318E-011
  -6.2799999999999995E-002    -9.4270966033427328E-011
  -6.1699999999999991E-002    -6.3865517041516995E-011
  -6.0599999999999994E-002     1.1311672952485363E-011
  -5.9499999999999990E-002     7.3337537431772404E-011
  -5.8399999999999994E-002     7.4907538505364357E-011
  -5.7299999999999990E-002     2.2028412080543625E-011
  -5.6199999999999986E-002    -2.9458151196148918E-011
  -5.5099999999999996E-002    -2.5248634780150603E-011
  -5.3999999999999992E-002     3.2256593229806896E-011
  -5.2899999999999989E-002     7.8076212162159209E-011
  -5.1799999999999985E-002     4.0151153235523651E-011
  -5.0699999999999995E-002    -8.8623920702080028E-011
  -4.9599999999999991E-002    -2.2688138867632546E-010
  -4.8499999999999988E-002    -2.5654089963467186E-010
  -4.7399999999999998E-002    -1.1225591289854009E-010
  -4.6299999999999994E-002     1.6167128746857884E-010
  -4.5199999999999990E-002     4.2947095879597441E-010
  -4.4099999999999986E-002     5.3957377454949551E-010
  -4.2999999999999997E-002     4.0293782199718464E-010
  -4.1899999999999993E-002     3.2634308450019134E-011
  -4.0799999999999989E-002    -4.5761189282345072E-010
  -3.9699999999999985E-002    -8.7928359038258463E-010
  -3.8599999999999995E-002    -1.0172134246033693E-009
  -3.7499999999999992E-002    -7.1223432707157031E-010
  -3.6399999999999988E-002     3.2793250753782033E-011
  -3.5299999999999984E-002     9.8428543093831422E-010
  -3.4199999999999994E-002     1.7242528516092648E-009
  -3.3099999999999991E-002     1.8307823035357274E-009
  -3.1999999999999987E-002     1.1093961305164157E-009
  -3.0899999999999997E-002    -2.6542598674517137E-010
  -2.9799999999999993E-002    -1.7915965377923726E-009
  -2.8699999999999989E-002    -2.8393507545132479E-009
  -2.7599999999999986E-002    -2.8995021938982291E-009
  -2.6499999999999996E-002    -1.7785294348371394E-009
  -2.5399999999999992E-002     2.9699140369210397E-010
  -2.4299999999999988E-002     2.6758473214982814E-009
  -2.3199999999999985E-002     4.4197072668339388E-009
  -2.2099999999999995E-002     4.6340349335594055E-009
  -2.0999999999999991E-002     2.9334588091955993E-009
  -1.9899999999999987E-002    -2.0530825650677542E-010
  -1.8799999999999983E-002    -3.5206926263242622E-009
  -1.7699999999999994E-002    -5.5782050090158464E-009
  -1.6599999999999990E-002    -5.6058029329619785E-009
  -1.5499999999999986E-002    -3.9597098933086272E-009
  -1.4399999999999996E-002    -1.7970659405008860E-009
  -1.3299999999999992E-002    -1.1533507482397454E-010
  -1.2199999999999989E-002     1.1237355490578693E-009
  -1.1099999999999985E-002     3.0347626633897562E-009
  -9.9999999999999950E-003     6.8547842957400462E-009
  -8.8999999999999913E-003     1.2612942690282125E-008
  -7.7999999999999875E-003     1.8375839516693304E-008
  -6.6999999999999837E-003     2.0633885711163202E-008
  -5.5999999999999939E-003     1.5601617775473642E-008
  -4.4999999999999901E-003     6.2558125346612314E-010
  -3.3999999999999864E-003    -2.5087452115712949E-008
  -2.2999999999999826E-003    -6.0721887962245091E-008
  -1.1999999999999927E-003    -1.0486498780437614E-007
  -9.9999999999988987E-005    -1.5681605702866364E-007
   1.0000000000000148E-003    -2.1773377056888421E-007
   2.1000000000000185E-003    -2.9123961553523259E-007
   3.2000000000000084E-003    -3.8321982742672844E-007
   4.3000000000000121E-003    -5.0087237468687817E-007
   5.4000000000000159E-003    -6.5152119077538373E-007
   6.5000000000000058E-003    -8.4202781636122381E-007
   7.6000000000000234E-003    -1.0793504543471499E-006
   8.7000000000000133E-003    -1.3719585467697470E-006
   9.8000000000000032E-003    -1.7310633211309323E-006
   1.0900000000000021E-002    -2.1707605810661335E-006
   1.2000000000000011E-002    -2.7072712782683084E-006
   1.3100000000000001E-002    -3.3586175050004385E-006
   1.4200000000000018E-002    -4.1460907596047036E-006
   1.5300000000000008E-002    -5.0974776968359947E-006
   1.6400000000000026E-002    -6.2502654145646375E-006
   1.7500000000000016E-002    -7.6525620897882618E-006
   1.8600000000000005E-002    -9.3609423856833018E-006
   1.9700000000000023E-002    -1.1436796739872079E-005
   2.0800000000000013E-002    -1.3944139027444180E-005
   2.1900000000000003E-002    -1.6951076759141870E-005
   2.3000000000000020E-002    -2.0534842406050302E-005
   2.4100000000000010E-002    -2.4788187147350982E-005
   2.5200000000000000E-002    -2.9824625016772188E-005
   2.6300000000000018E-002    -3.5781016777036712E-005
   2.7400000000000008E-002    -4.2817489884328097E-005
   2.8500000000000025E-002    -5.1115592214046046E-005
   2.9600000000000015E-002    -6.0875892813783139E-005
   3.0700000000000005E-002    -7.2316586738452315E-005
   3.1800000000000023E-002    -8.5674902948085219E-005
   3.2900000000000013E-002    -1.0121239756699651E-004
   3.4000000000000002E-002    -1.1922332487301901E-004
   3.5100000000000020E-002    -1.4004262629896402E-004
   3.6200000000000010E-002    -1.6404961934313178E-004
   3.7300000000000028E-002    -1.9166531274095178E-004
   3.8400000000000017E-002    -2.2334547247737646E-004
   3.9500000000000007E-002    -2.5957426987588406E-004
   4.0600000000000025E-002    -3.0086224433034658E-004
   4.1700000000000015E-002    -3.4774947562254965E-004
   4.2800000000000005E-002    -4.0081026963889599E-004
   4.3900000000000022E-002    -4.6065595233812928E-004
   4.5000000000000012E-002    -5.2793399663642049E-004
   4.6100000000000002E-002    -6.0332356952130795E-004
   4.7200000000000020E-002    -6.8752997322008014E-004
   4.8300000000000010E-002    -7.8127719461917877E-004
   4.9400000000000027E-002    -8.8529748609289527E-004
   5.0500000000000017E-002    -1.0003185598179698E-003
   5.1600000000000007E-002    -1.1270489776507020E-003
   5.2700000000000025E-002    -1.2661649379879236E-003
   5.3800000000000014E-002    -1.4183003222569823E-003
   5.4900000000000004E-002    -1.5840363921597600E-003
   5.6000000000000022E-002    -1.7638887511566281E-003
   5.7100000000000012E-002    -1.9582882523536682E-003
   5.8200000000000002E-002    -2.1675613243132830E-003
   5.9300000000000019E-002    -2.3919087834656239E-003
   6.0400000000000009E-002    -2.6313867419958115E-003
   6.1500000000000027E-002    -2.8858901932835579E-003
   6.2600000000000017E-002    -3.1551285646855831E-003
   6.3700000000000007E-002    -3.4385994076728821E-003
   6.4800000000000024E-002    -3.7355639506131411E-003
   6.5900000000000014E-002    -4.0450277738273144E-003
   6.7000000000000004E-002    -4.3657282367348671E-003
   6.8100000000000022E-002    -4.6961312182247639E-003
   6.9200000000000012E-002    -5.0344201736152172E-003
   7.0300000000000029E-002    -5.3784884512424469E-003
   7.1400000000000019E-002    -5.7259253226220608E-003
   7.2500000000000009E-002    -6.0740169137716293E-003
   7.3600000000000027E-002    -6.4197531901299953E-003
   7.4700000000000016E-002    -6.7598433233797550E-003
   7.5800000000000006E-002    -7.0907254703342915E-003
   7.6900000000000024E-002    -7.4085891246795654E-003
   7.8000000000000014E-002    -7.7093984000384808E-003
   7.9100000000000004E-002    -7.9889306798577309E-003
   8.0200000000000021E-002    -8.2428222522139549E-003
   8.1300000000000011E-002    -8.4666227921843529E-003
   8.2400000000000029E-002    -8.6558451876044273E-003
   8.3500000000000019E-002    -8.8060181587934494E-003
   8.4600000000000009E-002    -8.9127551764249802E-003
   8.5700000000000026E-002    -8.9718112722039223E-003
   8.6800000000000016E-002    -8.9791659265756607E-003
   8.7900000000000006E-002    -8.9310854673385620E-003
   8.9000000000000024E-002    -8.8241957128047943E-003
   9.0100000000000013E-002    -8.6555387824773788E-003
   9.1200000000000003E-002    -8.4226476028561592E-003
   9.2300000000000021E-002    -8.1236138939857483E-003
   9.3400000000000011E-002    -7.7571622096002102E-003
   9.4500000000000028E-002    -7.3227034881711006E-003
   9.5600000000000018E-002    -6.8203820846974850E-003
   9.6700000000000008E-002    -6.2511013820767403E-003
   9.7800000000000026E-002    -5.6165507994592190E-003
   9.8900000000000016E-002    -4.9192234873771667E-003
  0.10000000000000001         -4.1624251753091812E-003
  0.10110000000000002         -3.3502678852528334E-003
  0.10220000000000001         -2.4876452516764402E-003
  0.10330000000000003         -1.5801889821887016E-003
  0.10440000000000002         -6.3422543462365866E-004
  0.10550000000000001          3.4327412140555680E-004
  0.10660000000000003          1.3447538949549198E-003
  0.10770000000000002          2.3621518630534410E-003
  0.10880000000000001          3.3869987819343805E-003
  0.10990000000000003          4.4105234555900097E-003
  0.11100000000000002          5.4237609729170799E-003
  0.11210000000000001          6.4176516607403755E-003
  0.11320000000000002          7.3831486515700817E-003
  0.11430000000000001          8.3113275468349457E-003
  0.11540000000000003          9.1935032978653908E-003
  0.11650000000000002          1.0021349415183067E-002
  0.11760000000000001          1.0786992497742176E-002
  0.11870000000000003          1.1483099311590195E-002
  0.11980000000000002          1.2102951295673847E-002
  0.12090000000000001          1.2640519067645073E-002
  0.12200000000000003          1.3090535998344421E-002
  0.12310000000000001          1.3448553159832954E-002
  0.12420000000000003          1.3710972853004932E-002
  0.12530000000000002          1.3875069096684456E-002
  0.12640000000000001          1.3938994146883488E-002
  0.12750000000000003          1.3901771977543831E-002
  0.12860000000000002          1.3763289898633957E-002
  0.12970000000000001          1.3524269685149193E-002
  0.13080000000000003          1.3186221010982990E-002
  0.13190000000000002          1.2751374393701553E-002
  0.13300000000000001          1.2222621589899063E-002
  0.13410000000000000          1.1603463441133499E-002
  0.13520000000000004          1.0897941887378693E-002
  0.13630000000000003          1.0110570117831230E-002
  0.13740000000000002          9.2462524771690369E-003
  0.13850000000000001          8.3102043718099594E-003
  0.13960000000000000          7.3078870773315430E-003
  0.14070000000000005          6.2449462711811066E-003
  0.14180000000000004          5.1271659322082996E-003
  0.14290000000000003          3.9604143239557743E-003
  0.14400000000000002          2.7505930047482252E-003
  0.14510000000000001          1.5035987598821521E-003
  0.14620000000000000          2.2530167188961059E-004
  0.14730000000000004         -1.0784568730741739E-003
  0.14840000000000003         -2.4018585681915283E-003
  0.14950000000000002         -3.7391036748886108E-003
  0.15060000000000001         -5.0844047218561172E-003
  0.15170000000000000         -6.4319702796638012E-003
  0.15280000000000005         -7.7759651467204094E-003
  0.15390000000000004         -9.1104721650481224E-003
  0.15500000000000003         -1.0429446585476398E-002
  0.15610000000000002         -1.1726693250238895E-002
  0.15720000000000001         -1.2995841912925243E-002
  0.15830000000000000         -1.4230317436158657E-002
  0.15940000000000004         -1.5423315577208996E-002
  0.16050000000000003         -1.6567775979638100E-002
  0.16160000000000002         -1.7656372860074043E-002
  0.16270000000000001         -1.8681520596146584E-002
  0.16380000000000000         -1.9635409116744995E-002
  0.16490000000000005         -2.0510023459792137E-002
  0.16600000000000004         -2.1297190338373184E-002
  0.16710000000000003         -2.1988624706864357E-002
  0.16820000000000002         -2.2576022893190384E-002
  0.16930000000000001         -2.3051153868436813E-002
  0.17040000000000000         -2.3405984044075012E-002
  0.17150000000000004         -2.3632775992155075E-002
  0.17260000000000003         -2.3724211379885674E-002
  0.17370000000000002         -2.3673517629504204E-002
  0.17480000000000001         -2.3474616929888725E-002
  0.17590000000000000         -2.3122286424040794E-002
  0.17700000000000005         -2.2612299770116806E-002
  0.17810000000000004         -2.1941559389233589E-002
  0.17920000000000003         -2.1108210086822510E-002
  0.18030000000000002         -2.0111771300435066E-002
  0.18140000000000001         -1.8953245133161545E-002
  0.18250000000000000         -1.7635224387049675E-002
  0.18360000000000004         -1.6161974519491196E-002
  0.18470000000000003         -1.4539448544383049E-002
  0.18580000000000002         -1.2775296345353127E-002
  0.18690000000000001         -1.0878860019147396E-002
  0.18800000000000000         -8.8611636310815811E-003
  0.18910000000000005         -6.7348694428801537E-003
  0.19020000000000004         -4.5141819864511490E-003
  0.19130000000000003         -2.2146992851048708E-003
  0.19240000000000002          1.4675487182103097E-004
  0.19350000000000001          2.5523002259433270E-003
  0.19460000000000005          4.9831680953502655E-003
  0.19570000000000004          7.4198995716869831E-003
  0.19680000000000003          9.8425829783082008E-003
  0.19790000000000002          1.2231130152940750E-002
  0.19900000000000001          1.4565550722181797E-002
  0.20010000000000000          1.6826201230287552E-002
  0.20120000000000005          1.8994016572833061E-002
  0.20230000000000004          2.1050740033388138E-002
  0.20340000000000003          2.2979168221354485E-002
  0.20450000000000002          2.4763416498899460E-002
  0.20560000000000000          2.6389140635728836E-002
  0.20670000000000005          2.7843723073601723E-002
  0.20780000000000004          2.9116382822394371E-002
  0.20890000000000003          3.0198303982615471E-002
