 -0.12000000000000000          0.0000000000000000
 -0.11889999999999999          0.0000000000000000
 -0.11780000000000000          0.0000000000000000
 -0.11670000000000000          0.0000000000000000
 -0.11559999999999999          0.0000000000000000
 -0.11449999999999999          0.0000000000000000
 -0.11340000000000000          0.0000000000000000
 -0.11230000000000000          0.0000000000000000
 -0.11119999999999999          0.0000000000000000
 -0.11009999999999999         -1.3574536649256421E-026
 -0.10900000000000000          4.2071238596639410E-027
 -0.10790000000000000         -1.8970239854081585E-025
 -0.10679999999999999         -3.9906844197361706E-024
 -0.10569999999999999         -1.3579623594151835E-023
 -0.10460000000000000          1.3424888527592734E-023
 -0.10349999999999999          1.6246613062220808E-022
 -0.10239999999999999          1.3768577553513252E-022
 -0.10130000000000000         -1.3419146503726939E-021
 -0.10020000000000000         -4.2536575543996037E-021
  -9.9099999999999994E-002     6.7158235545877165E-022
  -9.7999999999999990E-002     3.1262205576887705E-020
  -9.6899999999999986E-002     6.7105570030641358E-020
  -9.5799999999999996E-002    -3.0249742969471335E-020
  -9.4699999999999993E-002    -4.2962372903538817E-019
  -9.3599999999999989E-002    -8.0203406343747421E-019
  -9.2499999999999999E-002     2.5651806543337339E-019
  -9.1399999999999995E-002     4.0977290910861224E-018
  -9.0299999999999991E-002     7.7138256530683441E-018
  -8.9200000000000002E-002     1.2538447669048835E-019
  -8.8099999999999984E-002    -2.8809178722894856E-017
  -8.6999999999999994E-002    -6.0155604934620567E-017
  -8.5899999999999990E-002    -2.4017915350054980E-017
  -8.4799999999999986E-002     1.5043698219463459E-016
  -8.3699999999999997E-002     3.7891290976482079E-016
  -8.2599999999999993E-002     2.9199351215157749E-016
  -8.1499999999999989E-002    -5.4936937008402296E-016
  -8.0399999999999999E-002    -1.9139185899243747E-015
  -7.9299999999999995E-002    -2.1807365094083210E-015
  -7.8199999999999992E-002     9.8282439891866306E-016
  -7.7100000000000002E-002     7.6099328864798720E-015
  -7.5999999999999984E-002     1.1899592334445926E-014
  -7.4899999999999994E-002     3.4079333017416388E-015
  -7.3799999999999991E-002    -2.2554088588075394E-014
  -7.2699999999999987E-002    -4.9895583677109570E-014
  -7.1599999999999997E-002    -3.9645814165238311E-014
  -7.0499999999999993E-002     4.0415177579361181E-014
  -6.9399999999999989E-002     1.6122911653763256E-013
  -6.8300000000000000E-002     2.0365863672138634E-013
  -6.7199999999999996E-002     2.3565593310829851E-014
  -6.6099999999999992E-002    -3.8120713725421640E-013
  -6.5000000000000002E-002    -7.2413684206948381E-013
  -6.3899999999999985E-002    -5.1544391584806837E-013
  -6.2799999999999995E-002     5.1516522167963097E-013
  -6.1699999999999991E-002     1.8888978922659838E-012
  -6.0599999999999994E-002     2.3014411557054082E-012
  -5.9499999999999990E-002     4.6620200104888210E-013
  -5.8399999999999994E-002    -3.3888675286114500E-012
  -5.7299999999999990E-002    -6.6075387349096015E-012
  -5.6199999999999986E-002    -5.2442525148854724E-012
  -5.5099999999999996E-002     2.5655517207207046E-012
  -5.3999999999999992E-002     1.3188687988940906E-011
  -5.2899999999999989E-002     1.7688945794236410E-011
  -5.1799999999999985E-002     7.6896050291153095E-012
  -5.0699999999999995E-002    -1.5810013020978175E-011
  -4.9599999999999991E-002    -3.8018799913830392E-011
  -4.8499999999999988E-002    -3.7228636839969909E-011
  -4.7399999999999998E-002    -2.0823364733912886E-012
  -4.6299999999999994E-002     5.2479236234415083E-011
  -4.5199999999999990E-002     8.6649624975176920E-011
  -4.4099999999999986E-002     6.1142535479064009E-011
  -4.2999999999999997E-002    -2.6969102298601833E-011
  -4.1899999999999993E-002    -1.2698229967522678E-010
  -4.0799999999999989E-002    -1.5899122296492152E-010
  -3.9699999999999985E-002    -7.3204976802632160E-011
  -3.8599999999999995E-002     9.7089579431663964E-011
  -3.7499999999999992E-002     2.3829099804473231E-010
  -3.6399999999999988E-002     2.2976989755285615E-010
  -3.5299999999999984E-002     4.3640212971096659E-011
  -3.4199999999999994E-002    -2.0927318211683144E-010
  -3.3099999999999991E-002    -3.4140246185643264E-010
  -3.1999999999999987E-002    -2.3043911223652458E-010
  -3.0899999999999997E-002     6.4625603479750993E-011
  -2.9799999999999993E-002     3.2151095674670671E-010
  -2.8699999999999989E-002     3.1994970561832758E-010
  -2.7599999999999986E-002     3.8199665652882686E-011
  -2.6499999999999996E-002    -2.8994265321991008E-010
  -2.5399999999999992E-002    -3.4093625145281692E-010
  -2.4299999999999988E-002     1.0172367288785455E-011
  -2.3199999999999985E-002     5.1518672661288178E-010
  -2.2099999999999995E-002     6.8265548769375073E-010
  -2.0999999999999991E-002     1.7396263596314299E-010
  -1.9899999999999987E-002    -8.2312739957401959E-010
  -1.8799999999999983E-002    -1.5867318570172984E-009
  -1.7699999999999994E-002    -1.3273152577042424E-009
  -1.6599999999999990E-002     1.4880485732504667E-010
  -1.5499999999999986E-002     2.0934580735598729E-009
  -1.4399999999999996E-002     3.1571403269481380E-009
  -1.3299999999999992E-002     2.2987252101813738E-009
  -1.2199999999999989E-002    -3.4333155762844569E-010
  -1.1099999999999985E-002    -3.3159144319228062E-009
  -9.9999999999999950E-003    -4.6914325757541064E-009
  -8.8999999999999913E-003    -3.3917599839838886E-009
  -7.7999999999999875E-003    -4.7774145750523189E-011
  -6.6999999999999837E-003     3.3228619855663055E-009
  -5.5999999999999939E-003     4.6984767188007481E-009
  -4.4999999999999901E-003     3.5173439716373878E-009
  -3.3999999999999864E-003     1.0628551372349193E-009
  -2.2999999999999826E-003    -6.4175659231224813E-010
  -1.1999999999999927E-003    -6.3963734309169240E-010
  -9.9999999999988987E-005    -3.6788447288493842E-011
   1.0000000000000148E-003    -1.1313502357168659E-009
   2.1000000000000185E-003    -5.0801127748911767E-009
   3.2000000000000084E-003    -9.9286792121233702E-009
   4.3000000000000121E-003    -1.0988141951884245E-008
   5.4000000000000159E-003    -4.0150540669969814E-009
   6.5000000000000058E-003     1.0657550397752402E-008
   7.6000000000000234E-003     2.6242707562573742E-008
   8.7000000000000133E-003     3.2148559370170915E-008
   9.8000000000000032E-003     2.0448515769544429E-008
   1.0900000000000021E-002    -7.6493513745390374E-009
   1.2000000000000011E-002    -4.0034606740846357E-008
   1.3100000000000001E-002    -5.8895150090165771E-008
   1.4200000000000018E-002    -5.0658666594927126E-008
   1.5300000000000008E-002    -1.4857409524893228E-008
   1.6400000000000026E-002     3.3909103080986824E-008
   1.7500000000000016E-002     7.2784892779509391E-008
   1.8600000000000005E-002     8.2608650586735166E-008
   1.9700000000000023E-002     5.7990071411495592E-008
   2.0800000000000013E-002     9.6076178124349099E-009
   2.1900000000000003E-002    -4.2250711373981176E-008
   2.3000000000000020E-002    -7.8468339381743135E-008
   2.4100000000000010E-002    -8.9501483557796746E-008
   2.5200000000000000E-002    -7.6944374427512230E-008
   2.6300000000000018E-002    -4.8729049240137101E-008
   2.7400000000000008E-002    -1.2447300079543311E-008
   2.8500000000000025E-002     2.8287379549851721E-008
   2.9600000000000015E-002     7.2542299278666178E-008
   3.0700000000000005E-002     1.1778281816532399E-007
   3.1800000000000023E-002     1.5630851635251020E-007
   3.2900000000000013E-002     1.7486780734543572E-007
   3.4000000000000002E-002     1.5730013558368228E-007
   3.5100000000000020E-002     8.8616545212971687E-008
   3.6200000000000010E-002    -4.0275487833696388E-008
   3.7300000000000028E-002    -2.2640911367943772E-007
   3.8400000000000017E-002    -4.4658790443463658E-007
   3.9500000000000007E-002    -6.4976785552062211E-007
   4.0600000000000025E-002    -7.5651178121916018E-007
   4.1700000000000015E-002    -6.7272310388943879E-007
   4.2800000000000005E-002    -3.1956295742929797E-007
   4.3900000000000022E-002     3.2813522921060212E-007
   4.5000000000000012E-002     1.2105321047783946E-006
   4.6100000000000002E-002     2.1739804196840851E-006
   4.7200000000000020E-002     2.9904670100222575E-006
   4.8300000000000010E-002     3.3969906780839665E-006
   4.9400000000000027E-002     3.1374459013022715E-006
   5.0500000000000017E-002     1.9917083591280971E-006
   5.1600000000000007E-002    -2.1179288012262987E-007
   5.2700000000000025E-002    -3.5920556911150925E-006
   5.3800000000000014E-002    -8.2103024396928959E-006
   5.4900000000000004E-002    -1.4064346032682806E-005
   5.6000000000000022E-002    -2.1097428543725982E-005
   5.7100000000000012E-002    -2.9240482035675086E-005
   5.8200000000000002E-002    -3.8492784369736910E-005
   5.9300000000000019E-002    -4.9019894504453987E-005
   6.0400000000000009E-002    -6.1227809055708349E-005
   6.1500000000000027E-002    -7.5776370067615062E-005
   6.2600000000000017E-002    -9.3526352429762483E-005
   6.3700000000000007E-002    -1.1545635061338544E-004
   6.4800000000000024E-002    -1.4260958414524794E-004
   6.5900000000000014E-002    -1.7611731891520321E-004
   6.7000000000000004E-002    -2.1729932632297277E-004
   6.8100000000000022E-002    -2.6779068866744637E-004
   6.9200000000000012E-002    -3.2962553086690605E-004
   7.0300000000000029E-002    -4.0523722418583930E-004
   7.1400000000000019E-002    -4.9739726819097996E-004
   7.2500000000000009E-002    -6.0916884103789926E-004
   7.3600000000000027E-002    -7.4395764386281371E-004
   7.4700000000000016E-002    -9.0568943414837122E-004
   7.5800000000000006E-002    -1.0990633163601160E-003
   7.6900000000000024E-002    -1.3297718251124024E-003
   7.8000000000000014E-002    -1.6045898664742708E-003
   7.9100000000000004E-002    -1.9313099328428507E-003
   8.0200000000000021E-002    -2.3185994941741228E-003
   8.1300000000000011E-002    -2.7759179938584566E-003
   8.2400000000000029E-002    -3.3136096317321062E-003
   8.3500000000000019E-002    -3.9431937038898468E-003
   8.4600000000000009E-002    -4.6777618117630482E-003
   8.5700000000000026E-002    -5.5323229171335697E-003
   8.6800000000000016E-002    -6.5239612013101578E-003
   8.7900000000000006E-002    -7.6717655174434185E-003
   8.9000000000000024E-002    -8.9965919032692909E-003
   9.0100000000000013E-002    -1.0520792566239834E-002
   9.1200000000000003E-002    -1.2268036603927612E-002
   9.2300000000000021E-002    -1.4263283461332321E-002
   9.3400000000000011E-002    -1.6532875597476959E-002
   9.4500000000000028E-002    -1.9104668870568275E-002
   9.5600000000000018E-002    -2.2008106112480164E-002
   9.6700000000000008E-002    -2.5274144485592842E-002
   9.7800000000000026E-002    -2.8935024514794350E-002
   9.8900000000000016E-002    -3.3023841679096222E-002
  0.10000000000000001         -3.7573926150798798E-002
  0.10110000000000002         -4.2618073523044586E-002
  0.10220000000000001         -4.8187650740146637E-002
  0.10330000000000003         -5.4311692714691162E-002
  0.10440000000000002         -6.1016052961349487E-002
  0.10550000000000001         -6.8322628736495972E-002
  0.10660000000000003         -7.6248697936534882E-002
  0.10770000000000002         -8.4806255996227264E-002
  0.10880000000000001         -9.4001173973083496E-002
  0.10990000000000003        -0.10383212566375732
  0.11100000000000002        -0.11428923159837723
  0.11210000000000001        -0.12535245716571808
  0.11320000000000002        -0.13698999583721161
  0.11430000000000001        -0.14915671944618225
  0.11540000000000003        -0.16179296374320984
  0.11650000000000002        -0.17482373118400574
  0.11760000000000001        -0.18815810978412628
  0.11870000000000003        -0.20168898999691010
  0.11980000000000002        -0.21529288589954376
  0.12090000000000001        -0.22882971167564392
  0.12200000000000003        -0.24214260280132294
  0.12310000000000001        -0.25505790114402771
  0.12420000000000003        -0.26738545298576355
  0.12530000000000002        -0.27891948819160461
  0.12640000000000001        -0.28944021463394165
  0.12750000000000003        -0.29871606826782227
  0.12860000000000002        -0.30650660395622253
  0.12970000000000001        -0.31256583333015442
  0.13080000000000003        -0.31664568185806274
  0.13190000000000002        -0.31849935650825500
  0.13300000000000001        -0.31788516044616699
  0.13410000000000000        -0.31457051634788513
  0.13520000000000004        -0.30833610892295837
  0.13630000000000003        -0.29898104071617126
  0.13740000000000002        -0.28632804751396179
  0.13850000000000001        -0.27022877335548401
  0.13960000000000000        -0.25056904554367065
  0.14070000000000005        -0.22727352380752563
  0.14180000000000004        -0.20030990242958069
  0.14290000000000003        -0.16969269514083862
  0.14400000000000002        -0.13548628985881805
  0.14510000000000001         -9.7807802259922028E-002
  0.14620000000000000         -5.6829117238521576E-002
  0.14730000000000004         -1.2777650728821754E-002
  0.14840000000000003          3.4063279628753662E-002
  0.14950000000000002          8.3355307579040527E-002
  0.15060000000000001         0.13470701873302460
  0.15170000000000000         0.18767663836479187
  0.15280000000000005         0.24177622795104980
  0.15390000000000004         0.29647693037986755
  0.15500000000000003         0.35121509432792664
  0.15610000000000002         0.40539959073066711
  0.15720000000000001         0.45842021703720093
  0.15830000000000000         0.50965642929077148
  0.15940000000000004         0.55848664045333862
  0.16050000000000003         0.60429829359054565
  0.16160000000000002         0.64649724960327148
  0.16270000000000001         0.68451780080795288
  0.16380000000000000         0.71783268451690674
  0.16490000000000005         0.74596232175827026
  0.16600000000000004         0.76848363876342773
  0.16710000000000003         0.78503763675689697
  0.16820000000000002         0.79533606767654419
  0.16930000000000001         0.79916745424270630
  0.17040000000000000         0.79640197753906250
  0.17150000000000004         0.78699523210525513
  0.17260000000000003         0.77099001407623291
  0.17370000000000002         0.74851661920547485
  0.17480000000000001         0.71979135274887085
  0.17590000000000000         0.68511313199996948
  0.17700000000000005         0.64485895633697510
  0.17810000000000004         0.59947782754898071
  0.17920000000000003         0.54948347806930542
  0.18030000000000002         0.49544632434844971
  0.18140000000000001         0.43798440694808960
  0.18250000000000000         0.37775361537933350
  0.18360000000000004         0.31543761491775513
  0.18470000000000003         0.25173720717430115
  0.18580000000000002         0.18735934793949127
  0.18690000000000001         0.12300612777471542
  0.18800000000000000          5.9363767504692078E-002
  0.18910000000000005         -2.9079033993184566E-003
  0.19020000000000004         -6.3185334205627441E-002
  0.19130000000000003        -0.12088973820209503
  0.19240000000000002        -0.17549404501914978
  0.19350000000000001        -0.22652891278266907
  0.19460000000000005        -0.27358746528625488
  0.19570000000000004        -0.31632870435714722
  0.19680000000000003        -0.35448005795478821
  0.19790000000000002        -0.38783884048461914
  0.19900000000000001        -0.41627225279808044
  0.20010000000000000        -0.43971589207649231
  0.20120000000000005        -0.45817127823829651
  0.20230000000000004        -0.47170215845108032
  0.20340000000000003        -0.48042967915534973
  0.20450000000000002        -0.48452726006507874
  0.20560000000000000        -0.48421460390090942
  0.20670000000000005        -0.47975116968154907
  0.20780000000000004        -0.47142931818962097
  0.20890000000000003        -0.45956704020500183
