 -0.12000000000000000          0.0000000000000000
 -0.11889999999999999          0.0000000000000000
 -0.11780000000000000          0.0000000000000000
 -0.11670000000000000          0.0000000000000000
 -0.11559999999999999         -5.7305228270965181E-012
 -0.11449999999999999         -1.6550609840959574E-011
 -0.11340000000000000          5.4211867633879862E-011
 -0.11230000000000000          4.1077427570535008E-010
 -0.11119999999999999          1.0219093349306263E-009
 -0.11009999999999999          9.1887703002058174E-010
 -0.10900000000000000         -1.7414353292721785E-009
 -0.10790000000000000         -7.4522450432823462E-009
 -0.10679999999999999         -1.1889444095913859E-008
 -0.10569999999999999         -5.7704823142046280E-009
 -0.10460000000000000          1.7471137425673078E-008
 -0.10349999999999999          4.9112628630609834E-008
 -0.10239999999999999          6.0467208129466599E-008
 -0.10130000000000000          1.9088016500745653E-008
 -0.10020000000000000         -7.7743230519899953E-008
  -9.9099999999999994E-002    -1.7868259760689398E-007
  -9.7999999999999990E-002    -1.9485101176996977E-007
  -9.6899999999999986E-002    -6.2053906901837763E-008
  -9.5799999999999996E-002     1.9018570185380668E-007
  -9.4699999999999993E-002     4.2338982098044653E-007
  -9.3599999999999989E-002     4.6063183845035383E-007
  -9.2499999999999999E-002     2.0915210541261331E-007
  -9.1399999999999995E-002    -2.4999334868880396E-007
  -9.0299999999999991E-002    -6.8042800194234587E-007
  -8.9200000000000002E-002    -8.2059813166779350E-007
  -8.8099999999999984E-002    -5.4663883020111825E-007
  -8.6999999999999994E-002     4.0876113160948080E-008
  -8.5899999999999990E-002     6.6703432821668684E-007
  -8.4799999999999986E-002     1.0368618177380995E-006
  -8.3699999999999997E-002     9.9007843346043956E-007
  -8.2599999999999993E-002     5.5790917485865066E-007
  -8.1499999999999989E-002    -9.6117048542510020E-008
  -8.0399999999999999E-002    -7.7638884476982639E-007
  -7.9299999999999995E-002    -1.2985269677301403E-006
  -7.8199999999999992E-002    -1.4579318303731270E-006
  -7.7100000000000002E-002    -1.0230052112092380E-006
  -7.5999999999999984E-002     1.2400836624237854E-007
  -7.4899999999999994E-002     1.7212616967299255E-006
  -7.3799999999999991E-002     2.9789334803353995E-006
  -7.2699999999999987E-002     2.8480537821451435E-006
  -7.1599999999999997E-002     7.3587148108344991E-007
  -7.0499999999999993E-002    -2.7677153866534354E-006
  -6.9399999999999989E-002    -5.8287532738177106E-006
  -6.8300000000000000E-002    -6.3080251493374817E-006
  -6.7199999999999996E-002    -3.2330258363799658E-006
  -6.6099999999999992E-002     2.2849035303806886E-006
  -6.5000000000000002E-002     7.5552429734671023E-006
  -6.3899999999999985E-002     1.0035369996330701E-005
  -6.2799999999999995E-002     8.9957184172817506E-006
  -6.1699999999999991E-002     5.7492075029585976E-006
  -6.0599999999999994E-002     2.2062663447286468E-006
  -5.9499999999999990E-002    -1.0373777286076802E-006
  -5.8399999999999994E-002    -5.4368933888326865E-006
  -5.7299999999999990E-002    -1.3464443327393383E-005
  -5.6199999999999986E-002    -2.6822384825209156E-005
  -5.5099999999999996E-002    -4.5571941882371902E-005
  -5.3999999999999992E-002    -6.8893459683749825E-005
  -5.2899999999999989E-002    -9.6571704489178956E-005
  -5.1799999999999985E-002    -1.2964103370904922E-004
  -5.0699999999999995E-002    -1.6960687935352325E-004
  -4.9599999999999991E-002    -2.1725553961005062E-004
  -4.8499999999999988E-002    -2.7256668545305729E-004
  -4.7399999999999998E-002    -3.3606798388063908E-004
  -4.6299999999999994E-002    -4.1036377660930157E-004
  -4.5199999999999990E-002    -5.0031283171847463E-004
  -4.4099999999999986E-002    -6.1178655596449971E-004
  -4.2999999999999997E-002    -7.5053400360047817E-004
  -4.1899999999999993E-002    -9.2254864284768701E-004
  -4.0799999999999989E-002    -1.1354633606970310E-003
  -3.9699999999999985E-002    -1.3989814324304461E-003
  -3.8599999999999995E-002    -1.7231819219887257E-003
  -3.7499999999999992E-002    -2.1161995828151703E-003
  -3.6399999999999988E-002    -2.5843840558081865E-003
  -3.5299999999999984E-002    -3.1363461166620255E-003
  -3.4199999999999994E-002    -3.7883473560214043E-003
  -3.3099999999999991E-002    -4.5662098564207554E-003
  -3.1999999999999987E-002    -5.5012409575283527E-003
  -3.0899999999999997E-002    -6.6230380907654762E-003
  -2.9799999999999993E-002    -7.9555194824934006E-003
  -2.8699999999999989E-002    -9.5203379169106483E-003
  -2.7599999999999986E-002    -1.1345465667545795E-002
  -2.6499999999999996E-002    -1.3471968472003937E-002
  -2.5399999999999992E-002    -1.5953520312905312E-002
  -2.4299999999999988E-002    -1.8849756568670273E-002
  -2.3199999999999985E-002    -2.2219885140657425E-002
  -2.2099999999999995E-002    -2.6122136041522026E-002
  -2.0999999999999991E-002    -3.0618613585829735E-002
  -1.9899999999999987E-002    -3.5780027508735657E-002
  -1.8799999999999983E-002    -4.1685823351144791E-002
  -1.7699999999999994E-002    -4.8420824110507965E-002
  -1.6599999999999990E-002    -5.6073017418384552E-002
  -1.5499999999999986E-002    -6.4735747873783112E-002
  -1.4399999999999996E-002    -7.4511781334877014E-002
  -1.3299999999999992E-002    -8.5513442754745483E-002
  -1.2199999999999989E-002    -9.7856678068637848E-002
  -1.1099999999999985E-002   -0.11165288090705872
  -9.9999999999999950E-003   -0.12700533866882324
  -8.8999999999999913E-003   -0.14401218295097351
  -7.7999999999999875E-003   -0.16277100145816803
  -6.6999999999999837E-003   -0.18337911367416382
  -5.5999999999999939E-003   -0.20592761039733887
  -4.4999999999999901E-003   -0.23049437999725342
  -3.3999999999999864E-003   -0.25714257359504700
  -2.2999999999999826E-003   -0.28592237830162048
  -1.1999999999999927E-003   -0.31687033176422119
  -9.9999999999988987E-005   -0.34999945759773254
   1.0000000000000148E-003   -0.38528192043304443
   2.1000000000000185E-003   -0.42263823747634888
   3.2000000000000084E-003   -0.46194022893905640
   4.3000000000000121E-003   -0.50302392244338989
   5.4000000000000159E-003   -0.54569905996322632
   6.5000000000000058E-003   -0.58974289894104004
   7.6000000000000234E-003   -0.63488340377807617
   8.7000000000000133E-003   -0.68078398704528809
   9.8000000000000032E-003   -0.72704100608825684
   1.0900000000000021E-002   -0.77319216728210449
   1.2000000000000011E-002   -0.81872308254241943
   1.3100000000000001E-002   -0.86306405067443848
   1.4200000000000018E-002   -0.90558320283889771
   1.5300000000000008E-002   -0.94558739662170410
   1.6400000000000026E-002   -0.98233544826507568
   1.7500000000000016E-002    -1.0150610208511353
   1.8600000000000005E-002    -1.0429888963699341
   1.9700000000000023E-002    -1.0653322935104370
   2.0800000000000013E-002    -1.0812845230102539
   2.1900000000000003E-002    -1.0900222063064575
   2.3000000000000020E-002    -1.0907199382781982
   2.4100000000000010E-002    -1.0825755596160889
   2.5200000000000000E-002    -1.0648342370986938
   2.6300000000000018E-002    -1.0368067026138306
   2.7400000000000008E-002   -0.99788373708724976
   2.8500000000000025E-002   -0.94754636287689209
   2.9600000000000015E-002   -0.88538569211959839
   3.0700000000000005E-002   -0.81112420558929443
   3.1800000000000023E-002   -0.72462558746337891
   3.2900000000000013E-002   -0.62589716911315918
   3.4000000000000002E-002   -0.51509016752243042
   3.5100000000000020E-002   -0.39251571893692017
   3.6200000000000010E-002   -0.25866386294364929
   3.7300000000000028E-002   -0.11421936005353928
   3.8400000000000017E-002     3.9941687136888504E-002
   3.9500000000000007E-002    0.20277504622936249
   4.0600000000000025E-002    0.37307694554328918
   4.1700000000000015E-002    0.54947811365127563
   4.2800000000000005E-002    0.73044013977050781
   4.3900000000000022E-002    0.91427206993103027
   4.5000000000000012E-002     1.0991644859313965
   4.6100000000000002E-002     1.2832354307174683
   4.7200000000000020E-002     1.4645656347274780
   4.8300000000000010E-002     1.6412086486816406
   4.9400000000000027E-002     1.8111917972564697
   5.0500000000000017E-002     1.9725311994552612
   5.1600000000000007E-002     2.1232802867889404
   5.2700000000000025E-002     2.2615921497344971
   5.3800000000000014E-002     2.3857645988464355
   5.4900000000000004E-002     2.4942557811737061
   5.6000000000000022E-002     2.5856797695159912
   5.7100000000000012E-002     2.6588158607482910
   5.8200000000000002E-002     2.7126479148864746
   5.9300000000000019E-002     2.7464153766632080
   6.0400000000000009E-002     2.7596454620361328
   6.1500000000000027E-002     2.7521479129791260
   6.2600000000000017E-002     2.7239897251129150
   6.3700000000000007E-002     2.6754796504974365
   6.4800000000000024E-002     2.6071767807006836
   6.5900000000000014E-002     2.5199053287506104
   6.7000000000000004E-002     2.4147472381591797
   6.8100000000000022E-002     2.2930083274841309
   6.9200000000000012E-002     2.1561772823333740
   7.0300000000000029E-002     2.0059025287628174
   7.1400000000000019E-002     1.8439847230911255
   7.2500000000000009E-002     1.6723618507385254
   7.3600000000000027E-002     1.4930641651153564
   7.4700000000000016E-002     1.3081539869308472
   7.5800000000000006E-002     1.1196781396865845
   7.6900000000000024E-002    0.92965245246887207
   7.8000000000000014E-002    0.74005722999572754
   7.9100000000000004E-002    0.55281955003738403
   8.0200000000000021E-002    0.36975818872451782
   8.1300000000000011E-002    0.19251553714275360
   8.2400000000000029E-002     2.2533969953656197E-002
   8.3500000000000019E-002   -0.13892626762390137
   8.4600000000000009E-002   -0.29075080156326294
   8.5700000000000026E-002   -0.43196788430213928
   8.6800000000000016E-002   -0.56179612874984741
   8.7900000000000006E-002   -0.67970097064971924
   8.9000000000000024E-002   -0.78541046380996704
   9.0100000000000013E-002   -0.87887126207351685
   9.1200000000000003E-002   -0.96017152070999146
   9.2300000000000021E-002    -1.0295054912567139
   9.3400000000000011E-002    -1.0872057676315308
   9.4500000000000028E-002    -1.1337813138961792
   9.5600000000000018E-002    -1.1699168682098389
   9.6700000000000008E-002    -1.1964085102081299
   9.7800000000000026E-002    -1.2140756845474243
   9.8900000000000016E-002    -1.2237251996994019
  0.10000000000000001         -1.2261737585067749
  0.10110000000000002         -1.2222870588302612
  0.10220000000000001         -1.2129815816879272
  0.10330000000000003         -1.1991686820983887
  0.10440000000000002         -1.1816859245300293
  0.10550000000000001         -1.1612660884857178
  0.10660000000000003         -1.1385629177093506
  0.10770000000000002         -1.1141923666000366
  0.10880000000000001         -1.0887291431427002
  0.10990000000000003         -1.0626662969589233
  0.11100000000000002         -1.0363786220550537
  0.11210000000000001         -1.0101269483566284
  0.11320000000000002        -0.98410308361053467
  0.11430000000000001        -0.95846492052078247
  0.11540000000000003        -0.93332922458648682
  0.11650000000000002        -0.90873366594314575
  0.11760000000000001        -0.88462007045745850
  0.11870000000000003        -0.86087083816528320
  0.11980000000000002        -0.83736979961395264
  0.12090000000000001        -0.81402981281280518
  0.12200000000000003        -0.79075968265533447
  0.12310000000000001        -0.76741033792495728
  0.12420000000000003        -0.74376660585403442
  0.12530000000000002        -0.71960669755935669
  0.12640000000000001        -0.69478034973144531
  0.12750000000000003        -0.66923063993453979
  0.12860000000000002        -0.64294129610061646
  0.12970000000000001        -0.61586356163024902
  0.13080000000000003        -0.58789968490600586
  0.13190000000000002        -0.55896490812301636
  0.13300000000000001        -0.52906692028045654
  0.13410000000000000        -0.49832379817962646
  0.13520000000000004        -0.46689870953559875
  0.13630000000000003        -0.43491426110267639
  0.13740000000000002        -0.40242972970008850
  0.13850000000000001        -0.36950001120567322
  0.13960000000000000        -0.33625519275665283
  0.14070000000000005        -0.30291810631752014
  0.14180000000000004        -0.26974213123321533
  0.14290000000000003        -0.23693321645259857
  0.14400000000000002        -0.20462992787361145
  0.14510000000000001        -0.17295204102993011
  0.14620000000000000        -0.14206026494503021
  0.14730000000000004        -0.11216194182634354
  0.14840000000000003         -8.3456397056579590E-002
  0.14950000000000002         -5.6079238653182983E-002
  0.15060000000000001         -3.0102679505944252E-002
  0.15170000000000000         -5.5854460224509239E-003
  0.15280000000000005          1.7385456711053848E-002
  0.15390000000000004          3.8708202540874481E-002
  0.15500000000000003          5.8316223323345184E-002
  0.15610000000000002          7.6206915080547333E-002
  0.15720000000000001          9.2413552105426788E-002
  0.15830000000000000         0.10694978386163712
  0.15940000000000004         0.11979140341281891
  0.16050000000000003         0.13091953098773956
  0.16160000000000002         0.14038111269474030
  0.16270000000000001         0.14829811453819275
  0.16380000000000000         0.15480935573577881
  0.16490000000000005         0.16000178456306458
  0.16600000000000004         0.16390079259872437
  0.16710000000000003         0.16653081774711609
  0.16820000000000002         0.16798608005046844
  0.16930000000000001         0.16843402385711670
  0.17040000000000000         0.16804127395153046
  0.17150000000000004         0.16689631342887878
  0.17260000000000003         0.16500678658485413
  0.17370000000000002         0.16237691044807434
  0.17480000000000001         0.15908825397491455
  0.17590000000000000         0.15530285239219666
  0.17700000000000005         0.15118677914142609
  0.17810000000000004         0.14682899415493011
  0.17920000000000003         0.14223483204841614
  0.18030000000000002         0.13739575445652008
  0.18140000000000001         0.13236112892627716
  0.18250000000000000         0.12724007666110992
  0.18360000000000004         0.12213592976331711
  0.18470000000000003         0.11708510667085648
  0.18580000000000002         0.11206346005201340
  0.18690000000000001         0.10704844444990158
  0.18800000000000000         0.10207115858793259
  0.18910000000000005          9.7206272184848785E-002
  0.19020000000000004          9.2515647411346436E-002
  0.19130000000000003          8.8009901344776154E-002
  0.19240000000000002          8.3666332066059113E-002
  0.19350000000000001          7.9478047788143158E-002
  0.19460000000000005          7.5475841760635376E-002
  0.19570000000000004          7.1697704493999481E-002
  0.19680000000000003          6.8142950534820557E-002
  0.19790000000000002          6.4766816794872284E-002
  0.19900000000000001          6.1526048928499222E-002
  0.20010000000000000          5.8426711708307266E-002
  0.20120000000000005          5.5519603192806244E-002
  0.20230000000000004          5.2843887358903885E-002
  0.20340000000000003          5.0378460437059402E-002
  0.20450000000000002          4.8056554049253464E-002
  0.20560000000000000          4.5831866562366486E-002
  0.20670000000000005          4.3727193027734756E-002
  0.20780000000000004          4.1811451315879822E-002
  0.20890000000000003          4.0124565362930298E-002
