 -0.12000000000000000          0.0000000000000000
 -0.11889999999999999          0.0000000000000000
 -0.11780000000000000          0.0000000000000000
 -0.11670000000000000          0.0000000000000000
 -0.11559999999999999          0.0000000000000000
 -0.11449999999999999          0.0000000000000000
 -0.11340000000000000          0.0000000000000000
 -0.11230000000000000          0.0000000000000000
 -0.11119999999999999          0.0000000000000000
 -0.11009999999999999          0.0000000000000000
 -0.10900000000000000         -1.1999606191407425E-018
 -0.10790000000000000         -8.4430314783529878E-019
 -0.10679999999999999          3.7873572767761193E-017
 -0.10569999999999999          8.3299807453943961E-017
 -0.10460000000000000         -6.1791821125809659E-016
 -0.10349999999999999         -3.3643039051779906E-015
 -0.10239999999999999         -2.5939111342659698E-015
 -0.10130000000000000          2.7725265388644366E-014
 -0.10020000000000000          1.0383272746380262E-013
  -9.9099999999999994E-002     7.4336478812775386E-014
  -9.7999999999999990E-002    -5.1360933735200565E-013
  -9.6899999999999986E-002    -1.7787285316525625E-012
  -9.5799999999999996E-002    -1.5093344326103098E-012
  -9.4699999999999993E-002     5.6979690063463373E-012
  -9.3599999999999989E-002     2.0906146605548237E-011
  -9.2499999999999999E-002     2.2228628659970440E-011
  -9.1399999999999995E-002    -4.0452943078639336E-011
  -9.0299999999999991E-002    -1.8267043433439767E-010
  -8.9200000000000002E-002    -2.4462001868563732E-010
  -8.8099999999999984E-002     1.5275949949433709E-010
  -8.6999999999999994E-002     1.2073956279223808E-009
  -8.5899999999999990E-002     2.0370012343562394E-009
  -8.4799999999999986E-002     2.7286314874253037E-010
  -8.3699999999999997E-002    -5.9317093459299031E-009
  -8.2599999999999993E-002    -1.2993671916206040E-008
  -8.1499999999999989E-002    -8.6972544721675149E-009
  -8.0399999999999999E-002     1.9938982021017182E-008
  -7.9299999999999995E-002     6.3797408245136467E-008
  -7.8199999999999992E-002     7.1397749934476451E-008
  -7.7100000000000002E-002    -2.8623000858374326E-008
  -7.5999999999999984E-002    -2.3728168230263691E-007
  -7.4899999999999994E-002    -3.8156522919052804E-007
  -7.3799999999999991E-002    -1.4761960187570367E-007
  -7.2699999999999987E-002     6.2199796957429498E-007
  -7.1599999999999997E-002     1.4926930589354015E-006
  -7.0499999999999993E-002     1.3512179748431663E-006
  -6.9399999999999989E-002    -8.0039711747303954E-007
  -6.8300000000000000E-002    -4.3273494156892411E-006
  -6.7199999999999996E-002    -6.0717416090483312E-006
  -6.6099999999999992E-002    -1.9506808257574448E-006
  -6.5000000000000002E-002     8.6521504272241145E-006
  -6.3899999999999985E-002     1.8833638023352250E-005
  -6.2799999999999995E-002     1.5984931451384909E-005
  -6.1699999999999991E-002    -7.7285558290896006E-006
  -6.0599999999999994E-002    -4.2031351767946035E-005
  -5.9499999999999990E-002    -5.6373479310423136E-005
  -5.8399999999999994E-002    -2.0094179490115494E-005
  -5.7299999999999990E-002     6.2646999140270054E-005
  -5.6199999999999986E-002     1.3373454567044973E-004
  -5.5099999999999996E-002     1.1059069947805256E-004
  -5.3999999999999992E-002    -3.8070262235123664E-005
  -5.2899999999999989E-002    -2.2769214410800487E-004
  -5.1799999999999985E-002    -2.8426415519788861E-004
  -5.0699999999999995E-002    -8.4475170297082514E-005
  -4.9599999999999991E-002     2.8418216970749199E-004
  -4.8499999999999988E-002     5.1234877901151776E-004
  -4.7399999999999998E-002     2.9870073194615543E-004
  -4.6299999999999994E-002    -3.1200252124108374E-004
  -4.5199999999999990E-002    -8.0926407827064395E-004
  -4.4099999999999986E-002    -5.6525849504396319E-004
  -4.2999999999999997E-002     5.0188106251880527E-004
  -4.1899999999999993E-002     1.5423122094944119E-003
  -4.0799999999999989E-002     1.2532446999102831E-003
  -3.9699999999999985E-002    -8.6267554434016347E-004
  -3.8599999999999995E-002    -3.4644159022718668E-003
  -3.7499999999999992E-002    -3.8362725172191858E-003
  -3.6399999999999988E-002    -1.1756319872802123E-004
  -3.5299999999999984E-002     6.2147597782313824E-003
  -3.4199999999999994E-002     1.0124982334673405E-002
  -3.3099999999999991E-002     6.3701244071125984E-003
  -3.1999999999999987E-002    -5.3718732669949532E-003
  -3.0899999999999997E-002    -1.7973996698856354E-002
  -2.9799999999999993E-002    -2.0493764430284500E-002
  -2.8699999999999989E-002    -6.8269399926066399E-003
  -2.7599999999999986E-002     1.7064519226551056E-002
  -2.6499999999999996E-002     3.4628309309482574E-002
  -2.5399999999999992E-002     3.0213519930839539E-002
  -2.4299999999999988E-002     2.8100560884922743E-003
  -2.3199999999999985E-002    -3.0004085972905159E-002
  -2.2099999999999995E-002    -4.3860048055648804E-002
  -2.0999999999999991E-002    -2.7697984129190445E-002
  -1.9899999999999987E-002     4.8811500892043114E-003
  -1.8799999999999983E-002     2.5525629520416260E-002
  -1.7699999999999994E-002     1.6977559775114059E-002
  -1.6599999999999990E-002    -7.4276463128626347E-003
  -1.5499999999999986E-002    -1.1971783824265003E-002
  -1.4399999999999996E-002     2.6629731059074402E-002
  -1.3299999999999992E-002     8.6281165480613708E-002
  -1.2199999999999989E-002    0.10341576486825943
  -1.1099999999999985E-002     2.2453606128692627E-002
  -9.9999999999999950E-003   -0.14272336661815643
  -8.8999999999999913E-003   -0.29060599207878113
  -7.7999999999999875E-003   -0.28817269206047058
  -6.6999999999999837E-003    -7.3241017758846283E-002
  -5.5999999999999939E-003    0.27279710769653320
  -4.4999999999999901E-003    0.54938119649887085
  -3.3999999999999864E-003    0.55821734666824341
  -2.2999999999999826E-003    0.24304726719856262
  -1.1999999999999927E-003   -0.25562557578086853
  -9.9999999999988987E-005   -0.67815673351287842
   1.0000000000000148E-003   -0.80494409799575806
   2.1000000000000185E-003   -0.58366709947586060
   3.2000000000000084E-003   -0.13667517900466919
   4.3000000000000121E-003    0.34385007619857788
   5.4000000000000159E-003    0.71794325113296509
   6.5000000000000058E-003    0.93670600652694702
   7.6000000000000234E-003    0.98004597425460815
   8.7000000000000133E-003    0.77546638250350952
   9.8000000000000032E-003    0.20801307260990143
   1.0900000000000021E-002   -0.74562096595764160
   1.2000000000000011E-002    -1.8519402742385864
   1.3100000000000001E-002    -2.5877268314361572
   1.4200000000000018E-002    -2.3448610305786133
   1.5300000000000008E-002   -0.81404137611389160
   1.6400000000000026E-002     1.6746685504913330
   1.7500000000000016E-002     4.1150431632995605
   1.8600000000000005E-002     5.2122645378112793
   1.9700000000000023E-002     4.0586767196655273
   2.0800000000000013E-002    0.73971050977706909
   2.1900000000000003E-002    -3.5189654827117920
   2.3000000000000020E-002    -6.8339972496032715
   2.4100000000000010E-002    -7.5794343948364258
   2.5200000000000000E-002    -5.2401142120361328
   2.6300000000000018E-002   -0.69721734523773193
   2.7400000000000008E-002     4.2365665435791016
   2.8500000000000025E-002     7.7421164512634277
   2.9600000000000015E-002     8.7931108474731445
   3.0700000000000005E-002     7.3597555160522461
   3.1800000000000023E-002     4.0151228904724121
   3.2900000000000013E-002   -0.59291630983352661
   3.4000000000000002E-002    -5.8721165657043457
   3.5100000000000020E-002    -10.910113334655762
   3.6200000000000010E-002    -14.068313598632812
   3.7300000000000028E-002    -13.234418869018555
   3.8400000000000017E-002    -6.9792609214782715
   3.9500000000000007E-002     3.9722526073455811
   4.0600000000000025E-002     16.100202560424805
   4.1700000000000015E-002     24.135225296020508
   4.2800000000000005E-002     23.576732635498047
   4.3900000000000022E-002     13.337677955627441
   4.5000000000000012E-002    -3.1559910774230957
   4.6100000000000002E-002    -19.265439987182617
   4.7200000000000020E-002    -28.234161376953125
   4.8300000000000010E-002    -26.364408493041992
   4.9400000000000027E-002    -14.549792289733887
   5.0500000000000017E-002     2.5097355842590332
   5.1600000000000007E-002     18.726772308349609
   5.2700000000000025E-002     29.215274810791016
   5.3800000000000014E-002     31.775663375854492
   5.4900000000000004E-002     26.870498657226562
   5.6000000000000022E-002     16.576112747192383
   5.7100000000000012E-002     3.3844738006591797
   5.8200000000000002E-002    -10.477630615234375
   5.9300000000000019E-002    -23.080009460449219
   6.0400000000000009E-002    -32.529987335205078
   6.1500000000000027E-002    -36.964603424072266
   6.2600000000000017E-002    -35.139270782470703
   6.3700000000000007E-002    -27.489959716796875
   6.4800000000000024E-002    -17.074060440063477
   6.5900000000000014E-002    -9.6247930526733398
   6.7000000000000004E-002    -12.283349037170410
   6.8100000000000022E-002    -31.269729614257812
   6.9200000000000012E-002    -69.437637329101562
   7.0300000000000029E-002    -124.84720611572266
   7.1400000000000019E-002    -191.09622192382812
   7.2500000000000009E-002    -259.46029663085938
   7.3600000000000027E-002    -322.26617431640625
   7.4700000000000016E-002    -376.61264038085938
   7.5800000000000006E-002    -427.30972290039062
   7.6900000000000024E-002    -487.74322509765625
   7.8000000000000014E-002    -577.52410888671875
   7.9100000000000004E-002    -716.74102783203125
   8.0200000000000021E-002    -918.64916992187500
   8.1300000000000011E-002    -1184.5072021484375
   8.2400000000000029E-002    -1504.3515625000000
   8.3500000000000019E-002    -1864.8323974609375
   8.4600000000000009E-002    -2260.8591308593750
   8.5700000000000026E-002    -2704.4572753906250
   8.6800000000000016E-002    -3225.1638183593750
   8.7900000000000006E-002    -3860.9558105468750
   8.9000000000000024E-002    -4645.0146484375000
   9.0100000000000013E-002    -5596.9067382812500
   9.1200000000000003E-002    -6723.8583984375000
   9.2300000000000021E-002    -8031.6616210937500
   9.3400000000000011E-002    -9537.6806640625000
   9.4500000000000028E-002    -11277.547851562500
   9.5600000000000018E-002    -13301.208984375000
   9.6700000000000008E-002    -15661.920898437500
   9.7800000000000026E-002    -18404.654296875000
   9.8900000000000016E-002    -21563.607421875000
  0.10000000000000001         -25167.335937500000
  0.10110000000000002         -29250.136718750000
  0.10220000000000001         -33862.207031250000
  0.10330000000000003         -39069.511718750000
  0.10440000000000002         -44946.925781250000
  0.10550000000000001         -51567.746093750000
  0.10660000000000003         -58995.320312500000
  0.10770000000000002         -67283.695312500000
  0.10880000000000001         -76482.406250000000
  0.10990000000000003         -86645.015625000000
  0.11100000000000002         -97831.062500000000
  0.11210000000000001         -110101.53906250000
  0.11320000000000002         -123500.30468750000
  0.11430000000000001         -138056.07812500000
  0.11540000000000003         -153780.48437500000
  0.11650000000000002         -170674.76562500000
  0.11760000000000001         -188749.14062500000
  0.11870000000000003         -208015.95312500000
  0.11980000000000002         -228470.01562500000
  0.12090000000000001         -250070.60937500000
  0.12200000000000003         -272718.00000000000
  0.12310000000000001         -296263.68750000000
  0.12420000000000003         -320536.93750000000
  0.12530000000000002         -345366.84375000000
  0.12640000000000001         -370590.25000000000
  0.12750000000000003         -396036.90625000000
  0.12860000000000002         -421485.56250000000
  0.12970000000000001         -446658.96875000000
  0.13080000000000003         -471202.81250000000
  0.13190000000000002         -494687.09375000000
  0.13300000000000001         -516677.06250000000
  0.13410000000000000         -536719.25000000000
  0.13520000000000004         -554419.12500000000
  0.13630000000000003         -569367.62500000000
  0.13740000000000002         -581139.93750000000
  0.13850000000000001         -589297.50000000000
  0.13960000000000000         -593303.18750000000
  0.14070000000000005         -592616.18750000000
  0.14180000000000004         -586656.18750000000
  0.14290000000000003         -574951.12500000000
  0.14400000000000002         -557063.81250000000
  0.14510000000000001         -532674.50000000000
  0.14620000000000000         -501507.40625000000
  0.14730000000000004         -463312.59375000000
  0.14840000000000003         -417837.34375000000
  0.14950000000000002         -364885.78125000000
  0.15060000000000001         -304330.90625000000
  0.15170000000000000         -236241.37500000000
  0.15280000000000005         -160761.00000000000
  0.15390000000000004         -78199.109375000000
  0.15500000000000003          11042.735351562500
  0.15610000000000002          106525.49218750000
  0.15720000000000001          207679.37500000000
  0.15830000000000000          313845.78125000000
  0.15940000000000004          424171.03125000000
  0.16050000000000003          537712.68750000000
  0.16160000000000002          653395.25000000000
  0.16270000000000001          770104.75000000000
  0.16380000000000000          886644.43750000000
  0.16490000000000005          1001824.8125000000
  0.16600000000000004          1114390.2500000000
  0.16710000000000003          1223007.8750000000
  0.16820000000000002          1326313.1250000000
  0.16930000000000001          1422900.2500000000
  0.17040000000000000          1511456.1250000000
  0.17150000000000004          1590720.8750000000
  0.17260000000000003          1659537.2500000000
  0.17370000000000002          1716844.5000000000
  0.17480000000000001          1761685.7500000000
  0.17590000000000000          1793223.8750000000
  0.17700000000000005          1810759.6250000000
  0.17810000000000004          1813753.3750000000
  0.17920000000000003          1801832.3750000000
  0.18030000000000002          1774794.8750000000
  0.18140000000000001          1732652.5000000000
  0.18250000000000000          1675631.5000000000
  0.18360000000000004          1604179.3750000000
  0.18470000000000003          1518909.3750000000
  0.18580000000000002          1420573.5000000000
  0.18690000000000001          1310136.8750000000
  0.18800000000000000          1188700.0000000000
  0.18910000000000005          1057529.2500000000
  0.19020000000000004          917998.43750000000
  0.19130000000000003          771690.43750000000
  0.19240000000000002          620156.18750000000
  0.19350000000000001          465027.78125000000
  0.19460000000000005          307964.21875000000
  0.19570000000000004          150597.35937500000
  0.19680000000000003         -5424.4311523437500
  0.19790000000000002         -158396.29687500000
  0.19900000000000001         -306690.56250000000
  0.20010000000000000         -448828.68750000000
  0.20120000000000005         -583457.75000000000
  0.20230000000000004         -709499.56250000000
  0.20340000000000003         -825917.62500000000
  0.20450000000000002         -931694.06250000000
  0.20560000000000000         -1025976.8750000000
  0.20670000000000005         -1108123.3750000000
  0.20780000000000004         -1177732.2500000000
  0.20890000000000003         -1234603.2500000000
