 -0.12000000000000000          0.0000000000000000
 -0.11889999999999999          0.0000000000000000
 -0.11780000000000000          0.0000000000000000
 -0.11670000000000000          0.0000000000000000
 -0.11559999999999999          3.7942774697807379E-019
 -0.11449999999999999         -8.7149774444874525E-019
 -0.11340000000000000         -6.2961274186586104E-018
 -0.11230000000000000          6.9838412440321348E-018
 -0.11119999999999999         -3.2856063916859488E-017
 -0.11009999999999999         -1.6565574227196081E-016
 -0.10900000000000000         -2.1473216618266248E-017
 -0.10790000000000000          5.0213696006055106E-016
 -0.10679999999999999          7.7178009176561514E-017
 -0.10569999999999999         -1.5012410675276457E-015
 -0.10460000000000000         -1.6226580524397478E-015
 -0.10349999999999999          1.0485126510111813E-015
 -0.10239999999999999          2.5055149876487479E-015
 -0.10130000000000000          2.0198476832750502E-015
 -0.10020000000000000         -1.0121837043649759E-014
  -9.9099999999999994E-002    -2.2263522405849279E-014
  -9.7999999999999990E-002    -4.7794952132314272E-015
  -9.6899999999999986E-002     2.8245889107476538E-014
  -9.5799999999999996E-002     3.7959236041983438E-014
  -9.4699999999999993E-002     1.4647198655782373E-014
  -9.3599999999999989E-002    -1.8378185664925592E-014
  -9.2499999999999999E-002    -4.1690219662994868E-014
  -9.1399999999999995E-002    -3.3919539404883917E-014
  -9.0299999999999991E-002     3.2131225848400224E-014
  -8.9200000000000002E-002     2.8245882331212960E-014
  -8.8099999999999984E-002    -1.0607512183078219E-014
  -8.6999999999999994E-002    -1.8378190747123276E-014
  -8.5899999999999990E-002    -6.1845426241151358E-014
  -8.4799999999999986E-002    -1.9835194142552026E-014
  -8.3699999999999997E-002    -3.5376551270642140E-014
  -8.2599999999999993E-002     2.6788882323915998E-014
  -8.1499999999999989E-002     3.1430400274611026E-013
  -8.0399999999999999E-002     6.6981251274633724E-013
  -7.9299999999999995E-002     7.3780592095909481E-013
  -7.8199999999999992E-002    -1.0142739106282564E-013
  -7.7100000000000002E-002    -1.6866458316805444E-012
  -7.5999999999999984E-002    -2.4637136948613136E-012
  -7.4899999999999994E-002    -6.4537492103916572E-013
  -7.3799999999999991E-002     3.0612387624806559E-012
  -7.2699999999999987E-002     5.0272203934442761E-012
  -7.1599999999999997E-002     2.0432798248509743E-012
  -7.0499999999999993E-002    -4.9969551066397777E-012
  -6.9399999999999989E-002    -9.9546482168477723E-012
  -6.8300000000000000E-002    -7.1572040828693506E-012
  -6.7199999999999996E-002     1.3594593116159071E-012
  -6.6099999999999992E-002     7.8246636600609598E-012
  -6.5000000000000002E-002     8.6405847754544851E-012
  -6.3899999999999985E-002     1.0202491629307531E-011
  -6.2799999999999995E-002     1.4678402590617701E-011
  -6.1699999999999991E-002     1.2378282426839249E-011
  -6.0599999999999994E-002    -6.3179700186821730E-012
  -5.9499999999999990E-002    -3.5395849445896133E-011
  -5.8399999999999994E-002    -5.1185868044090199E-011
  -5.7299999999999990E-002    -2.5946703119394954E-011
  -5.6199999999999986E-002     3.8145854530657886E-011
  -5.5099999999999996E-002     7.1342189100764841E-011
  -5.3999999999999992E-002     1.0979554071477438E-011
  -5.2899999999999989E-002    -6.9089518828224783E-011
  -5.1799999999999985E-002    -3.6763495026015391E-011
  -5.0699999999999995E-002     1.2785056346942270E-010
  -4.9599999999999991E-002     2.7107968647577252E-010
  -4.8499999999999988E-002     1.5918190376940089E-010
  -4.7399999999999998E-002    -2.7746804853734375E-010
  -4.6299999999999994E-002    -7.5191458615009310E-010
  -4.5199999999999990E-002    -7.2804301476381283E-010
  -4.4099999999999986E-002     7.1653093181023308E-011
  -4.2999999999999997E-002     1.2393684967193508E-009
  -4.1899999999999993E-002     1.6451844331299981E-009
  -4.0799999999999989E-002     7.3806649680818737E-010
  -3.9699999999999985E-002    -8.2949697111089904E-010
  -3.8599999999999995E-002    -1.9037156295809154E-009
  -3.7499999999999992E-002    -1.6689789550383693E-009
  -3.6399999999999988E-002    -4.1174527676268724E-010
  -3.5299999999999984E-002     8.0570244920252776E-010
  -3.4199999999999994E-002     4.9537263180354785E-010
  -3.3099999999999991E-002    -8.4143275680403917E-010
  -3.1999999999999987E-002    -1.5098354788634083E-009
  -3.0899999999999997E-002     3.2031471919324872E-010
  -2.9799999999999993E-002     5.6038786944156982E-009
  -2.8699999999999989E-002     8.8822345034600403E-009
  -2.7599999999999986E-002     5.1582764726276764E-009
  -2.6499999999999996E-002    -3.8174166050453096E-009
  -2.5399999999999992E-002    -1.2411165428716231E-008
  -2.4299999999999988E-002    -1.5148433618605850E-008
  -2.3199999999999985E-002    -6.8729719693294555E-009
  -2.2099999999999995E-002     9.9325809799211129E-009
  -2.0999999999999991E-002     2.3555264405672460E-008
  -1.9899999999999987E-002     2.1390912152696728E-008
  -1.8799999999999983E-002     1.1478594741376469E-009
  -1.7699999999999994E-002    -2.6352136472951315E-008
  -1.6599999999999990E-002    -3.6028058758574844E-008
  -1.5499999999999986E-002    -1.1438024971610616E-009
  -1.4399999999999996E-002     3.3740452209940486E-008
  -1.3299999999999992E-002     3.3231195573080186E-008
  -1.2199999999999989E-002     2.3300641416312828E-008
  -1.1099999999999985E-002    -1.6530575797091274E-009
  -9.9999999999999950E-003    -3.1190090510335722E-008
  -8.8999999999999913E-003    -2.2532685051146473E-008
  -7.7999999999999875E-003    -3.1808353728735028E-009
  -6.6999999999999837E-003     3.9487932923520930E-009
  -5.5999999999999939E-003    -1.5403054831608642E-008
  -4.4999999999999901E-003    -3.5773421558360496E-008
  -3.3999999999999864E-003    -9.2919441030403505E-009
  -2.2999999999999826E-003     4.2652494869344082E-008
  -1.1999999999999927E-003     1.0274508355223588E-007
  -9.9999999999988987E-005     8.9504339939594502E-008
   1.0000000000000148E-003    -1.9477127466416277E-008
   2.1000000000000185E-003    -1.3151415600987093E-007
   3.2000000000000084E-003    -7.0403054053258529E-008
   4.3000000000000121E-003     1.1700433333317051E-007
   5.4000000000000159E-003     1.0172655606766057E-007
   6.5000000000000058E-003    -1.5697712285600574E-007
   7.6000000000000234E-003    -2.7716228601093462E-007
   8.7000000000000133E-003    -9.1791946488228859E-008
   9.8000000000000032E-003     2.6468950409253011E-007
   1.0900000000000021E-002     4.8265246732626110E-007
   1.2000000000000011E-002     8.9504368361303932E-008
   1.3100000000000001E-002    -6.3771778968657600E-007
   1.4200000000000018E-002    -7.1919924948815606E-007
   1.5300000000000008E-002     7.5245068842377805E-008
   1.6400000000000026E-002     1.1365411864971975E-006
   1.7500000000000016E-002     1.5520967053817003E-006
   1.8600000000000005E-002     6.9043016992509365E-007
   1.9700000000000023E-002    -9.4734735966994776E-007
   2.0800000000000013E-002    -2.0300324194977293E-006
   2.1900000000000003E-002    -1.3914215060140123E-006
   2.3000000000000020E-002     8.1774487625807524E-007
   2.4100000000000010E-002     2.6139020974369487E-006
   2.5200000000000000E-002     1.9350595721334685E-006
   2.6300000000000018E-002    -7.6013111538486555E-007
   2.7400000000000008E-002    -2.8060162549081724E-006
   2.8500000000000025E-002    -2.4795810986688593E-006
   2.9600000000000015E-002    -1.6347036080333055E-007
   3.0700000000000005E-002     2.2524552605318604E-006
   3.1800000000000023E-002     2.4154180664481828E-006
   3.2900000000000013E-002     5.6171472806454403E-007
   3.4000000000000002E-002    -1.1208776413695887E-006
   3.5100000000000020E-002    -1.0434703199280193E-006
   3.6200000000000010E-002     5.6578869589429814E-007
   3.7300000000000028E-002     1.6168996808119118E-006
   3.8400000000000017E-002     4.0282574786942860E-007
   3.9500000000000007E-002    -2.3838406377763022E-006
   4.0600000000000025E-002    -4.1275438888987992E-006
   4.1700000000000015E-002    -2.9705070119234733E-006
   4.2800000000000005E-002     8.5048178277702391E-008
   4.3900000000000022E-002     2.8717145141854417E-006
   4.5000000000000012E-002     3.2139366794581292E-006
   4.6100000000000002E-002     1.1768999002015335E-006
   4.7200000000000020E-002    -5.5865541526145535E-007
   4.8300000000000010E-002    -6.4013693190645427E-007
   4.9400000000000027E-002     2.8875180646537046E-007
   5.0500000000000017E-002     6.3097394331634860E-007
   5.1600000000000007E-002    -3.6309998563410772E-007
   5.2700000000000025E-002    -1.7808774828154128E-006
   5.3800000000000014E-002    -2.3349514322035247E-006
   5.4900000000000004E-002    -1.2105070936740958E-006
   5.6000000000000022E-002     1.3480110965247150E-006
   5.7100000000000012E-002     3.7598626931867329E-006
   5.8200000000000002E-002     4.0368995541939512E-006
   5.9300000000000019E-002     1.7472704030296882E-006
   6.0400000000000009E-002    -1.3082847090117866E-006
   6.1500000000000027E-002    -2.6771733701025369E-006
   6.2600000000000017E-002    -1.0475438330104225E-006
   6.3700000000000007E-002     1.5598632217006525E-006
   6.4800000000000024E-002     1.5761594340801821E-006
   6.5900000000000014E-002    -1.6056918639151263E-006
   6.7000000000000004E-002    -4.6816171561658848E-006
   6.8100000000000022E-002    -3.9075430322554894E-006
   6.9200000000000012E-002     3.8653021761092532E-007
   7.0300000000000029E-002     4.1978260014730040E-006
   7.1400000000000019E-002     4.1468997551419307E-006
   7.2500000000000009E-002     5.7801139519142453E-007
   7.3600000000000027E-002    -2.4612475044705207E-006
   7.4700000000000016E-002    -1.8501365275369608E-006
   7.5800000000000006E-002     9.2838149612362031E-007
   7.6900000000000024E-002     2.4683811261638766E-006
   7.8000000000000014E-002     5.6986289109772770E-007
   7.9100000000000004E-002    -3.1619883884559385E-006
   8.0200000000000021E-002    -4.5145807234803215E-006
   8.1300000000000011E-002    -1.5975442693161312E-006
   8.2400000000000029E-002     3.6009732866659760E-006
   8.3500000000000019E-002     6.5180097408301663E-006
   8.4600000000000009E-002     3.9757878766977228E-006
   8.5700000000000026E-002    -2.2168039777170634E-006
   8.6800000000000016E-002    -5.9812477957166266E-006
   8.7900000000000006E-002    -3.7160627925914014E-006
   8.9000000000000024E-002     1.5639363937225426E-006
   9.0100000000000013E-002     4.2691212911449838E-006
   9.1200000000000003E-002     2.1343068965506973E-006
   9.2300000000000021E-002    -1.8908776837633923E-006
   9.3400000000000011E-002    -3.3575440738786710E-006
   9.4500000000000028E-002    -1.4834702142252354E-006
   9.5600000000000018E-002     7.6541834914678475E-007
   9.6700000000000008E-002     4.8381355810533933E-008
   9.7800000000000026E-002    -2.9175441795814550E-006
   9.8900000000000016E-002    -3.7486552173504606E-006
  0.10000000000000001         -2.9384102617768804E-007
  0.10110000000000002          5.6054173001029994E-006
  0.10220000000000001          8.9461582319927402E-006
  0.10330000000000003          6.3713441704749130E-006
  0.10440000000000002          6.2690048707736423E-007
  0.10550000000000001         -3.4634692838153569E-006
  0.10660000000000003         -3.9034689507388975E-006
  0.10770000000000002         -2.4368025606236188E-006
  0.10880000000000001         -2.0660618247347884E-006
  0.10990000000000003         -3.5001357900910079E-006
  0.11100000000000002         -4.5838391997676808E-006
  0.11210000000000001         -2.8265130822546780E-006
  0.11320000000000002          1.6726645526432549E-006
  0.11430000000000001          6.3048864831216633E-006
  0.11540000000000003          8.0159970821114257E-006
  0.11650000000000002          6.0197012317075860E-006
  0.11760000000000001          2.4711832793400390E-006
  0.11870000000000003         -6.9844605832258821E-007
  0.11980000000000002         -3.2732605177443475E-006
  0.12090000000000001         -5.7258525885117706E-006
  0.12200000000000003         -7.3880742093024310E-006
  0.12310000000000001         -6.2962226365925744E-006
  0.12420000000000003         -1.7577044673089404E-006
  0.12530000000000002          4.0111835915013216E-006
  0.12640000000000001          7.1889608079800382E-006
  0.12750000000000003          5.5756277106411289E-006
  0.12860000000000002          9.8007274118572241E-007
  0.12970000000000001         -2.2628898932453012E-006
  0.13080000000000003         -1.7902974605021882E-006
  0.13190000000000002          3.9340594071290980E-007
  0.13300000000000001          4.2599847915880673E-007
  0.13410000000000000         -2.7191861136088846E-006
  0.13520000000000004         -6.0762226894439664E-006
  0.13630000000000003         -5.3754820328322239E-006
  0.13740000000000002          3.2007281447476998E-007
  0.13850000000000001          6.8385902523004916E-006
  0.13960000000000000          8.8267388491658494E-006
  0.14070000000000005          4.7363696467073169E-006
  0.14180000000000004         -1.5214070572255878E-006
  0.14290000000000003         -4.2102956285816617E-006
  0.14400000000000002         -1.6028886875574244E-006
  0.14510000000000001          2.1778516838821815E-006
  0.14620000000000000          1.8519259583626990E-006
  0.14730000000000004         -2.8780732463928871E-006
  0.14840000000000003         -7.0865912675799336E-006
  0.14950000000000002         -5.7665915846882854E-006
  0.15060000000000001          9.3933340394869447E-007
  0.15170000000000000          7.4904437497025356E-006
  0.15280000000000005          8.3948880273965187E-006
  0.15390000000000004          3.4774811865645461E-006
  0.15500000000000003         -2.2588142201129813E-006
  0.15610000000000002         -3.6888138765789336E-006
  0.15720000000000001         -7.7483275617851177E-007
  0.15830000000000000          1.5840558944546501E-006
  0.15940000000000004         -6.7807343384629348E-007
  0.16050000000000003         -5.9298090491211042E-006
  0.16160000000000002         -8.3728045865427703E-006
  0.16270000000000001         -4.2753840716613922E-006
  0.16380000000000000          3.6570918382494710E-006
  0.16490000000000005          8.7863500084495172E-006
  0.16600000000000004          7.0059795689303428E-006
  0.16710000000000003          7.1560987180419033E-007
  0.16820000000000002         -3.4817044252122287E-006
  0.16930000000000001         -1.9009640936928918E-006
  0.17040000000000000          2.5835722681222251E-006
  0.17150000000000004          4.0614427234686445E-006
  0.17260000000000003         -7.8834617056600109E-008
  0.17370000000000002         -6.1054079196765088E-006
  0.17480000000000001         -7.7554077506647445E-006
  0.17590000000000000         -2.6475383947399678E-006
  0.17700000000000005          5.0575531531649176E-006
  0.17810000000000004          8.4624598457594402E-006
  0.17920000000000003          4.5493125071516261E-006
  0.18030000000000002         -3.2067048323369818E-006
  0.18140000000000001         -8.1954076449619606E-006
  0.18250000000000000         -6.8387412284209859E-006
  0.18360000000000004         -1.4721678098794655E-006
  0.18470000000000003          2.7251464871369535E-006
  0.18580000000000002          2.7719981972040841E-006
  0.18690000000000001          1.1813394706905456E-008
  0.18800000000000000         -1.9498529582051560E-006
  0.18910000000000005         -9.4355669943979592E-007
  0.19020000000000004          1.9612577943917131E-006
  0.19130000000000003          4.0767204154690262E-006
  0.19240000000000002          4.0629702198202722E-006
  0.19350000000000001          2.8336185096122790E-006
  0.19460000000000005          1.8003315744863357E-006
  0.19570000000000004          1.0980631941492902E-006
  0.19680000000000003         -7.7816302734845522E-008
  0.19790000000000002         -1.8856865153793478E-006
  0.19900000000000001         -3.1124920951697277E-006
  0.20010000000000000         -2.4092053081403719E-006
  0.20120000000000005         -2.0360373298444756E-007
  0.20230000000000004          1.2768126680384739E-006
  0.20340000000000003          2.7611835662355588E-007
  0.20450000000000002         -2.3923996650410118E-006
  0.20560000000000000         -3.8193438740563579E-006
  0.20670000000000005         -1.8536034076532815E-006
  0.20780000000000004          2.3913266886665951E-006
  0.20890000000000003          5.2666041483462323E-006
