 -0.12000000000000000          0.0000000000000000
 -0.11889999999999999          0.0000000000000000
 -0.11780000000000000          0.0000000000000000
 -0.11670000000000000          0.0000000000000000
 -0.11559999999999999          2.4670060915985004E-013
 -0.11449999999999999          1.6850469587367800E-012
 -0.11340000000000000          5.5679987530365960E-012
 -0.11230000000000000          1.0682025576580489E-011
 -0.11119999999999999          8.8720957663879219E-012
 -0.11009999999999999         -1.5628316349380889E-011
 -0.10900000000000000         -7.5503533980558757E-011
 -0.10790000000000000         -1.5841801481730755E-010
 -0.10679999999999999         -2.0998840166708277E-010
 -0.10569999999999999         -1.4726440900059146E-010
 -0.10460000000000000          8.6430695933614743E-011
 -0.10349999999999999          4.5183612407129203E-010
 -0.10239999999999999          7.8589390550831695E-010
 -0.10130000000000000          8.5879753308759632E-010
 -0.10020000000000000          4.9891685227620997E-010
  -9.9099999999999994E-002    -2.9193128470161867E-010
  -9.7999999999999990E-002    -1.3116565611426267E-009
  -9.6899999999999986E-002    -2.2298847213164663E-009
  -9.5799999999999996E-002    -2.6932998054007840E-009
  -9.4699999999999993E-002    -2.3961472805922313E-009
  -9.3599999999999989E-002    -1.1266791943853605E-009
  -9.2499999999999999E-002     1.1307917935354794E-009
  -9.1399999999999995E-002     4.0069529916308966E-009
  -9.0299999999999991E-002     6.5981700103634466E-009
  -8.9200000000000002E-002     7.5940747024105804E-009
  -8.8099999999999984E-002     5.8113616141497459E-009
  -8.6999999999999994E-002     9.4539498451950976E-010
  -8.5899999999999990E-002    -5.9320011125407746E-009
  -8.4799999999999986E-002    -1.2558580841925959E-008
  -8.3699999999999997E-002    -1.6366817234825248E-008
  -8.2599999999999993E-002    -1.5592856783541720E-008
  -8.1499999999999989E-002    -9.9802974773410824E-009
  -8.0399999999999999E-002    -7.7566120193495181E-010
  -7.9299999999999995E-002     9.7750048055900152E-009
  -7.8199999999999992E-002     1.8991475059237928E-008
  -7.7100000000000002E-002     2.4189956704390170E-008
  -7.5999999999999984E-002     2.3174330010533595E-008
  -7.4899999999999994E-002     1.5019354648870831E-008
  -7.3799999999999991E-002     9.1790502976252242E-010
  -7.2699999999999987E-002    -1.5627049876343335E-008
  -7.1599999999999997E-002    -2.9853168825866305E-008
  -7.0499999999999993E-002    -3.7735549796025225E-008
  -6.9399999999999989E-002    -3.7684699805140554E-008
  -6.8300000000000000E-002    -3.0652465454750200E-008
  -6.7199999999999996E-002    -1.8487549269252668E-008
  -6.6099999999999992E-002    -1.8623074193868661E-009
  -6.5000000000000002E-002     2.0415159340814171E-008
  -6.3899999999999985E-002     4.9985903416427391E-008
  -6.2799999999999995E-002     8.6575560942492302E-008
  -6.1699999999999991E-002     1.2685983108440269E-007
  -6.0599999999999994E-002     1.6593483564975031E-007
  -5.9499999999999990E-002     2.0073677831078385E-007
  -5.8399999999999994E-002     2.3321138087339932E-007
  -5.7299999999999990E-002     2.7125457791044028E-007
  -5.6199999999999986E-002     3.2713083442104107E-007
  -5.5099999999999996E-002     4.1467836808806169E-007
  -5.3999999999999992E-002     5.4685108352714451E-007
  -5.2899999999999989E-002     7.3419477075731265E-007
  -5.1799999999999985E-002     9.8401085324439919E-007
  -5.0699999999999995E-002     1.3001839533899329E-006
  -4.9599999999999991E-002     1.6844697938722675E-006
  -4.8499999999999988E-002     2.1400589957920602E-006
  -4.7399999999999998E-002     2.6767706913233269E-006
  -4.6299999999999994E-002     3.3153421554743545E-006
  -4.5199999999999990E-002     4.0879644984670449E-006
  -4.4099999999999986E-002     5.0343874136160593E-006
  -4.2999999999999997E-002     6.1961545725353062E-006
  -4.1899999999999993E-002     7.6131618698127568E-006
  -4.0799999999999989E-002     9.3251255748327821E-006
  -3.9699999999999985E-002     1.1376914699212648E-005
  -3.8599999999999995E-002     1.3824072084389627E-005
  -3.7499999999999992E-002     1.6735384633648209E-005
  -3.6399999999999988E-002     2.0192414012853988E-005
  -3.5299999999999984E-002     2.4288525310112163E-005
  -3.4199999999999994E-002     2.9129891117918305E-005
  -3.3099999999999991E-002     3.4838503779610619E-005
  -3.1999999999999987E-002     4.1555140342097729E-005
  -3.0899999999999997E-002     4.9440448492532596E-005
  -2.9799999999999993E-002     5.8674737374531105E-005
  -2.8699999999999989E-002     6.9458743382710963E-005
  -2.7599999999999986E-002     8.2016864325851202E-005
  -2.6499999999999996E-002     9.6601535915397108E-005
  -2.5399999999999992E-002     1.1349571286700666E-004
  -2.4299999999999988E-002     1.3301137369126081E-004
  -2.3199999999999985E-002     1.5548561350442469E-004
  -2.2099999999999995E-002     1.8127827206626534E-004
  -2.0999999999999991E-002     2.1077395649626851E-004
  -1.9899999999999987E-002     2.4438803666271269E-004
  -1.8799999999999983E-002     2.8257217491045594E-004
  -1.7699999999999994E-002     3.2581505365669727E-004
  -1.6599999999999990E-002     3.7463707849383354E-004
  -1.5499999999999986E-002     4.2958109406754375E-004
  -1.4399999999999996E-002     4.9120234325528145E-004
  -1.3299999999999992E-002     5.6006008526310325E-004
  -1.2199999999999989E-002     6.3670985400676727E-004
  -1.1099999999999985E-002     7.2169589111581445E-004
  -9.9999999999999950E-003     8.1554253119975328E-004
  -8.8999999999999913E-003     9.1874459758400917E-004
  -7.7999999999999875E-003     1.0317569831386209E-003
  -6.6999999999999837E-003     1.1549795744940639E-003
  -5.5999999999999939E-003     1.2887375196442008E-003
  -4.4999999999999901E-003     1.4332549180835485E-003
  -3.3999999999999864E-003     1.5886242035776377E-003
  -2.2999999999999826E-003     1.7547758761793375E-003
  -1.1999999999999927E-003     1.9314506789669394E-003
  -9.9999999999988987E-005     2.1181723568588495E-003
   1.0000000000000148E-003     2.3142201825976372E-003
   2.1000000000000185E-003     2.5185972917824984E-003
   3.2000000000000084E-003     2.7299956418573856E-003
   4.3000000000000121E-003     2.9467584099620581E-003
   5.4000000000000159E-003     3.1668439041823149E-003
   6.5000000000000058E-003     3.3877899404615164E-003
   7.6000000000000234E-003     3.6066821776330471E-003
   8.7000000000000133E-003     3.8201238494366407E-003
   9.8000000000000032E-003     4.0242113173007965E-003
   1.0900000000000021E-002     4.2145154438912868E-003
   1.2000000000000011E-002     4.3860655277967453E-003
   1.3100000000000001E-002     4.5333416201174259E-003
   1.4200000000000018E-002     4.6502687036991119E-003
   1.5300000000000008E-002     4.7302213497459888E-003
   1.6400000000000026E-002     4.7660367563366890E-003
   1.7500000000000016E-002     4.7500496730208397E-003
   1.8600000000000005E-002     4.6741389669477940E-003
   1.9700000000000023E-002     4.5297909528017044E-003
   2.0800000000000013E-002     4.3081743642687798E-003
   2.1900000000000003E-002     4.0002288296818733E-003
   2.3000000000000020E-002     3.5967652220278978E-003
   2.4100000000000010E-002     3.0885837040841579E-003
   2.5200000000000000E-002     2.4666043464094400E-003
   2.6300000000000018E-002     1.7220136942341924E-003
   2.7400000000000008E-002     8.4642617730423808E-004
   2.8500000000000025E-002    -1.6794026305433363E-004
   2.9600000000000015E-002    -1.3280721614137292E-003
   3.0700000000000005E-002    -2.6399560738354921E-003
   3.1800000000000023E-002    -4.1083698160946369E-003
   3.2900000000000013E-002    -5.7366732507944107E-003
   3.4000000000000002E-002    -7.5266081839799881E-003
   3.5100000000000020E-002    -9.4781005755066872E-003
   3.6200000000000010E-002    -1.1589071713387966E-002
   3.7300000000000028E-002    -1.3855255208909512E-002
   3.8400000000000017E-002    -1.6270034015178680E-002
   3.9500000000000007E-002    -1.8824286758899689E-002
   4.0600000000000025E-002    -2.1506275981664658E-002
   4.1700000000000015E-002    -2.4301573634147644E-002
   4.2800000000000005E-002    -2.7193006128072739E-002
   4.3900000000000022E-002    -3.0160656198859215E-002
   4.5000000000000012E-002    -3.3181898295879364E-002
   4.6100000000000002E-002    -3.6231473088264465E-002
   4.7200000000000020E-002    -3.9281655102968216E-002
   4.8300000000000010E-002    -4.2302418500185013E-002
   4.9400000000000027E-002    -4.5261677354574203E-002
   5.0500000000000017E-002    -4.8125572502613068E-002
   5.1600000000000007E-002    -5.0858821719884872E-002
   5.2700000000000025E-002    -5.3425099700689316E-002
   5.3800000000000014E-002    -5.5787492543458939E-002
   5.4900000000000004E-002    -5.7908963412046432E-002
   5.6000000000000022E-002    -5.9752881526947021E-002
   5.7100000000000012E-002    -6.1283547431230545E-002
   5.8200000000000002E-002    -6.2466744333505630E-002
   5.9300000000000019E-002    -6.3270285725593567E-002
   6.0400000000000009E-002    -6.3664615154266357E-002
   6.1500000000000027E-002    -6.3623309135437012E-002
   6.2600000000000017E-002    -6.3123643398284912E-002
   6.3700000000000007E-002    -6.2147095799446106E-002
   6.4800000000000024E-002    -6.0679785907268524E-002
   6.5900000000000014E-002    -5.8712907135486603E-002
   6.7000000000000004E-002    -5.6243047118186951E-002
   6.8100000000000022E-002    -5.3272478282451630E-002
   6.9200000000000012E-002    -4.9809336662292480E-002
   7.0300000000000029E-002    -4.5867711305618286E-002
   7.1400000000000019E-002    -4.1467670351266861E-002
   7.2500000000000009E-002    -3.6635167896747589E-002
   7.3600000000000027E-002    -3.1401876360177994E-002
   7.4700000000000016E-002    -2.5804899632930756E-002
   7.5800000000000006E-002    -1.9886426627635956E-002
   7.6900000000000024E-002    -1.3693255372345448E-002
   7.8000000000000014E-002    -7.2762612253427505E-003
   7.9100000000000004E-002    -6.8977440241724253E-004
   8.0200000000000021E-002     6.0090986080467701E-003
   8.1300000000000011E-002     1.2761211022734642E-002
   8.2400000000000029E-002     1.9506156444549561E-002
   8.3500000000000019E-002     2.6183081790804863E-002
   8.4600000000000009E-002     3.2731506973505020E-002
   8.5700000000000026E-002     3.9092138409614563E-002
   8.6800000000000016E-002     4.5207682996988297E-002
   8.7900000000000006E-002     5.1023621112108231E-002
   8.9000000000000024E-002     5.6488934904336929E-002
   9.0100000000000013E-002     6.1556790024042130E-002
   9.1200000000000003E-002     6.6185139119625092E-002
   9.2300000000000021E-002     7.0337250828742981E-002
   9.3400000000000011E-002     7.3982141911983490E-002
   9.4500000000000028E-002     7.7094905078411102E-002
   9.5600000000000018E-002     7.9656966030597687E-002
   9.6700000000000008E-002     8.1656210124492645E-002
   9.7800000000000026E-002     8.3087056875228882E-002
   9.8900000000000016E-002     8.3950333297252655E-002
  0.10000000000000001          8.4253147244453430E-002
  0.10110000000000002          8.4008596837520599E-002
  0.10220000000000001          8.3235464990139008E-002
  0.10330000000000003          8.1957750022411346E-002
  0.10440000000000002          8.0204211175441742E-002
  0.10550000000000001          7.8007772564888000E-002
  0.10660000000000003          7.5404949486255646E-002
  0.10770000000000002          7.2435215115547180E-002
  0.10880000000000001          6.9140337407588959E-002
  0.10990000000000003          6.5563738346099854E-002
  0.11100000000000002          6.1749834567308426E-002
  0.11210000000000001          5.7743404060602188E-002
  0.11320000000000002          5.3588975220918655E-002
  0.11430000000000001          4.9330253154039383E-002
  0.11540000000000003          4.5009594410657883E-002
  0.11650000000000002          4.0667526423931122E-002
  0.11760000000000001          3.6342326551675797E-002
  0.11870000000000003          3.2069656997919083E-002
  0.11980000000000002          2.7882250025868416E-002
  0.12090000000000001          2.3809690028429031E-002
  0.12200000000000003          1.9878249615430832E-002
  0.12310000000000001          1.6110789030790329E-002
  0.12420000000000003          1.2526712380349636E-002
  0.12530000000000002          9.1419741511344910E-003
  0.12640000000000001          5.9691350907087326E-003
  0.12750000000000003          3.0174816492944956E-003
  0.12860000000000002          2.9317609732970595E-004
  0.12970000000000001         -2.2005534265190363E-003
  0.13080000000000003         -4.4631985947489738E-003
  0.13190000000000002         -6.4967395737767220E-003
  0.13300000000000001         -8.3053940907120705E-003
  0.13410000000000000         -9.8953517153859138E-003
  0.13520000000000004         -1.1274509131908417E-002
  0.13630000000000003         -1.2452197261154652E-002
  0.13740000000000002         -1.3438929803669453E-002
  0.13850000000000001         -1.4246149919927120E-002
  0.13960000000000000         -1.4885992743074894E-002
  0.14070000000000005         -1.5371056273579597E-002
  0.14180000000000004         -1.5714187175035477E-002
  0.14290000000000003         -1.5928288921713829E-002
  0.14400000000000002         -1.6026146709918976E-002
  0.14510000000000001         -1.6020296141505241E-002
  0.14620000000000000         -1.5922896564006805E-002
  0.14730000000000004         -1.5745619311928749E-002
  0.14840000000000003         -1.5499569475650787E-002
  0.14950000000000002         -1.5195207670331001E-002
  0.15060000000000001         -1.4842303469777107E-002
  0.15170000000000000         -1.4449900947511196E-002
  0.15280000000000005         -1.4026289805769920E-002
  0.15390000000000004         -1.3578990474343300E-002
  0.15500000000000003         -1.3114755973219872E-002
  0.15610000000000002         -1.2639586813747883E-002
  0.15720000000000001         -1.2158764526247978E-002
  0.15830000000000000         -1.1676889844238758E-002
  0.15940000000000004         -1.1197920888662338E-002
  0.16050000000000003         -1.0725208558142185E-002
  0.16160000000000002         -1.0261533781886101E-002
  0.16270000000000001         -9.8091540858149529E-003
  0.16380000000000000         -9.3698548153042793E-003
  0.16490000000000005         -8.9450040832161903E-003
  0.16600000000000004         -8.5356002673506737E-003
  0.16710000000000003         -8.1423167139291763E-003
  0.16820000000000002         -7.7655380591750145E-003
  0.16930000000000001         -7.4054058641195297E-003
  0.17040000000000000         -7.0618633180856705E-003
  0.17150000000000004         -6.7346966825425625E-003
  0.17260000000000003         -6.4235702157020569E-003
  0.17370000000000002         -6.1280480585992336E-003
  0.17480000000000001         -5.8476193808019161E-003
  0.17590000000000000         -5.5817221291363239E-003
  0.17700000000000005         -5.3297686390578747E-003
  0.17810000000000004         -5.0911684520542622E-003
  0.17920000000000003         -4.8653385601937771E-003
  0.18030000000000002         -4.6517057344317436E-003
  0.18140000000000001         -4.4497051276266575E-003
  0.18250000000000000         -4.2587821371853352E-003
  0.18360000000000004         -4.0784007869660854E-003
  0.18470000000000003         -3.9080483838915825E-003
  0.18580000000000002         -3.7472352851182222E-003
  0.18690000000000001         -3.5954937338829041E-003
  0.18800000000000000         -3.4523752983659506E-003
  0.18910000000000005         -3.3174506388604641E-003
  0.19020000000000004         -3.1903102062642574E-003
  0.19130000000000003         -3.0705612152814865E-003
  0.19240000000000002         -2.9578206595033407E-003
  0.19350000000000001         -2.8517097234725952E-003
  0.19460000000000005         -2.7518516872078180E-003
  0.19570000000000004         -2.6578761171549559E-003
  0.19680000000000003         -2.5694246869534254E-003
  0.19790000000000002         -2.4861530400812626E-003
  0.19900000000000001         -2.4077272973954678E-003
  0.20010000000000000         -2.3338207975029945E-003
  0.20120000000000005         -2.2641180548816919E-003
  0.20230000000000004         -2.1983203478157520E-003
  0.20340000000000003         -2.1361529361456633E-003
  0.20450000000000002         -2.0773625001311302E-003
  0.20560000000000000         -2.0217120181769133E-003
  0.20670000000000005         -1.9689756445586681E-003
  0.20780000000000004         -1.9189387094229460E-003
  0.20890000000000003         -1.8714042380452156E-003
