 -0.12000000000000000          0.0000000000000000
 -0.11889999999999999          0.0000000000000000
 -0.11780000000000000          0.0000000000000000
 -0.11670000000000000          0.0000000000000000
 -0.11559999999999999          0.0000000000000000
 -0.11449999999999999          0.0000000000000000
 -0.11340000000000000         -3.7989119973167500E-017
 -0.11230000000000000         -1.3048981950793885E-016
 -0.11119999999999999          5.0493502752268723E-016
 -0.11009999999999999          4.1996134929258178E-015
 -0.10900000000000000          1.0039214908875733E-014
 -0.10790000000000000          6.9938028147129884E-017
 -0.10679999999999999         -6.0822156230759539E-014
 -0.10569999999999999         -1.6057929996555337E-013
 -0.10460000000000000         -1.2105895170859415E-013
 -0.10349999999999999          3.7370795477262297E-013
 -0.10239999999999999          1.3081957392357957E-012
 -0.10130000000000000          1.5850037211537216E-012
 -0.10020000000000000         -8.7020874447313323E-013
  -9.9099999999999994E-002    -6.7465416933587541E-012
  -9.7999999999999990E-002    -1.1491326987189687E-011
  -9.6899999999999986E-002    -4.7823672105762327E-012
  -9.5799999999999996E-002     2.0736103806262562E-011
  -9.4699999999999993E-002     5.3220441942336549E-011
  -9.3599999999999989E-002     5.4126519238861803E-011
  -9.2499999999999999E-002    -1.8550258551464083E-011
  -9.1399999999999995E-002    -1.5549805887360435E-010
  -9.0299999999999991E-002    -2.5310167850456367E-010
  -8.9200000000000002E-002    -1.5137675835052988E-010
  -8.8099999999999984E-002     2.2230435547943017E-010
  -8.6999999999999994E-002     6.9229411092663895E-010
  -8.5899999999999990E-002     8.3518947313621084E-010
  -8.4799999999999986E-002     2.5779520185231775E-010
  -8.3699999999999997E-002    -9.7257191189470404E-010
  -8.2599999999999993E-002    -2.1157042784381019E-009
  -8.1499999999999989E-002    -2.1037895869824297E-009
  -8.0399999999999999E-002    -3.6874578390744261E-010
  -7.9299999999999995E-002     2.4491322303532570E-009
  -7.8199999999999992E-002     4.6252566221482994E-009
  -7.7100000000000002E-002     4.4429788736977116E-009
  -7.5999999999999984E-002     1.4942908022064216E-009
  -7.4899999999999994E-002    -2.9295434966769562E-009
  -7.3799999999999991E-002    -6.7654823965312971E-009
  -7.2699999999999987E-002    -8.5555074136323128E-009
  -7.1599999999999997E-002    -7.8624360355661338E-009
  -7.0499999999999993E-002    -4.3472021538093486E-009
  -6.9399999999999989E-002     3.0526456917812084E-009
  -6.8300000000000000E-002     1.4863884345572842E-008
  -6.7199999999999996E-002     2.7804331281799932E-008
  -6.6099999999999992E-002     3.2821532158777700E-008
  -6.5000000000000002E-002     1.8692785985763294E-008
  -6.3899999999999985E-002    -1.8427023462663783E-008
  -6.2799999999999995E-002    -6.5775509483501082E-008
  -6.1699999999999991E-002    -9.4702443220739951E-008
  -6.0599999999999994E-002    -7.5927729881186679E-008
  -5.9499999999999990E-002    -2.1412753792304784E-009
  -5.8399999999999994E-002     9.8652563451651076E-008
  -5.7299999999999990E-002     1.7288854792241182E-007
  -5.6199999999999986E-002     1.7227810644726560E-007
  -5.5099999999999996E-002     8.5907721825151384E-008
  -5.3999999999999992E-002    -5.0461952838531943E-008
  -5.2899999999999989E-002    -1.7638598137637018E-007
  -5.1799999999999985E-002    -2.4381097318837419E-007
  -5.0699999999999995E-002    -2.3993081299522601E-007
  -4.9599999999999991E-002    -1.7827179021878692E-007
  -4.8499999999999988E-002    -6.9477756881042296E-008
  -4.7399999999999998E-002     9.5159215618423332E-008
  -4.6299999999999994E-002     3.2209388223236601E-007
  -4.5199999999999990E-002     5.6614766208440415E-007
  -4.4099999999999986E-002     6.9989420126148616E-007
  -4.2999999999999997E-002     5.5146978183984174E-007
  -4.1899999999999993E-002     1.7967369814186895E-008
  -4.0799999999999989E-002    -8.0364804944110801E-007
  -3.9699999999999985E-002    -1.5674995665904135E-006
  -3.8599999999999995E-002    -1.7890445178636583E-006
  -3.7499999999999992E-002    -1.1042398000427056E-006
  -3.6399999999999988E-002     4.4295839529695513E-007
  -3.5299999999999984E-002     2.2682982034893939E-006
  -3.4199999999999994E-002     3.4126883292628918E-006
  -3.3099999999999991E-002     2.9992270356160589E-006
  -3.1999999999999987E-002     7.8521321711377823E-007
  -3.0899999999999997E-002    -2.5064559849852230E-006
  -2.9799999999999993E-002    -5.3407538871397264E-006
  -2.8699999999999989E-002    -6.0381403272913303E-006
  -2.7599999999999986E-002    -3.6739838833454996E-006
  -2.6499999999999996E-002     1.2740684951495496E-006
  -2.5399999999999992E-002     6.9491420617850963E-006
  -2.4299999999999988E-002     1.0884515177167486E-005
  -2.3199999999999985E-002     1.1151268154208083E-005
  -2.2099999999999995E-002     7.2448233368049841E-006
  -2.0999999999999991E-002     1.7203693403189391E-007
  -1.9899999999999987E-002    -8.3482182162697427E-006
  -1.8799999999999983E-002    -1.7112890418502502E-005
  -1.7699999999999994E-002    -2.6336801965953782E-005
  -1.6599999999999990E-002    -3.7637473724316806E-005
  -1.5499999999999986E-002    -5.3063584346091375E-005
  -1.4399999999999996E-002    -7.3748124123085290E-005
  -1.3299999999999992E-002    -9.9070290161762387E-005
  -1.2199999999999989E-002    -1.2698274804279208E-004
  -1.1099999999999985E-002    -1.5549859381280839E-004
  -9.9999999999999950E-003    -1.8460069259162992E-004
  -8.8999999999999913E-003    -2.1747066057287157E-004
  -7.7999999999999875E-003    -2.6019514189101756E-004
  -6.6999999999999837E-003    -3.1990700517781079E-004
  -5.5999999999999939E-003    -4.0224674739874899E-004
  -4.4999999999999901E-003    -5.0954637117683887E-004
  -3.3999999999999864E-003    -6.4089079387485981E-004
  -2.2999999999999826E-003    -7.9426204320043325E-004
  -1.1999999999999927E-003    -9.6981151727959514E-004
  -9.9999999999988987E-005    -1.1726007796823978E-003
   1.0000000000000148E-003    -1.4133505756035447E-003
   2.1000000000000185E-003    -1.7067781882360578E-003
   3.2000000000000084E-003    -2.0684099290519953E-003
   4.3000000000000121E-003    -2.5115970056504011E-003
   5.4000000000000159E-003    -3.0463477596640587E-003
   6.5000000000000058E-003    -3.6806152202188969E-003
   7.6000000000000234E-003    -4.4233985245227814E-003
   8.7000000000000133E-003    -5.2881464362144470E-003
   9.8000000000000032E-003    -6.2949093990027905E-003
   1.0900000000000021E-002    -7.4704140424728394E-003
   1.2000000000000011E-002    -8.8463043794035912E-003
   1.3100000000000001E-002    -1.0456587187945843E-002
   1.4200000000000018E-002    -1.2335538864135742E-002
   1.5300000000000008E-002    -1.4516934752464294E-002
   1.6400000000000026E-002    -1.7034748569130898E-002
   1.7500000000000016E-002    -1.9924843683838844E-002
   1.8600000000000005E-002    -2.3226875811815262E-002
   1.9700000000000023E-002    -2.6985745877027512E-002
   2.0800000000000013E-002    -3.1252272427082062E-002
   2.1900000000000003E-002    -3.6082956939935684E-002
   2.3000000000000020E-002    -4.1538864374160767E-002
   2.4100000000000010E-002    -4.7683674842119217E-002
   2.5200000000000000E-002    -5.4581180214881897E-002
   2.6300000000000018E-002    -6.2292750924825668E-002
   2.7400000000000008E-002    -7.0875585079193115E-002
   2.8500000000000025E-002    -8.0382473766803741E-002
   2.9600000000000015E-002    -9.0863071382045746E-002
   3.0700000000000005E-002   -0.10236584395170212
   3.1800000000000023E-002   -0.11493915319442749
   3.2900000000000013E-002   -0.12862999737262726
   3.4000000000000002E-002   -0.14347991347312927
   3.5100000000000020E-002   -0.15951900184154510
   3.6200000000000010E-002   -0.17675997316837311
   3.7300000000000028E-002   -0.19519402086734772
   3.8400000000000017E-002   -0.21478961408138275
   3.9500000000000007E-002   -0.23549364507198334
   4.0600000000000025E-002   -0.25723353028297424
   4.1700000000000015E-002   -0.27991792559623718
   4.2800000000000005E-002   -0.30343520641326904
   4.3900000000000022E-002   -0.32764959335327148
   4.5000000000000012E-002   -0.35239559412002563
   4.6100000000000002E-002   -0.37747287750244141
   4.7200000000000020E-002   -0.40264317393302917
   4.8300000000000010E-002   -0.42763000726699829
   4.9400000000000027E-002   -0.45212098956108093
   5.0500000000000017E-002   -0.47577163577079773
   5.1600000000000007E-002   -0.49820965528488159
   5.2700000000000025E-002   -0.51903891563415527
   5.3800000000000014E-002   -0.53784263134002686
   5.4900000000000004E-002   -0.55418580770492554
   5.6000000000000022E-002   -0.56761807203292847
   5.7100000000000012E-002   -0.57767683267593384
   5.8200000000000002E-002   -0.58389061689376831
   5.9300000000000019E-002   -0.58578395843505859
   6.0400000000000009E-002   -0.58288604021072388
   6.1500000000000027E-002   -0.57474267482757568
   6.2600000000000017E-002   -0.56092929840087891
   6.3700000000000007E-002   -0.54106479883193970
   6.4800000000000024E-002   -0.51482248306274414
   6.5900000000000014E-002   -0.48193773627281189
   6.7000000000000004E-002   -0.44221350550651550
   6.8100000000000022E-002   -0.39552471041679382
   6.9200000000000012E-002   -0.34182384610176086
   7.0300000000000029E-002   -0.28114891052246094
   7.1400000000000019E-002   -0.21363274753093719
   7.2500000000000009E-002   -0.13951064646244049
   7.3600000000000027E-002    -5.9127267450094223E-002
   7.4700000000000016E-002     2.7058806270360947E-002
   7.5800000000000006E-002    0.11847464740276337
   7.6900000000000024E-002    0.21443687379360199
   7.8000000000000014E-002    0.31415823101997375
   7.9100000000000004E-002    0.41675430536270142
   8.0200000000000021E-002    0.52125352621078491
   8.1300000000000011E-002    0.62660783529281616
   8.2400000000000029E-002    0.73170322179794312
   8.3500000000000019E-002    0.83537358045578003
   8.4600000000000009E-002    0.93641626834869385
   8.5700000000000026E-002     1.0336087942123413
   8.6800000000000016E-002     1.1257255077362061
   8.7900000000000006E-002     1.2115550041198730
   8.9000000000000024E-002     1.2899187803268433
   9.0100000000000013E-002     1.3596911430358887
   9.1200000000000003E-002     1.4198204278945923
   9.2300000000000021E-002     1.4693505764007568
   9.3400000000000011E-002     1.5074404478073120
   9.4500000000000028E-002     1.5333793163299561
   9.5600000000000018E-002     1.5465992689132690
   9.6700000000000008E-002     1.5466845035552979
   9.7800000000000026E-002     1.5333794355392456
   9.8900000000000016E-002     1.5065952539443970
  0.10000000000000001          1.4664131402969360
  0.10110000000000002          1.4130848646163940
  0.10220000000000001          1.3470311164855957
  0.10330000000000003          1.2688368558883667
  0.10440000000000002          1.1792441606521606
  0.10550000000000001          1.0791422128677368
  0.10660000000000003         0.96955490112304688
  0.10770000000000002         0.85162365436553955
  0.10880000000000001         0.72658723592758179
  0.10990000000000003         0.59576350450515747
  0.11100000000000002         0.46053048968315125
  0.11210000000000001         0.32230630517005920
  0.11320000000000002         0.18252822756767273
  0.11430000000000001          4.2630564421415329E-002
  0.11540000000000003         -9.5977194607257843E-002
  0.11650000000000002        -0.23192918300628662
  0.11760000000000001        -0.36391827464103699
  0.11870000000000003        -0.49071159958839417
  0.11980000000000002        -0.61116302013397217
  0.12090000000000001        -0.72422415018081665
  0.12200000000000003        -0.82895529270172119
  0.12310000000000001        -0.92453360557556152
  0.12420000000000003         -1.0102583169937134
  0.12530000000000002         -1.0855547189712524
  0.12640000000000001         -1.1499764919281006
  0.12750000000000003         -1.2032041549682617
  0.12860000000000002         -1.2450411319732666
  0.12970000000000001         -1.2754065990447998
  0.13080000000000003         -1.2943264245986938
  0.13190000000000002         -1.3019245862960815
  0.13300000000000001         -1.2984145879745483
  0.13410000000000000         -1.2840930223464966
  0.13520000000000004         -1.2593333721160889
  0.13630000000000003         -1.2245779037475586
  0.13740000000000002         -1.1803296804428101
  0.13850000000000001         -1.1271439790725708
  0.13960000000000000         -1.0656195878982544
  0.14070000000000005        -0.99639135599136353
  0.14180000000000004        -0.92012363672256470
  0.14290000000000003        -0.83750444650650024
  0.14400000000000002        -0.74924123287200928
  0.14510000000000001        -0.65605843067169189
  0.14620000000000000        -0.55869662761688232
  0.14730000000000004        -0.45791155099868774
  0.14840000000000003        -0.35447216033935547
  0.14950000000000002        -0.24915769696235657
  0.15060000000000001        -0.14275574684143066
  0.15170000000000000         -3.6061987280845642E-002
  0.15280000000000005          7.0119619369506836E-002
  0.15390000000000004         0.17497754096984863
  0.15500000000000003         0.27769559621810913
  0.15610000000000002         0.37745776772499084
  0.15720000000000001         0.47345396876335144
  0.15830000000000000         0.56488436460494995
  0.15940000000000004         0.65096366405487061
  0.16050000000000003         0.73092722892761230
  0.16160000000000002         0.80403804779052734
  0.16270000000000001         0.86959540843963623
  0.16380000000000000         0.92694306373596191
  0.16490000000000005         0.97547662258148193
  0.16600000000000004          1.0146515369415283
  0.16710000000000003          1.0439921617507935
  0.16820000000000002          1.0631016492843628
  0.16930000000000001          1.0716707706451416
  0.17040000000000000          1.0694863796234131
  0.17150000000000004          1.0564364194869995
  0.17260000000000003          1.0325139760971069
  0.17370000000000002         0.99782186746597290
  0.17480000000000001         0.95257645845413208
  0.17590000000000000         0.89710915088653564
  0.17700000000000005         0.83186382055282593
  0.17810000000000004         0.75739210844039917
  0.17920000000000003         0.67434906959533691
  0.18030000000000002         0.58348852396011353
  0.18140000000000001         0.48565766215324402
  0.18250000000000000         0.38178974390029907
  0.18360000000000004         0.27289336919784546
  0.18470000000000003         0.16003897786140442
  0.18580000000000002          4.4345583766698837E-002
  0.18690000000000001         -7.3031030595302582E-002
  0.18800000000000000        -0.19091047346591949
  0.18910000000000005        -0.30810138583183289
  0.19020000000000004        -0.42341607809066772
  0.19130000000000003        -0.53568619489669800
  0.19240000000000002        -0.64377629756927490
  0.19350000000000001        -0.74659419059753418
  0.19460000000000005        -0.84310024976730347
  0.19570000000000004        -0.93231821060180664
  0.19680000000000003         -1.0133476257324219
  0.19790000000000002         -1.0853743553161621
  0.19900000000000001         -1.1476776599884033
  0.20010000000000000         -1.1996331214904785
  0.20120000000000005         -1.2407149076461792
  0.20230000000000004         -1.2705007791519165
  0.20340000000000003         -1.2886794805526733
  0.20450000000000002         -1.2950562238693237
  0.20560000000000000         -1.2895530462265015
  0.20670000000000005         -1.2722051143646240
  0.20780000000000004         -1.2431557178497314
  0.20890000000000003         -1.2026541233062744
