 -0.12000000000000000          0.0000000000000000
 -0.11889999999999999          0.0000000000000000
 -0.11780000000000000          0.0000000000000000
 -0.11670000000000000          0.0000000000000000
 -0.11559999999999999          0.0000000000000000
 -0.11449999999999999          0.0000000000000000
 -0.11340000000000000          0.0000000000000000
 -0.11230000000000000          0.0000000000000000
 -0.11119999999999999          0.0000000000000000
 -0.11009999999999999          0.0000000000000000
 -0.10900000000000000          0.0000000000000000
 -0.10790000000000000          0.0000000000000000
 -0.10679999999999999          0.0000000000000000
 -0.10569999999999999          0.0000000000000000
 -0.10460000000000000          0.0000000000000000
 -0.10349999999999999          0.0000000000000000
 -0.10239999999999999          0.0000000000000000
 -0.10130000000000000         -5.6051938572992683E-045
 -0.10020000000000000         -9.8090892502737195E-045
  -9.9099999999999994E-002    -8.7160764481003622E-043
  -9.7999999999999990E-002    -8.5815517955251797E-042
  -9.6899999999999986E-002    -3.8395577922499988E-043
  -9.5799999999999996E-002     2.1286003932786836E-040
  -9.4699999999999993E-002     1.4328276797721255E-040
  -9.3599999999999989E-002    -3.9424130995314403E-041
  -9.2499999999999999E-002    -2.0321854537392789E-039
  -9.1399999999999995E-002    -9.4551128503944848E-039
  -9.0299999999999991E-002     6.2001683696700137E-039
  -8.9200000000000002E-002    -1.3742944339823835E-037
  -8.8099999999999984E-002     1.2439341041315430E-037
  -8.6999999999999994E-002     6.7582517381495583E-037
  -8.5899999999999990E-002     3.9860472916329722E-038
  -8.4799999999999986E-002     2.6475154742313364E-036
  -8.3699999999999997E-002    -2.1588173655816720E-036
  -8.2599999999999993E-002    -3.4767604449876711E-035
  -8.1499999999999989E-002    -5.2548414394565318E-035
  -8.0399999999999999E-002    -1.1017324390405958E-035
  -7.9299999999999995E-002     6.0169715946909792E-035
  -7.8199999999999992E-002    -5.5073012361978066E-034
  -7.7100000000000002E-002    -3.3126326202259602E-034
  -7.5999999999999984E-002    -1.1179638894597437E-034
  -7.4899999999999994E-002    -4.1627869607745979E-033
  -7.3799999999999991E-002    -1.1060748707189050E-032
  -7.2699999999999987E-002    -1.4162748259946507E-032
  -7.1599999999999997E-002    -2.4856671465333984E-032
  -7.0499999999999993E-002    -1.2774824447515370E-032
  -6.9399999999999989E-002     1.4490869875563286E-032
  -6.8300000000000000E-002     1.4804349827419811E-031
  -6.7199999999999996E-002     2.2086074185989658E-031
  -6.6099999999999992E-002     1.1147181190500280E-031
  -6.5000000000000002E-002    -2.4085867493405163E-031
  -6.3899999999999985E-002     1.3563549712443240E-031
  -6.2799999999999995E-002     5.1212969269280345E-031
  -6.1699999999999991E-002     1.1315654686552222E-030
  -6.0599999999999994E-002     4.1482259947015272E-031
  -5.9499999999999990E-002    -3.2172189523248446E-030
  -5.8399999999999994E-002     2.8684018182663583E-030
  -5.7299999999999990E-002     1.2841088251320516E-029
  -5.6199999999999986E-002     6.2937472175794326E-030
  -5.5099999999999996E-002     2.3068794892401387E-029
  -5.3999999999999992E-002     2.4295583678953444E-029
  -5.2899999999999989E-002    -4.4444799678714690E-029
  -5.1799999999999985E-002    -2.5311953183872151E-028
  -5.0699999999999995E-002    -2.4411862602125485E-028
  -4.9599999999999991E-002     3.8681267745672524E-028
  -4.8499999999999988E-002     5.2019969651006861E-028
  -4.7399999999999998E-002     2.1823540349727856E-028
  -4.6299999999999994E-002     2.8942930574737282E-028
  -4.5199999999999990E-002    -3.8569323067655016E-028
  -4.4099999999999986E-002    -1.0608157911745974E-027
  -4.2999999999999997E-002     2.5864778855863869E-027
  -4.1899999999999993E-002     4.2435944246488244E-027
  -4.0799999999999989E-002     3.9105333445302288E-027
  -3.9699999999999985E-002    -3.3881479582745238E-027
  -3.8599999999999995E-002    -1.1930690730475784E-026
  -3.7499999999999992E-002    -2.4453587970667132E-026
  -3.6399999999999988E-002    -2.9015773963762371E-026
  -3.5299999999999984E-002     1.4186290577535538E-026
  -3.4199999999999994E-002     8.4255749607399989E-026
  -3.3099999999999991E-002     8.6659180755502997E-026
  -3.1999999999999987E-002    -6.4658953281561122E-027
  -3.0899999999999997E-002    -1.6327664289965663E-025
  -2.9799999999999993E-002    -1.7281426706661812E-025
  -2.8699999999999989E-002    -2.3137710973232130E-026
  -2.7599999999999986E-002     2.2206735235191598E-025
  -2.6499999999999996E-002     3.7174389766009428E-025
  -2.5399999999999992E-002     4.3777897564998271E-026
  -2.4299999999999988E-002    -5.7077365195877529E-025
  -2.3199999999999985E-002    -1.0579538831587693E-024
  -2.2099999999999995E-002    -1.6677952428250814E-026
  -2.0999999999999991E-002     2.4893683239150070E-024
  -1.9899999999999987E-002     4.9317292153487991E-024
  -1.8799999999999983E-002     2.7887215131389767E-024
  -1.7699999999999994E-002    -4.1943974933177290E-024
  -1.6599999999999990E-002    -1.2705972763394048E-023
  -1.5499999999999986E-002    -1.5294780751501464E-023
  -1.4399999999999996E-002    -4.6369689715302524E-024
  -1.3299999999999992E-002     1.6210550443710811E-023
  -1.2199999999999989E-002     3.2982186094869119E-023
  -1.1099999999999985E-002     3.0648120225719294E-023
  -9.9999999999999950E-003    -2.2550717046837089E-024
  -8.8999999999999913E-003    -5.1461795535974112E-023
  -7.7999999999999875E-003    -8.0289101730142096E-023
  -6.6999999999999837E-003    -4.1864340213656134E-023
  -5.5999999999999939E-003     5.8208152930085931E-023
  -4.4999999999999901E-003     1.4605300227575833E-022
  -3.3999999999999864E-003     1.4015253727487138E-022
  -2.2999999999999826E-003    -1.6555596625932671E-023
  -1.1999999999999927E-003    -2.6700904487329607E-022
  -9.9999999999988987E-005    -3.9111009288421997E-022
   1.0000000000000148E-003    -1.0762287966056048E-022
   2.1000000000000185E-003     4.0411377702007900E-022
   3.2000000000000084E-003     7.6096693507369063E-022
   4.3000000000000121E-003     5.7980342522432586E-022
   5.4000000000000159E-003    -3.8392956538053623E-022
   6.5000000000000058E-003    -1.7389475109333132E-021
   7.6000000000000234E-003    -2.1483605147267559E-021
   8.7000000000000133E-003    -6.4210849255579729E-022
   9.8000000000000032E-003     2.2988542737843802E-021
   1.0900000000000021E-002     4.3920338041078581E-021
   1.2000000000000011E-002     3.2245067396836895E-021
   1.3100000000000001E-002    -1.8232609644833350E-021
   1.4200000000000018E-002    -7.9144544073845654E-021
   1.5300000000000008E-002    -9.7015159207007269E-021
   1.6400000000000026E-002    -3.7933101369843197E-021
   1.7500000000000016E-002     8.5058804674243108E-021
   1.8600000000000005E-002     1.9435572997452319E-020
   1.9700000000000023E-002     1.7844153431495587E-020
   2.0800000000000013E-002    -1.4855095494460091E-021
   2.1900000000000003E-002    -2.7858299195095176E-020
   2.3000000000000020E-002    -4.0666547976799520E-020
   2.4100000000000010E-002    -2.1650302235536168E-020
   2.5200000000000000E-002     2.7103585743432902E-020
   2.6300000000000018E-002     7.5857476953576241E-020
   2.7400000000000008E-002     7.6092053743068915E-020
   2.8500000000000025E-002     1.7216631519813629E-021
   2.9600000000000015E-002    -1.1334234255885016E-019
   3.0700000000000005E-002    -1.7519161923641745E-019
   3.1800000000000023E-002    -9.0961245639169002E-020
   3.2900000000000013E-002     1.3621850061279578E-019
   3.4000000000000002E-002     3.5400742692915942E-019
   3.5100000000000020E-002     3.2972153339157324E-019
   3.6200000000000010E-002    -4.9329238947026584E-020
   3.7300000000000028E-002    -5.9532819410658473E-019
   3.8400000000000017E-002    -8.4108127934940474E-019
   3.9500000000000007E-002    -3.5226248942697881E-019
   4.0600000000000025E-002     7.6678572618748175E-019
   4.1700000000000015E-002     1.7021909794729794E-018
   4.2800000000000005E-002     1.3959192926642485E-018
   4.3900000000000022E-002    -5.1931546569178995E-019
   4.5000000000000012E-002    -2.9103522672065726E-018
   4.6100000000000002E-002    -3.5484336014656902E-018
   4.7200000000000020E-002    -8.9763572122723181E-019
   4.8300000000000010E-002     3.9078369601750803E-018
   4.9400000000000027E-002     6.9436592914161464E-018
   5.0500000000000017E-002     4.2698542096201380E-018
   5.1600000000000007E-002    -3.9967142082714530E-018
   5.2700000000000025E-002    -1.1954428274686769E-017
   5.3800000000000014E-002    -1.1207360931640115E-017
   5.4900000000000004E-002     1.4598064838772050E-018
   5.6000000000000022E-002     1.8367457820595049E-017
   5.7100000000000012E-002     2.3722295888379554E-017
   5.8200000000000002E-002     6.9231112978197166E-018
   5.9300000000000019E-002    -2.4367175820093245E-017
   6.0400000000000009E-002    -4.4138036539751886E-017
   6.1500000000000027E-002    -2.6913184805972261E-017
   6.2600000000000017E-002     2.5905012112308955E-017
   6.3700000000000007E-002     7.4983571803352236E-017
   6.4800000000000024E-002     6.8201273115568647E-017
   6.5900000000000014E-002    -1.0902969219568564E-017
   6.7000000000000004E-002    -1.1177724704653565E-016
   6.8100000000000022E-002    -1.4012925297103980E-016
   6.9200000000000012E-002    -3.7426938250374411E-017
   7.0300000000000029E-002     1.4541050339717036E-016
   7.1400000000000019E-002     2.5532497940890600E-016
   7.2500000000000009E-002     1.5274784689342193E-016
   7.3600000000000027E-002    -1.4188646252478825E-016
   7.4700000000000016E-002    -4.0854026937520410E-016
   7.5800000000000006E-002    -3.7361887443514261E-016
   7.6900000000000024E-002     4.1677213922076031E-017
   7.8000000000000014E-002     5.6649129407982139E-016
   7.9100000000000004E-002     7.2628988293085752E-016
   8.0200000000000021E-002     2.3926449357513562E-016
   8.1300000000000011E-002    -6.4015589661795577E-016
   8.2400000000000029E-002    -1.1910223444966915E-015
   8.3500000000000019E-002    -7.7385650039158045E-016
   8.4600000000000009E-002     5.1678221265813711E-016
   8.5700000000000026E-002     1.7088547721303055E-015
   8.6800000000000016E-002     1.6171628203153171E-015
   8.7900000000000006E-002    -7.0820808531736276E-017
   8.9000000000000024E-002    -2.2134376986447310E-015
   9.0100000000000013E-002    -2.8790306828830031E-015
   9.1200000000000003E-002    -9.6747838537590168E-016
   9.2300000000000021E-002     2.4773259429223616E-015
   9.3400000000000011E-002     4.6346258977131034E-015
   9.4500000000000028E-002     3.0576290621192300E-015
   9.5600000000000018E-002    -1.8829061726265530E-015
   9.6700000000000008E-002    -6.5541876328903230E-015
   9.7800000000000026E-002    -6.5220719551787026E-015
   9.8900000000000016E-002    -5.1294483576971991E-016
  0.10000000000000001          7.5845032633374034E-015
  0.10110000000000002          1.0929405031825587E-014
  0.10220000000000001          5.2713926566904171E-015
  0.10330000000000003         -6.5132166492316325E-015
  0.10440000000000002         -1.5254827904890612E-014
  0.10550000000000001         -1.2344524342078507E-014
  0.10660000000000003          2.3360247536943464E-015
  0.10770000000000002          1.8279502938438677E-014
  0.10880000000000001          2.1407773489567732E-014
  0.10990000000000003          5.9404224771121734E-015
  0.11100000000000002         -1.8472145335698617E-014
  0.11210000000000001         -3.1964966833381361E-014
  0.11320000000000002         -1.9938493198601477E-014
  0.11430000000000001          1.2636762567342502E-014
  0.11540000000000003          4.1341492810478483E-014
  0.11650000000000002          3.9782928470608048E-014
  0.11760000000000001          2.6400936998908792E-015
  0.11870000000000003         -4.4913891534973174E-014
  0.11980000000000002         -6.2969608368747265E-014
  0.12090000000000001         -2.9017630990115298E-014
  0.12200000000000003          3.8176530486140267E-014
  0.12310000000000001          8.6189552944791054E-014
  0.12420000000000003          6.8367837433025436E-014
  0.12530000000000002         -1.3732933315372710E-014
  0.12640000000000001         -1.0117604589418919E-013
  0.12750000000000003         -1.1782031784663555E-013
  0.12860000000000002         -3.4746575598319437E-014
  0.12970000000000001          9.3835380546476721E-014
  0.13080000000000003          1.6228393683124370E-013
  0.13190000000000002          9.8333227140350726E-014
  0.13300000000000001         -6.3745605744913031E-014
  0.13410000000000000         -1.9310368462675115E-013
  0.13520000000000004         -1.6299501082606832E-013
  0.13630000000000003          2.8563499357642588E-014
  0.13740000000000002          2.3058443175683063E-013
  0.13850000000000001          2.5159830273867312E-013
  0.13960000000000000          3.0813540738069967E-014
  0.14070000000000005         -2.7797878473893867E-013
  0.14180000000000004         -3.9721630390281149E-013
  0.14290000000000003         -1.7071455739921942E-013
  0.14400000000000002          2.7140835694335064E-013
  0.14510000000000001          5.5789390034782782E-013
  0.14620000000000000          3.8293790339226363E-013
  0.14730000000000004         -1.7140129105527174E-013
  0.14840000000000003         -6.5653792081718509E-013
  0.14950000000000002         -5.8805412796181233E-013
  0.15060000000000001          2.7485451726551834E-014
  0.15170000000000000          6.2880158979011780E-013
  0.15280000000000005          5.6489784638208418E-013
  0.15390000000000004         -1.2593180350514016E-013
  0.15500000000000003         -7.2923248385994843E-013
  0.15610000000000002         -5.3164357681836916E-013
  0.15720000000000001          4.7339969401136162E-013
  0.15830000000000000          1.5025133914825517E-012
  0.15940000000000004          1.5994442098890560E-012
  0.16050000000000003          1.4711310240746872E-013
  0.16160000000000002         -2.0185786635956715E-012
  0.16270000000000001         -3.1864409114762404E-012
  0.16380000000000000         -2.0960570518840926E-012
  0.16490000000000005          6.0485893637468591E-013
  0.16600000000000004          2.0278524952982435E-012
  0.16710000000000003          1.4376810289137842E-012
  0.16820000000000002         -9.0306896075725840E-013
  0.16930000000000001         -2.1059430241332500E-012
  0.17040000000000000          8.7305407044449557E-014
  0.17150000000000004          4.3462364783530827E-012
  0.17260000000000003          6.7145421167591479E-012
  0.17370000000000002          4.6013674641354196E-012
  0.17480000000000001         -5.9282564751281241E-013
  0.17590000000000000         -4.5266021833634262E-012
  0.17700000000000005         -8.0402394811440736E-012
  0.17810000000000004         -9.1730902387898716E-012
  0.17920000000000003         -5.5443679161659709E-012
  0.18030000000000002          3.1260209264888372E-012
  0.18140000000000001          1.2916780492422397E-011
  0.18250000000000000          2.3267724552633595E-011
  0.18360000000000004          2.7176540531859139E-011
  0.18470000000000003          8.3978596646105963E-012
  0.18580000000000002         -2.4385448521568875E-011
  0.18690000000000001         -3.9242834676267435E-011
  0.18800000000000000         -8.7252280053795594E-012
  0.18910000000000005          3.9718301564350966E-011
  0.19020000000000004          5.1189615046798309E-011
  0.19130000000000003          2.5128524261397445E-011
  0.19240000000000002         -1.8298305579089735E-011
  0.19350000000000001         -3.5956623095634299E-011
  0.19460000000000005         -8.8001333650722380E-012
  0.19570000000000004          3.6282282733779425E-011
  0.19680000000000003          3.5429520428564842E-011
  0.19790000000000002         -2.7043601733001132E-011
  0.19900000000000001         -7.6072280419392513E-011
  0.20010000000000000         -5.3397262306242865E-011
  0.20120000000000005          3.5379591617479278E-011
  0.20230000000000004          1.2415644901064837E-010
  0.20340000000000003          1.6139628522537919E-010
  0.20450000000000002          1.2245093827800702E-010
  0.20560000000000000          5.2135226691341074E-011
  0.20670000000000005         -5.6273076476376360E-011
  0.20780000000000004         -1.8036655502484678E-010
  0.20890000000000003         -2.0586746196649131E-010
