 -0.12000000000000000          0.0000000000000000
 -0.11889999999999999          0.0000000000000000
 -0.11780000000000000          0.0000000000000000
 -0.11670000000000000         -1.1478200612202727E-009
 -0.11559999999999999         -6.1524652039679495E-009
 -0.11449999999999999         -1.3613202121121049E-008
 -0.11340000000000000         -1.0118716531337668E-008
 -0.11230000000000000          2.3768849999328268E-008
 -0.11119999999999999          8.6233313822958735E-008
 -0.11009999999999999          1.2876895993940707E-007
 -0.10900000000000000          7.2245079252297728E-008
 -0.10790000000000000         -1.2569812213314435E-007
 -0.10679999999999999         -3.9837686927057803E-007
 -0.10569999999999999         -5.6253219327118131E-007
 -0.10460000000000000         -4.0468424344908271E-007
 -0.10349999999999999          1.7593370671420416E-007
 -0.10239999999999999          1.0393270031272550E-006
 -0.10130000000000000          1.7597900523469434E-006
 -0.10020000000000000          1.7302011201536516E-006
  -9.9099999999999994E-002     4.7169862682494568E-007
  -9.7999999999999990E-002    -1.8998448467755225E-006
  -9.6899999999999986E-002    -4.3299387471051887E-006
  -9.5799999999999996E-002    -5.0535481932456605E-006
  -9.4699999999999993E-002    -2.6292455004295334E-006
  -9.3599999999999989E-002     2.6677071218728088E-006
  -9.2499999999999999E-002     8.2125961853307672E-006
  -9.1399999999999995E-002     1.0153439689020161E-005
  -9.0299999999999991E-002     6.0524444052134641E-006
  -8.9200000000000002E-002    -2.7427104214439169E-006
  -8.8099999999999984E-002    -1.1185585208295379E-005
  -8.6999999999999994E-002    -1.3680823940376285E-005
  -8.5899999999999990E-002    -8.2818260125350207E-006
  -8.4799999999999986E-002     1.4641670986748068E-006
  -8.3699999999999997E-002     8.9472378022037446E-006
  -8.2599999999999993E-002     9.6141129688476212E-006
  -8.1499999999999989E-002     4.6102377382339910E-006
  -8.0399999999999999E-002    -3.0535991868418932E-007
  -7.9299999999999995E-002     1.4553688743035309E-007
  -7.8199999999999992E-002     5.9791823332489002E-006
  -7.7100000000000002E-002     1.1649152838799637E-005
  -7.5999999999999984E-002     1.0419009413453750E-005
  -7.4899999999999994E-002    -5.9272565522405785E-007
  -7.3799999999999991E-002    -1.9148215869790874E-005
  -7.2699999999999987E-002    -4.1129955206997693E-005
  -7.1599999999999997E-002    -6.4752093749120831E-005
  -7.0499999999999993E-002    -9.1632609837688506E-005
  -6.9399999999999989E-002    -1.2420666462276131E-004
  -6.8300000000000000E-002    -1.6291570500470698E-004
  -6.7199999999999996E-002    -2.0669975492637604E-004
  -6.6099999999999992E-002    -2.5640468811616302E-004
  -6.5000000000000002E-002    -3.1706009758636355E-004
  -6.3899999999999985E-002    -3.9581331657245755E-004
  -6.2799999999999995E-002    -4.9710733583196998E-004
  -6.1699999999999991E-002    -6.2036287272349000E-004
  -6.0599999999999994E-002    -7.6356582576408982E-004
  -5.9499999999999990E-002    -9.3010650016367435E-004
  -5.8399999999999994E-002    -1.1321826605126262E-003
  -5.7299999999999990E-002    -1.3868246460333467E-003
  -5.6199999999999986E-002    -1.7079926328733563E-003
  -5.5099999999999996E-002    -2.1027256734669209E-003
  -5.3999999999999992E-002    -2.5757681578397751E-003
  -5.2899999999999989E-002    -3.1384625472128391E-003
  -5.1799999999999985E-002    -3.8127892185002565E-003
  -5.0699999999999995E-002    -4.6260063536465168E-003
  -4.9599999999999991E-002    -5.6013693101704121E-003
  -4.8499999999999988E-002    -6.7555368877947330E-003
  -4.7399999999999998E-002    -8.1073651090264320E-003
  -4.6299999999999994E-002    -9.6909012645483017E-003
  -4.5199999999999990E-002    -1.1559628881514072E-002
  -4.4099999999999986E-002    -1.3776328414678574E-002
  -4.2999999999999997E-002    -1.6397066414356232E-002
  -4.1899999999999993E-002    -1.9464826211333275E-002
  -4.0799999999999989E-002    -2.3020083084702492E-002
  -3.9699999999999985E-002    -2.7119413018226624E-002
  -3.8599999999999995E-002    -3.1844962388277054E-002
  -3.7499999999999992E-002    -3.7295930087566376E-002
  -3.6399999999999988E-002    -4.3570768088102341E-002
  -3.5299999999999984E-002    -5.0758086144924164E-002
  -3.4199999999999994E-002    -5.8945611119270325E-002
  -3.3099999999999991E-002    -6.8238198757171631E-002
  -3.1999999999999987E-002    -7.8766018152236938E-002
  -3.0899999999999997E-002    -9.0673148632049561E-002
  -2.9799999999999993E-002   -0.10409650951623917
  -2.8699999999999989E-002   -0.11915481835603714
  -2.7599999999999986E-002   -0.13595734536647797
  -2.6499999999999996E-002   -0.15462298691272736
  -2.5399999999999992E-002   -0.17528940737247467
  -2.4299999999999988E-002   -0.19810245931148529
  -2.3199999999999985E-002   -0.22319522500038147
  -2.2099999999999995E-002   -0.25067549943923950
  -2.0999999999999991E-002   -0.28063100576400757
  -1.9899999999999987E-002   -0.31314072012901306
  -1.8799999999999983E-002   -0.34827494621276855
  -1.7699999999999994E-002   -0.38607990741729736
  -1.6599999999999990E-002   -0.42655766010284424
  -1.5499999999999986E-002   -0.46965828537940979
  -1.4399999999999996E-002   -0.51529002189636230
  -1.3299999999999992E-002   -0.56333166360855103
  -1.2199999999999989E-002   -0.61362957954406738
  -1.1099999999999985E-002   -0.66597771644592285
  -9.9999999999999950E-003   -0.72009754180908203
  -8.8999999999999913E-003   -0.77563607692718506
  -7.7999999999999875E-003   -0.83217805624008179
  -6.6999999999999837E-003   -0.88925403356552124
  -5.5999999999999939E-003   -0.94633066654205322
  -4.4999999999999901E-003    -1.0027887821197510
  -3.3999999999999864E-003    -1.0579147338867188
  -2.2999999999999826E-003    -1.1109228134155273
  -1.1999999999999927E-003    -1.1609915494918823
  -9.9999999999988987E-005    -1.2072819471359253
   1.0000000000000148E-003    -1.2489204406738281
   2.1000000000000185E-003    -1.2849664688110352
   3.2000000000000084E-003    -1.3144028186798096
   4.3000000000000121E-003    -1.3361688852310181
   5.4000000000000159E-003    -1.3492180109024048
   6.5000000000000058E-003    -1.3525569438934326
   7.6000000000000234E-003    -1.3452472686767578
   8.7000000000000133E-003    -1.3263826370239258
   9.8000000000000032E-003    -1.2950801849365234
   1.0900000000000021E-002    -1.2505151033401489
   1.2000000000000011E-002    -1.1919797658920288
   1.3100000000000001E-002    -1.1189328432083130
   1.4200000000000018E-002    -1.0310019254684448
   1.5300000000000008E-002   -0.92795580625534058
   1.6400000000000026E-002   -0.80969184637069702
   1.7500000000000016E-002   -0.67626541852951050
   1.8600000000000005E-002   -0.52794814109802246
   1.9700000000000023E-002   -0.36525827646255493
   2.0800000000000013E-002   -0.18895216286182404
   2.1900000000000003E-002     7.6903424996999092E-006
   2.3000000000000020E-002    0.20047315955162048
   2.4100000000000010E-002    0.41109529137611389
   2.5200000000000000E-002    0.63030272722244263
   2.6300000000000018E-002    0.85630601644515991
   2.7400000000000008E-002     1.0871407985687256
   2.8500000000000025E-002     1.3207172155380249
   2.9600000000000015E-002     1.5548434257507324
   3.0700000000000005E-002     1.7872245311737061
   3.1800000000000023E-002     2.0154700279235840
   3.2900000000000013E-002     2.2371375560760498
   3.4000000000000002E-002     2.4497990608215332
   3.5100000000000020E-002     2.6510970592498779
   3.6200000000000010E-002     2.8387577533721924
   3.7300000000000028E-002     3.0105898380279541
   3.8400000000000017E-002     3.1644997596740723
   3.9500000000000007E-002     3.2985422611236572
   4.0600000000000025E-002     3.4110043048858643
   4.1700000000000015E-002     3.5004692077636719
   4.2800000000000005E-002     3.5658204555511475
   4.3900000000000022E-002     3.6062026023864746
   4.5000000000000012E-002     3.6209931373596191
   4.6100000000000002E-002     3.6098258495330811
   4.7200000000000020E-002     3.5726535320281982
   4.8300000000000010E-002     3.5097961425781250
   4.9400000000000027E-002     3.4219238758087158
   5.0500000000000017E-002     3.3099856376647949
   5.1600000000000007E-002     3.1751434803009033
   5.2700000000000025E-002     3.0187571048736572
   5.3800000000000014E-002     2.8424208164215088
   5.4900000000000004E-002     2.6480021476745605
   5.6000000000000022E-002     2.4376096725463867
   5.7100000000000012E-002     2.2134931087493896
   5.8200000000000002E-002     1.9779523611068726
   5.9300000000000019E-002     1.7333018779754639
   6.0400000000000009E-002     1.4818801879882812
   6.1500000000000027E-002     1.2260612249374390
   6.2600000000000017E-002    0.96822220087051392
   6.3700000000000007E-002    0.71068394184112549
   6.4800000000000024E-002    0.45565548539161682
   6.5900000000000014E-002    0.20519612729549408
   6.7000000000000004E-002    -3.8785252720117569E-002
   6.8100000000000022E-002   -0.27451810240745544
   6.9200000000000012E-002   -0.50037580728530884
   7.0300000000000029E-002   -0.71490806341171265
   7.1400000000000019E-002   -0.91687667369842529
   7.2500000000000009E-002    -1.1052653789520264
   7.3600000000000027E-002    -1.2792558670043945
   7.4700000000000016E-002    -1.4382094144821167
   7.5800000000000006E-002    -1.5816773176193237
   7.6900000000000024E-002    -1.7094149589538574
   7.8000000000000014E-002    -1.8213672637939453
   7.9100000000000004E-002    -1.9176230430603027
   8.0200000000000021E-002    -1.9983838796615601
   8.1300000000000011E-002    -2.0639553070068359
   8.2400000000000029E-002    -2.1147618293762207
   8.3500000000000019E-002    -2.1513664722442627
   8.4600000000000009E-002    -2.1744487285614014
   8.5700000000000026E-002    -2.1847434043884277
   8.6800000000000016E-002    -2.1829919815063477
   8.7900000000000006E-002    -2.1699378490447998
   8.9000000000000024E-002    -2.1463651657104492
   9.0100000000000013E-002    -2.1131308078765869
   9.1200000000000003E-002    -2.0711488723754883
   9.2300000000000021E-002    -2.0213284492492676
   9.3400000000000011E-002    -1.9645093679428101
   9.4500000000000028E-002    -1.9014488458633423
   9.5600000000000018E-002    -1.8328658342361450
   9.6700000000000008E-002    -1.7595003843307495
   9.7800000000000026E-002    -1.6821271181106567
   9.8900000000000016E-002    -1.6015133857727051
  0.10000000000000001         -1.5183581113815308
  0.10110000000000002         -1.4332674741744995
  0.10220000000000001         -1.3467864990234375
  0.10330000000000003         -1.2594554424285889
  0.10440000000000002         -1.1718374490737915
  0.10550000000000001         -1.0844917297363281
  0.10660000000000003        -0.99792009592056274
  0.10770000000000002        -0.91253602504730225
  0.10880000000000001        -0.82868105173110962
  0.10990000000000003        -0.74667072296142578
  0.11100000000000002        -0.66682636737823486
  0.11210000000000001        -0.58946758508682251
  0.11320000000000002        -0.51488059759140015
  0.11430000000000001        -0.44329535961151123
  0.11540000000000003        -0.37489235401153564
  0.11650000000000002        -0.30982646346092224
  0.11760000000000001        -0.24824148416519165
  0.11870000000000003        -0.19026151299476624
  0.11980000000000002        -0.13597193360328674
  0.12090000000000001         -8.5412174463272095E-002
  0.12200000000000003         -3.8589842617511749E-002
  0.12310000000000001          4.5018750242888927E-003
  0.12420000000000003          4.3885696679353714E-002
  0.12530000000000002          7.9615846276283264E-002
  0.12640000000000001         0.11179020255804062
  0.12750000000000003         0.14053779840469360
  0.12860000000000002         0.16598607599735260
  0.12970000000000001         0.18823602795600891
  0.13080000000000003         0.20737463235855103
  0.13190000000000002         0.22351899743080139
  0.13300000000000001         0.23684734106063843
  0.13410000000000000         0.24758677184581757
  0.13520000000000004         0.25596284866333008
  0.13630000000000003         0.26215481758117676
  0.13740000000000002         0.26629859209060669
  0.13850000000000001         0.26853159070014954
  0.13960000000000000         0.26903831958770752
  0.14070000000000005         0.26805195212364197
  0.14180000000000004         0.26580351591110229
  0.14290000000000003         0.26246231794357300
  0.14400000000000002         0.25812408328056335
  0.14510000000000001         0.25286060571670532
  0.14620000000000000         0.24678416550159454
  0.14730000000000004         0.24006849527359009
  0.14840000000000003         0.23290836811065674
  0.14950000000000002         0.22545336186885834
  0.15060000000000001         0.21777772903442383
  0.15170000000000000         0.20991159975528717
  0.15280000000000005         0.20190052688121796
  0.15390000000000004         0.19383662939071655
  0.15500000000000003         0.18583372235298157
  0.15610000000000002         0.17797370254993439
  0.15720000000000001         0.17027667164802551
  0.15830000000000000         0.16272340714931488
  0.15940000000000004         0.15530666708946228
  0.16050000000000003         0.14806048572063446
  0.16160000000000002         0.14104196429252625
  0.16270000000000001         0.13429056107997894
  0.16380000000000000         0.12780760228633881
  0.16490000000000005         0.12157479673624039
  0.16600000000000004         0.11558783054351807
  0.16710000000000003         0.10986661165952682
  0.16820000000000002         0.10443048179149628
  0.16930000000000001          9.9267788231372833E-002
  0.17040000000000000          9.4337761402130127E-002
  0.17150000000000004          8.9606091380119324E-002
  0.17260000000000003          8.5077375173568726E-002
  0.17370000000000002          8.0785170197486877E-002
  0.17480000000000001          7.6745465397834778E-002
  0.17590000000000000          7.2922676801681519E-002
  0.17700000000000005          6.9248639047145844E-002
  0.17810000000000004          6.5681658685207367E-002
  0.17920000000000003          6.2245339155197144E-002
  0.18030000000000002          5.9001989662647247E-002
  0.18140000000000001          5.5980395525693893E-002
  0.18250000000000000          5.3127594292163849E-002
  0.18360000000000004          5.0337161868810654E-002
  0.18470000000000003          4.7531902790069580E-002
  0.18580000000000002          4.4721432030200958E-002
  0.18690000000000001          4.1974984109401703E-002
  0.18800000000000000          3.9331831037998199E-002
  0.18910000000000005          3.6736827343702316E-002
  0.19020000000000004          3.4067410975694656E-002
  0.19130000000000003          3.1227461993694305E-002
  0.19240000000000002          2.8216518461704254E-002
  0.19350000000000001          2.5104772299528122E-002
  0.19460000000000005          2.1936329081654549E-002
  0.19570000000000004          1.8655598163604736E-002
  0.19680000000000003          1.5129257924854755E-002
  0.19790000000000002          1.1240620166063309E-002
  0.19900000000000001          6.9616870023310184E-003
  0.20010000000000000          2.3325502406805754E-003
  0.20120000000000005         -2.6282870676368475E-003
  0.20230000000000004         -7.9895108938217163E-003
  0.20340000000000003         -1.3882354833185673E-002
  0.20450000000000002         -2.0414179190993309E-002
  0.20560000000000000         -2.7611045166850090E-002
  0.20670000000000005         -3.5447735339403152E-002
  0.20780000000000004         -4.3930958956480026E-002
  0.20890000000000003         -5.3145803511142731E-002
