 -0.12000000000000000          0.0000000000000000
 -0.11889999999999999          0.0000000000000000
 -0.11780000000000000          0.0000000000000000
 -0.11670000000000000          0.0000000000000000
 -0.11559999999999999          0.0000000000000000
 -0.11449999999999999          0.0000000000000000
 -0.11340000000000000          0.0000000000000000
 -0.11230000000000000          0.0000000000000000
 -0.11119999999999999          0.0000000000000000
 -0.11009999999999999          0.0000000000000000
 -0.10900000000000000         -1.0791342028739700E-022
 -0.10790000000000000         -3.0399389857948212E-022
 -0.10679999999999999          3.4549706482302569E-021
 -0.10569999999999999          2.0636768493850027E-020
 -0.10460000000000000          6.7972444003486994E-021
 -0.10349999999999999         -2.7713476671943333E-019
 -0.10239999999999999         -9.5466051868087184E-019
 -0.10130000000000000         -1.6724543792889750E-019
 -0.10020000000000000          7.4257542144824643E-018
  -9.9099999999999994E-002     2.1107232210603386E-017
  -9.7999999999999990E-002     5.6975538848162504E-018
  -9.6899999999999986E-002    -1.1174410688247433E-016
  -9.5799999999999996E-002    -3.0139335440461368E-016
  -9.4699999999999993E-002    -1.3950459264221935E-016
  -9.3599999999999989E-002     1.1206799639963661E-015
  -9.2499999999999999E-002     3.1684281714001441E-015
  -9.1399999999999995E-002     2.2826786186762706E-015
  -9.0299999999999991E-002    -7.8173661730647666E-015
  -8.9200000000000002E-002    -2.5718095459249107E-014
  -8.8099999999999984E-002    -2.6107564596528424E-014
  -8.6999999999999994E-002     3.5716523190615704E-014
  -8.5899999999999990E-002     1.6286105764765774E-013
  -8.4799999999999986E-002     2.1904232713667454E-013
  -8.3699999999999997E-002    -6.5246432930966825E-014
  -8.2599999999999993E-002    -7.9547230347892794E-013
  -8.1499999999999989E-002    -1.3955882890298588E-012
  -8.0399999999999999E-002    -4.9971832227768687E-013
  -7.9299999999999995E-002     2.8593924103481605E-012
  -7.8199999999999992E-002     6.8719548280971043E-012
  -7.7100000000000002E-002     5.7802239557258606E-012
  -7.5999999999999984E-002    -6.3153028813378587E-012
  -7.4899999999999994E-002    -2.6064454414220783E-011
  -7.3799999999999991E-002    -3.3617029299159995E-011
  -7.2699999999999987E-002    -1.6599522320928650E-012
  -7.1599999999999997E-002     7.3112127463303977E-011
  -7.0499999999999993E-002     1.3666601184070259E-010
  -6.9399999999999989E-002     8.8841531353800463E-011
  -6.8300000000000000E-002    -1.2870103593964899E-010
  -6.7199999999999996E-002    -4.1039380227481104E-010
  -6.6099999999999992E-002    -4.6232478956298451E-010
  -6.5000000000000002E-002    -6.7329545801533830E-013
  -6.3899999999999985E-002     8.8234891615357469E-010
  -6.2799999999999995E-002     1.5058603253237379E-009
  -6.1699999999999991E-002     9.3469088024988878E-010
  -6.0599999999999994E-002    -1.1148759693213606E-009
  -5.9499999999999990E-002    -3.4583826913348048E-009
  -5.8399999999999994E-002    -3.7521545870333739E-009
  -5.7299999999999990E-002    -3.4517849689663649E-010
  -5.6199999999999986E-002     5.4521267500717840E-009
  -5.5099999999999996E-002     9.0200371616333541E-009
  -5.3999999999999992E-002     5.5541464760722192E-009
  -5.2899999999999989E-002    -4.8664730023517677E-009
  -5.1799999999999985E-002    -1.4895667810321811E-008
  -5.0699999999999995E-002    -1.4326023922706099E-008
  -4.9599999999999991E-002     1.8338255913796786E-010
  -4.8499999999999988E-002     1.8395441614416086E-008
  -4.7399999999999998E-002     2.1960934404319232E-008
  -4.6299999999999994E-002     1.8109168609115045E-009
  -4.5199999999999990E-002    -2.6801782126995022E-008
  -4.4099999999999986E-002    -3.0529861305694794E-008
  -4.2999999999999997E-002     1.0727999821824596E-008
  -4.1899999999999993E-002     7.1007931978783745E-008
  -4.0799999999999989E-002     8.2052601158011385E-008
  -3.9699999999999985E-002    -1.0218870194478313E-008
  -3.8599999999999995E-002    -1.7227776538675244E-007
  -3.7499999999999992E-002    -2.6652924134396017E-007
  -3.6399999999999988E-002    -1.4104030299222359E-007
  -3.5299999999999984E-002     2.1601262290005252E-007
  -3.4199999999999994E-002     5.8778368838829920E-007
  -3.3099999999999991E-002     6.2866854477761080E-007
  -3.1999999999999987E-002     1.3684041277883807E-007
  -3.0899999999999997E-002    -6.9561457394229365E-007
  -2.9799999999999993E-002    -1.3034107269049855E-006
  -2.8699999999999989E-002    -1.1160975645907456E-006
  -2.7599999999999986E-002    -4.5627846390061677E-008
  -2.6499999999999996E-002     1.3148103334970074E-006
  -2.5399999999999992E-002     2.0325453533587279E-006
  -2.4299999999999988E-002     1.5330704172811238E-006
  -2.3199999999999985E-002     1.0031339314764409E-007
  -2.2099999999999995E-002    -1.3009433814659133E-006
  -2.0999999999999991E-002    -1.8132648165192222E-006
  -1.9899999999999987E-002    -1.4228288591766614E-006
  -1.8799999999999983E-002    -9.1537333446467528E-007
  -1.7699999999999994E-002    -9.7376027952122968E-007
  -1.6599999999999990E-002    -1.2184742672616267E-006
  -1.5499999999999986E-002    -2.6347723292019509E-007
  -1.4399999999999996E-002     2.9114660264895065E-006
  -1.3299999999999992E-002     7.2826665018510539E-006
  -1.2199999999999989E-002     9.4922470452729613E-006
  -1.1099999999999985E-002     5.8443774832994677E-006
  -9.9999999999999950E-003    -4.4185189835843630E-006
  -8.8999999999999913E-003    -1.7075310097425245E-005
  -7.7999999999999875E-003    -2.4279099307022989E-005
  -6.6999999999999837E-003    -1.9156888811266981E-005
  -5.5999999999999939E-003    -8.7640802348687430E-007
  -4.4999999999999901E-003     2.3424236132996157E-005
  -3.3999999999999864E-003     4.1599232645239681E-005
  -2.2999999999999826E-003     4.2829386075027287E-005
  -1.1999999999999927E-003     2.3547498130938038E-005
  -9.9999999999988987E-005    -1.0422647392260842E-005
   1.0000000000000148E-003    -4.6308112359838560E-005
   2.1000000000000185E-003    -6.9560737756546587E-005
   3.2000000000000084E-003    -6.9080415414646268E-005
   4.3000000000000121E-003    -4.0861887100618333E-005
   5.4000000000000159E-003     1.0143241524929181E-005
   6.5000000000000058E-003     6.9860449002590030E-005
   7.6000000000000234E-003     1.1728760728146881E-004
   8.7000000000000133E-003     1.3006608060095459E-004
   9.8000000000000032E-003     9.3143120466265827E-005
   1.0900000000000021E-002     7.7205886555020697E-006
   1.2000000000000011E-002    -1.0411337279947475E-004
   1.3100000000000001E-002    -2.0296394359320402E-004
   1.4200000000000018E-002    -2.4451353237964213E-004
   1.5300000000000008E-002    -1.9711680943146348E-004
   1.6400000000000026E-002    -5.8058201830135658E-005
   1.7500000000000016E-002     1.3855117140337825E-004
   1.8600000000000005E-002     3.2716701389290392E-004
   1.9700000000000023E-002     4.3025225750170648E-004
   2.0800000000000013E-002     3.8708350621163845E-004
   2.1900000000000003E-002     1.8212944269180298E-004
   2.3000000000000020E-002    -1.3906390813644975E-004
   2.4100000000000010E-002    -4.7571506001986563E-004
   2.5200000000000000E-002    -7.0080114528536797E-004
   2.6300000000000018E-002    -7.0511776721104980E-004
   2.7400000000000008E-002    -4.4180185068398714E-004
   2.8500000000000025E-002     4.4247211917536333E-005
   2.9600000000000015E-002     6.1395129887387156E-004
   3.0700000000000005E-002     1.0648336028680205E-003
   3.1800000000000023E-002     1.1937610106542706E-003
   3.2900000000000013E-002     8.7921135127544403E-004
   3.4000000000000002E-002     1.5558602171950042E-004
   3.5100000000000020E-002    -7.5923890108242631E-004
   3.6200000000000010E-002    -1.5159607864916325E-003
   3.7300000000000028E-002    -1.7664859769865870E-003
   3.8400000000000017E-002    -1.3298281701281667E-003
   3.9500000000000007E-002    -3.0801587854512036E-004
   4.0600000000000025E-002     9.2333077918738127E-004
   4.1700000000000015E-002     1.8654285231605172E-003
   4.2800000000000005E-002     2.1215069573372602E-003
   4.3900000000000022E-002     1.5791059704497457E-003
   4.5000000000000012E-002     4.5053302892483771E-004
   4.6100000000000002E-002    -8.4471271838992834E-004
   4.7200000000000020E-002    -1.8776539945974946E-003
   4.8300000000000010E-002    -2.3683011531829834E-003
   4.9400000000000027E-002    -2.2254576906561852E-003
   5.0500000000000017E-002    -1.4803343219682574E-003
   5.1600000000000007E-002    -2.0309422689024359E-004
   5.2700000000000025E-002     1.5041317092254758E-003
   5.3800000000000014E-002     3.4168849233537912E-003
   5.4900000000000004E-002     5.0780256278812885E-003
   5.6000000000000022E-002     5.7955486699938774E-003
   5.7100000000000012E-002     4.8341960646212101E-003
   5.8200000000000002E-002     1.7649007495492697E-003
   5.9300000000000019E-002    -3.1952282879501581E-003
   6.0400000000000009E-002    -9.0736811980605125E-003
   6.1500000000000027E-002    -1.4408238232135773E-002
   6.2600000000000017E-002    -1.7842035740613937E-002
   6.3700000000000007E-002    -1.8794078379869461E-002
   6.4800000000000024E-002    -1.7853118479251862E-002
   6.5900000000000014E-002    -1.6637699678540230E-002
   6.7000000000000004E-002    -1.7134882509708405E-002
   6.8100000000000022E-002    -2.0829703658819199E-002
   6.9200000000000012E-002    -2.8087757527828217E-002
   7.0300000000000029E-002    -3.8136411458253860E-002
   7.1400000000000019E-002    -4.9657847732305527E-002
   7.2500000000000009E-002    -6.1656385660171509E-002
   7.3600000000000027E-002    -7.4111796915531158E-002
   7.4700000000000016E-002    -8.8079780340194702E-002
   7.5800000000000006E-002   -0.10524909198284149
   7.6900000000000024E-002   -0.12728191912174225
   7.8000000000000014E-002   -0.15535899996757507
   7.9100000000000004E-002   -0.19016157090663910
   8.0200000000000021E-002   -0.23223169147968292
   8.1300000000000011E-002   -0.28240945935249329
   8.2400000000000029E-002   -0.34206360578536987
   8.3500000000000019E-002   -0.41296702623367310
   8.4600000000000009E-002   -0.49696451425552368
   8.5700000000000026E-002   -0.59567666053771973
   8.6800000000000016E-002   -0.71050167083740234
   8.7900000000000006E-002   -0.84295374155044556
   8.9000000000000024E-002   -0.99517333507537842
   9.0100000000000013E-002    -1.1702996492385864
   9.1200000000000003E-002    -1.3724780082702637
   9.2300000000000021E-002    -1.6064356565475464
   9.3400000000000011E-002    -1.8768517971038818
   9.4500000000000028E-002    -2.1878902912139893
   9.5600000000000018E-002    -2.5431094169616699
   9.6700000000000008E-002    -2.9458808898925781
   9.7800000000000026E-002    -3.3998262882232666
   9.8900000000000016E-002    -3.9092118740081787
  0.10000000000000001         -4.4785037040710449
  0.10110000000000002         -5.1119713783264160
  0.10220000000000001         -5.8134150505065918
  0.10330000000000003         -6.5861840248107910
  0.10440000000000002         -7.4334859848022461
  0.10550000000000001         -8.3589067459106445
  0.10660000000000003         -9.3659229278564453
  0.10770000000000002         -10.457191467285156
  0.10880000000000001         -11.632861137390137
  0.10990000000000003         -12.890233039855957
  0.11100000000000002         -14.223736763000488
  0.11210000000000001         -15.625892639160156
  0.11320000000000002         -17.087886810302734
  0.11430000000000001         -18.600938796997070
  0.11540000000000003         -20.155263900756836
  0.11650000000000002         -21.738000869750977
  0.11760000000000001         -23.332860946655273
  0.11870000000000003         -24.918067932128906
  0.11980000000000002         -26.466655731201172
  0.12090000000000001         -27.948202133178711
  0.12200000000000003         -29.330476760864258
  0.12310000000000001         -30.579618453979492
  0.12420000000000003         -31.661895751953125
  0.12530000000000002         -32.540512084960938
  0.12640000000000001         -33.176143646240234
  0.12750000000000003         -33.524677276611328
  0.12860000000000002         -33.538578033447266
  0.12970000000000001         -33.171306610107422
  0.13080000000000003         -32.376720428466797
  0.13190000000000002         -31.112365722656250
  0.13300000000000001         -29.340608596801758
  0.13410000000000000         -27.021955490112305
  0.13520000000000004         -24.125226974487305
  0.13630000000000003         -20.619670867919922
  0.13740000000000002         -16.479049682617188
  0.13850000000000001         -11.691615104675293
  0.13960000000000000         -6.2540984153747559
  0.14070000000000005        -0.17850807309150696
  0.14180000000000004          6.5223412513732910
  0.14290000000000003          13.813524246215820
  0.14400000000000002          21.660575866699219
  0.14510000000000001          30.014736175537109
  0.14620000000000000          38.808284759521484
  0.14730000000000004          47.959140777587891
  0.14840000000000003          57.373210906982422
  0.14950000000000002          66.939964294433594
  0.15060000000000001          76.534698486328125
  0.15170000000000000          86.030937194824219
  0.15280000000000005          95.297348022460938
  0.15390000000000004          104.19223785400391
  0.15500000000000003          112.57276153564453
  0.15610000000000002          120.29286956787109
  0.15720000000000001          127.19963073730469
  0.15830000000000000          133.13925170898438
  0.15940000000000004          137.96510314941406
  0.16050000000000003          141.54751586914062
  0.16160000000000002          143.76835632324219
  0.16270000000000001          144.52659606933594
  0.16380000000000000          143.73728942871094
  0.16490000000000005          141.33311462402344
  0.16600000000000004          137.27523803710938
  0.16710000000000003          131.53945922851562
  0.16820000000000002          124.12561035156250
  0.16930000000000001          115.06494903564453
  0.17040000000000000          104.42284393310547
  0.17150000000000004          92.289161682128906
  0.17260000000000003          78.778007507324219
  0.17370000000000002          64.026069641113281
  0.17480000000000001          48.191467285156250
  0.17590000000000000          31.452728271484375
  0.17700000000000005          14.011390686035156
  0.17810000000000004         -3.9116175174713135
  0.17920000000000003         -22.080493927001953
  0.18030000000000002         -40.258666992187500
  0.18140000000000001         -58.209674835205078
  0.18250000000000000         -75.698852539062500
  0.18360000000000004         -92.493896484375000
  0.18470000000000003         -108.37023162841797
  0.18580000000000002         -123.11566162109375
  0.18690000000000001         -136.52865600585938
  0.18800000000000000         -148.43414306640625
  0.18910000000000005         -158.68890380859375
  0.19020000000000004         -167.17573547363281
  0.19130000000000003         -173.79414367675781
  0.19240000000000002         -178.47611999511719
  0.19350000000000001         -181.18136596679688
  0.19460000000000005         -181.90007019042969
  0.19570000000000004         -180.66921997070312
  0.19680000000000003         -177.56396484375000
  0.19790000000000002         -172.65710449218750
  0.19900000000000001         -166.05152893066406
  0.20010000000000000         -157.86358642578125
  0.20120000000000005         -148.24543762207031
  0.20230000000000004         -137.38279724121094
  0.20340000000000003         -125.47126007080078
  0.20450000000000002         -112.68688964843750
  0.20560000000000000         -99.220710754394531
  0.20670000000000005         -85.272499084472656
  0.20780000000000004         -71.052284240722656
  0.20890000000000003         -56.771457672119141
