 -0.12000000000000000          0.0000000000000000
 -0.11889999999999999          0.0000000000000000
 -0.11780000000000000          0.0000000000000000
 -0.11670000000000000          0.0000000000000000
 -0.11559999999999999          0.0000000000000000
 -0.11449999999999999          0.0000000000000000
 -0.11340000000000000          0.0000000000000000
 -0.11230000000000000          0.0000000000000000
 -0.11119999999999999          0.0000000000000000
 -0.11009999999999999          0.0000000000000000
 -0.10900000000000000          0.0000000000000000
 -0.10790000000000000          0.0000000000000000
 -0.10679999999999999         -1.2822089192734263E-035
 -0.10569999999999999          5.9675612278987249E-035
 -0.10460000000000000         -1.7434397728808529E-033
 -0.10349999999999999         -1.2307972457982483E-032
 -0.10239999999999999         -3.0727482941922060E-033
 -0.10130000000000000          8.1183395572238053E-032
 -0.10020000000000000         -3.9807688310653067E-031
  -9.9099999999999994E-002    -3.0989064803496101E-030
  -9.7999999999999990E-002    -1.9838962979731768E-030
  -9.6899999999999986E-002     3.1841426853944013E-029
  -9.5799999999999996E-002     8.9661325504676421E-029
  -9.4699999999999993E-002    -9.9940868249283921E-029
  -9.3599999999999989E-002    -9.7514599760938110E-028
  -9.2499999999999999E-002    -1.3754293513208798E-027
  -9.1399999999999995E-002     3.9174917294192999E-027
  -9.0299999999999991E-002     1.7731614834129471E-026
  -8.9200000000000002E-002     1.4749471011873254E-026
  -8.8099999999999984E-002    -7.0479113573499349E-026
  -8.6999999999999994E-002    -2.3381829835179803E-025
  -8.5899999999999990E-002    -1.4175553132909590E-025
  -8.4799999999999986E-002     8.4054263438850063E-025
  -8.3699999999999997E-002     2.4521309337449543E-024
  -8.2599999999999993E-002     1.4473632361075435E-024
  -8.1499999999999989E-002    -7.4034256744802713E-024
  -8.0399999999999999E-002    -2.1334383461129483E-023
  -7.9299999999999995E-002    -1.5020247690153689E-023
  -7.8199999999999992E-002     4.9916940826287217E-023
  -7.7100000000000002E-002     1.5647971133708826E-022
  -7.5999999999999984E-002     1.3997656449502192E-022
  -7.4899999999999994E-002    -2.5412334908530914E-022
  -7.3799999999999991E-002    -9.7013553717292963E-022
  -7.2699999999999987E-002    -1.1009647735335963E-021
  -7.1599999999999997E-002     8.7225993645325032E-022
  -7.0499999999999993E-002     5.0537104394906567E-021
  -6.9399999999999989E-002     7.2093209014807558E-021
  -6.8300000000000000E-002    -7.2982881547441512E-022
  -6.7199999999999996E-002    -2.1745515247684996E-020
  -6.6099999999999992E-002    -3.9354025602179539E-020
  -6.5000000000000002E-002    -1.5805899622808232E-020
  -6.3899999999999985E-002     7.4050423357271725E-020
  -6.2799999999999995E-002     1.7920040790348792E-019
  -6.1699999999999991E-002     1.4582878836701342E-019
  -6.0599999999999994E-002    -1.7453421744459093E-019
  -5.9499999999999990E-002    -6.7522686194278879E-019
  -5.8399999999999994E-002    -8.1850534908372466E-019
  -5.7299999999999990E-002     9.1603635395347391E-020
  -5.6199999999999986E-002     2.0472054280294330E-018
  -5.5099999999999996E-002     3.4789363679408225E-018
  -5.3999999999999992E-002     1.6879976975349117E-018
  -5.2899999999999989E-002    -4.5838246731850531E-018
  -5.1799999999999985E-002    -1.1754712960411354E-017
  -5.0699999999999995E-002    -1.1069468269166300E-017
  -4.9599999999999991E-002     4.9864362247814569E-018
  -4.8499999999999988E-002     3.1371516254065669E-017
  -4.7399999999999998E-002     4.4549439780488810E-017
  -4.6299999999999994E-002     1.4903991384470193E-017
  -4.5199999999999990E-002    -6.1413283425170692E-017
  -4.4099999999999986E-002    -1.3411402202633378E-016
  -4.2999999999999997E-002    -1.1248123730482238E-016
  -4.1899999999999993E-002     5.9784769939845694E-017
  -4.0799999999999989E-002     3.0877159371034987E-016
  -3.9699999999999985E-002     4.1139956143755900E-016
  -3.8599999999999995E-002     1.3576265254415607E-016
  -3.7499999999999992E-002    -5.0156261878275344E-016
  -3.6399999999999988E-002    -1.0702390461082541E-015
  -3.5299999999999984E-002    -9.0568013209364881E-016
  -3.4199999999999994E-002     3.2819098869645718E-016
  -3.3099999999999991E-002     2.0556684948561978E-015
  -3.1999999999999987E-002     2.8067656434715288E-015
  -3.0899999999999997E-002     1.1956856843878001E-015
  -2.9799999999999993E-002    -2.5913196369638453E-015
  -2.8699999999999989E-002    -6.0582934644697137E-015
  -2.7599999999999986E-002    -5.6066779433668230E-015
  -2.6499999999999996E-002     4.7356669756834112E-016
  -2.5399999999999992E-002     9.3077138674951300E-015
  -2.4299999999999988E-002     1.3894260057539711E-014
  -2.3199999999999985E-002     7.8396160345232425E-015
  -2.2099999999999995E-002    -8.2245188171839109E-015
  -2.0999999999999991E-002    -2.4013831288055565E-014
  -1.9899999999999987E-002    -2.4998561299347313E-014
  -1.8799999999999983E-002    -4.1499688918872433E-015
  -1.7699999999999994E-002     2.8490081929906375E-014
  -1.6599999999999990E-002     4.8328823446441502E-014
  -1.5499999999999986E-002     3.3175451453907115E-014
  -1.4399999999999996E-002    -1.5750816517484841E-014
  -1.3299999999999992E-002    -6.6757695562930791E-014
  -1.2199999999999989E-002    -7.5957930266781770E-014
  -1.1099999999999985E-002    -2.2679473181191553E-014
  -9.9999999999999950E-003     6.4782279204662202E-014
  -8.8999999999999913E-003     1.1963955488195760E-013
  -7.7999999999999875E-003     8.4980708180051184E-014
  -6.6999999999999837E-003    -3.2491875536682160E-014
  -5.5999999999999939E-003    -1.5052286402982701E-013
  -4.4999999999999901E-003    -1.6406124234754488E-013
  -3.3999999999999864E-003    -3.3365603574302127E-014
  -2.2999999999999826E-003     1.6224829368482324E-013
  -1.1999999999999927E-003     2.6303050991612065E-013
  -9.9999999999988987E-005     1.5039060491731093E-013
   1.0000000000000148E-003    -1.3507699461994677E-013
   2.1000000000000185E-003    -3.8562536952731208E-013
   3.2000000000000084E-003    -3.6496128927136773E-013
   4.3000000000000121E-003    -9.5209594941640836E-015
   5.4000000000000159E-003     4.6821059399362874E-013
   6.5000000000000058E-003     6.8966517609639344E-013
   7.6000000000000234E-003     3.9185229496960239E-013
   8.7000000000000133E-003    -3.1905251010599933E-013
   9.8000000000000032E-003    -9.6493494618210551E-013
   1.0900000000000021E-002    -1.0043186985178587E-012
   1.2000000000000011E-002    -2.6351021516733686E-013
   1.3100000000000001E-002     8.4185674924242004E-013
   1.4200000000000018E-002     1.5215747498770194E-012
   1.5300000000000008E-002     1.1726376163492813E-012
   1.6400000000000026E-002    -1.0501203449560584E-013
   1.7500000000000016E-002    -1.4680443275946753E-012
   1.8600000000000005E-002    -1.8821840787330846E-012
   1.9700000000000023E-002    -9.1959035872224426E-013
   2.0800000000000013E-002     8.0871529091475214E-013
   2.1900000000000003E-002     2.0002909918714895E-012
   2.3000000000000020E-002     1.6313438230483590E-012
   2.4100000000000010E-002    -1.5049321110040953E-013
   2.5200000000000000E-002    -1.9683683936261298E-012
   2.6300000000000018E-002    -2.1885438340057961E-012
   2.7400000000000008E-002    -2.9003297159768682E-013
   2.8500000000000025E-002     2.4540848953674699E-012
   2.9600000000000015E-002     3.6993598288848073E-012
   3.0700000000000005E-002     1.8318551970458730E-012
   3.1800000000000023E-002    -2.4489956503698229E-012
   3.2900000000000013E-002    -6.1490305035272197E-012
   3.4000000000000002E-002    -5.9342457163491513E-012
   3.5100000000000020E-002    -8.2215338053151510E-013
   3.6200000000000010E-002     6.4437977523312817E-012
   3.7300000000000028E-002     1.0733957125919069E-011
   3.8400000000000017E-002     8.0666567175979864E-012
   3.9500000000000007E-002    -1.0429239936937673E-012
   4.0600000000000025E-002    -1.1096558567846859E-011
   4.1700000000000015E-002    -1.4891001626216038E-011
   4.2800000000000005E-002    -8.6721680184198568E-012
   4.3900000000000022E-002     4.4902605939034501E-012
   4.5000000000000012E-002     1.5963811869634803E-011
   4.6100000000000002E-002     1.7179755881779890E-011
   4.7200000000000020E-002     5.9936257346127064E-012
   4.8300000000000010E-002    -1.0892535137752013E-011
   4.9400000000000027E-002    -2.1747669637361966E-011
   5.0500000000000017E-002    -1.7784258440900480E-011
   5.1600000000000007E-002     1.0950865458577222E-013
   5.2700000000000025E-002     2.0912603246325823E-011
   5.3800000000000014E-002     3.0215583507464672E-011
   5.4900000000000004E-002     1.9965187489368041E-011
   5.6000000000000022E-002    -5.4420669359789287E-012
   5.7100000000000012E-002    -3.1179614445875359E-011
   5.8200000000000002E-002    -4.1109220194623930E-011
   5.9300000000000019E-002    -2.8043175420711108E-011
   6.0400000000000009E-002     1.6513306564172603E-012
   6.1500000000000027E-002     3.2021371665358345E-011
   6.2600000000000017E-002     4.7173834283320559E-011
   6.3700000000000007E-002     4.0141653889769202E-011
   6.4800000000000024E-002     1.5627343169510866E-011
   6.5900000000000014E-002    -1.4075494242371533E-011
   6.7000000000000004E-002    -3.6219187371511197E-011
   6.8100000000000022E-002    -4.3023692247734502E-011
   6.9200000000000012E-002    -3.3265702692464316E-011
   7.0300000000000029E-002    -1.1367739215228934E-011
   7.1400000000000019E-002     1.3744308642593683E-011
   7.2500000000000009E-002     2.9937836931726025E-011
   7.3600000000000027E-002     2.5723324512116896E-011
   7.4700000000000016E-002    -1.8965085578359631E-012
   7.5800000000000006E-002    -3.9141249269514233E-011
   7.6900000000000024E-002    -5.5202051263414376E-011
   7.8000000000000014E-002    -1.7129750742861383E-011
   7.9100000000000004E-002     8.3106382886555252E-011
   8.0200000000000021E-002     2.0577124726361973E-010
   8.1300000000000011E-002     2.6672536401761704E-010
   8.2400000000000029E-002     1.7801118912252889E-010
   8.3500000000000019E-002    -8.8566695644054505E-011
   8.4600000000000009E-002    -4.5321629782435480E-010
   8.5700000000000026E-002    -7.3675077150170409E-010
   8.6800000000000016E-002    -7.4008604800113176E-010
   8.7900000000000006E-002    -3.6237216005652328E-010
   8.9000000000000024E-002     3.1062377670032504E-010
   9.0100000000000013E-002     1.0130950522935223E-009
   9.1200000000000003E-002     1.4165650874531366E-009
   9.2300000000000021E-002     1.3034466839201286E-009
   9.3400000000000011E-002     6.9598288243710726E-010
   9.4500000000000028E-002    -1.4584128349426351E-010
   9.5600000000000018E-002    -8.6905255214375643E-010
   9.6700000000000008E-002    -1.2341336841359407E-009
   9.7800000000000026E-002    -1.2528560411340095E-009
   9.8900000000000016E-002    -1.1603653593539320E-009
  0.10000000000000001         -1.2270100491207359E-009
  0.10110000000000002         -1.5248796669808939E-009
  0.10220000000000001         -1.8061561135596094E-009
  0.10330000000000003         -1.5897928529184924E-009
  0.10440000000000002         -4.2186432125390638E-010
  0.10550000000000001          1.8428090164945843E-009
  0.10660000000000003          4.9121009482178124E-009
  0.10770000000000002          8.1584383693211748E-009
  0.10880000000000001          1.0870587097144835E-008
  0.10990000000000003          1.2462312959371502E-008
  0.11100000000000002          1.2462397336321374E-008
  0.11210000000000001          1.0259689098290892E-008
  0.11320000000000002          4.7661825597344887E-009
  0.11430000000000001         -5.7403175546255625E-009
  0.11540000000000003         -2.3408802007907070E-008
  0.11650000000000002         -5.0283006203244440E-008
  0.11760000000000001         -8.7727741515664093E-008
  0.11870000000000003         -1.3619725791613746E-007
  0.11980000000000002         -1.9560036434995709E-007
  0.12090000000000001         -2.6621111715030565E-007
  0.12200000000000003         -3.4975764151568001E-007
  0.12310000000000001         -4.5019032768323086E-007
  0.12420000000000003         -5.7377513940082281E-007
  0.12530000000000002         -7.2851770482884604E-007
  0.12640000000000001         -9.2330031975507154E-007
  0.12750000000000003         -1.1672923392325174E-006
  0.12860000000000002         -1.4700622159580234E-006
  0.12970000000000001         -1.8424540257910849E-006
  0.13080000000000003         -2.2978827018960146E-006
  0.13190000000000002         -2.8535055207612459E-006
  0.13300000000000001         -3.5308446513226954E-006
  0.13410000000000000         -4.3558025026868563E-006
  0.13520000000000004         -5.3584344641421922E-006
  0.13630000000000003         -6.5730450842238497E-006
  0.13740000000000002         -8.0390400398755446E-006
  0.13850000000000001         -9.8025748229702003E-006
  0.13960000000000000         -1.1918552445422392E-005
  0.14070000000000005         -1.4452353752858471E-005
  0.14180000000000004         -1.7480739188613370E-005
  0.14290000000000003         -2.1091924281790853E-005
  0.14400000000000002         -2.5385346816619858E-005
  0.14510000000000001         -3.0471946956822649E-005
  0.14620000000000000         -3.6475645174505189E-005
  0.14730000000000004         -4.3536161683732644E-005
  0.14840000000000003         -5.1812654419336468E-005
  0.14950000000000002         -6.1487102357205003E-005
  0.15060000000000001         -7.2766568337101489E-005
  0.15170000000000000         -8.5883984866086394E-005
  0.15280000000000005         -1.0109787399414927E-004
  0.15390000000000004         -1.1869180161738768E-004
  0.15500000000000003         -1.3897471944801509E-004
  0.15610000000000002         -1.6228234744630754E-004
  0.15720000000000001         -1.8897926202043891E-004
  0.15830000000000000         -2.1946066408418119E-004
  0.15940000000000004         -2.5415283744223416E-004
  0.16050000000000003         -2.9351221746765077E-004
  0.16160000000000002         -3.3802326652221382E-004
  0.16270000000000001         -3.8819617475382984E-004
  0.16380000000000000         -4.4456453179009259E-004
  0.16490000000000005         -5.0768360961228609E-004
  0.16600000000000004         -5.7812745217233896E-004
  0.16710000000000003         -6.5648421877995133E-004
  0.16820000000000002         -7.4334873352199793E-004
  0.16930000000000001         -8.3931250264868140E-004
  0.17040000000000000         -9.4495277153328061E-004
  0.17150000000000004         -1.0608211159706116E-003
  0.17260000000000003         -1.1874341871589422E-003
  0.17370000000000002         -1.3252643402665854E-003
  0.17480000000000001         -1.4747307868674397E-003
  0.17590000000000000         -1.6361866146326065E-003
  0.17700000000000005         -1.8099029548466206E-003
  0.17810000000000004         -1.9960505887866020E-003
  0.17920000000000003         -2.1946805063635111E-003
  0.18030000000000002         -2.4057067930698395E-003
  0.18140000000000001         -2.6288910303264856E-003
  0.18250000000000000         -2.8638287913054228E-003
  0.18360000000000004         -3.1099361367523670E-003
  0.18470000000000003         -3.3664393704384565E-003
  0.18580000000000002         -3.6323608364909887E-003
  0.18690000000000001         -3.9065075106918812E-003
  0.18800000000000000         -4.1874591261148453E-003
  0.18910000000000005         -4.4735628180205822E-003
  0.19020000000000004         -4.7629289329051971E-003
  0.19130000000000003         -5.0534345209598541E-003
  0.19240000000000002         -5.3427340462803841E-003
  0.19350000000000001         -5.6282696314156055E-003
  0.19460000000000005         -5.9072803705930710E-003
  0.19570000000000004         -6.1768200248479843E-003
  0.19680000000000003         -6.4337784424424171E-003
  0.19790000000000002         -6.6749099642038345E-003
  0.19900000000000001         -6.8968664854764938E-003
  0.20010000000000000         -7.0962365716695786E-003
  0.20120000000000005         -7.2695878334343433E-003
  0.20230000000000004         -7.4135093018412590E-003
  0.20340000000000003         -7.5246565975248814E-003
  0.20450000000000002         -7.5998045504093170E-003
  0.20560000000000000         -7.6358974911272526E-003
  0.20670000000000005         -7.6301041990518570E-003
  0.20780000000000004         -7.5798695906996727E-003
  0.20890000000000003         -7.4829664081335068E-003
