 -0.12000000000000000          0.0000000000000000
 -0.11889999999999999          0.0000000000000000
 -0.11780000000000000          0.0000000000000000
 -0.11670000000000000          0.0000000000000000
 -0.11559999999999999          0.0000000000000000
 -0.11449999999999999          0.0000000000000000
 -0.11340000000000000         -6.6682031140742725E-022
 -0.11230000000000000          1.6070430003608451E-021
 -0.11119999999999999         -6.0626962226155334E-020
 -0.11009999999999999         -4.1899520779651189E-019
 -0.10900000000000000         -6.5351859244088856E-019
 -0.10790000000000000          1.7326122008608421E-018
 -0.10679999999999999          6.7932832327279875E-018
 -0.10569999999999999         -2.2461384362405265E-018
 -0.10460000000000000         -5.2922456417048625E-017
 -0.10349999999999999         -1.0262324287155022E-016
 -0.10239999999999999          5.5758418677407078E-017
 -0.10130000000000000          6.0250639384324539E-016
 -0.10020000000000000          1.0230385586389818E-015
  -9.9099999999999994E-002    -2.7663577249645256E-016
  -9.7999999999999990E-002    -4.3372478765251691E-015
  -9.6899999999999986E-002    -7.7672726445641473E-015
  -9.5799999999999996E-002    -1.3464218677361624E-015
  -9.4699999999999993E-002     2.1124813663207960E-014
  -9.3599999999999989E-002     4.4602688242020155E-014
  -9.2499999999999999E-002     2.6409089691026115E-014
  -9.1399999999999995E-002    -6.8268280568536954E-014
  -9.0299999999999991E-002    -1.9365397143939617E-013
  -8.9200000000000002E-002    -1.8944345875002155E-013
  -8.8099999999999984E-002     1.0952545294318217E-013
  -8.6999999999999994E-002     6.2475464255098978E-013
  -8.5899999999999990E-002     8.7240772331936833E-013
  -8.4799999999999986E-002     2.1803918262910948E-013
  -8.3699999999999997E-002    -1.4029306145621478E-012
  -8.2599999999999993E-002    -2.8565763036253466E-012
  -8.1499999999999989E-002    -2.1933908682381098E-012
  -8.0399999999999999E-002     1.6121484572653721E-012
  -7.9299999999999995E-002     6.6886296848367444E-012
  -7.8199999999999992E-002     8.2993932906672008E-012
  -7.7100000000000002E-002     2.2328820650091563E-012
  -7.5999999999999984E-002    -1.0184313462002770E-011
  -7.4899999999999994E-002    -2.0120708918436314E-011
  -7.3799999999999991E-002    -1.6231582050663107E-011
  -7.2699999999999987E-002     5.0484789959615028E-012
  -7.1599999999999997E-002     3.2116916764968195E-011
  -7.0499999999999993E-002     4.2675332018182743E-011
  -6.9399999999999989E-002     2.0590380095386607E-011
  -6.8300000000000000E-002    -2.6731653349210127E-011
  -6.7199999999999996E-002    -6.7194805275505587E-011
  -6.6099999999999992E-002    -6.5427989415223209E-011
  -6.5000000000000002E-002    -1.3079425563444769E-011
  -6.3899999999999985E-002     5.7983274431849807E-011
  -6.2799999999999995E-002     9.5632446406312965E-011
  -6.1699999999999991E-002     6.8791861096428875E-011
  -6.0599999999999994E-002    -4.1203481598861558E-012
  -5.9499999999999990E-002    -6.7543089177224402E-011
  -5.8399999999999994E-002    -7.5477776806387453E-011
  -5.7299999999999990E-002    -3.2492664808758676E-011
  -5.6199999999999986E-002     1.0624738935871569E-011
  -5.5099999999999996E-002     6.8852753359882612E-012
  -5.3999999999999992E-002    -3.5977526513519820E-011
  -5.2899999999999989E-002    -5.5350762168115963E-011
  -5.1799999999999985E-002     7.4266860022875747E-012
  -5.0699999999999995E-002     1.3873693860411151E-010
  -4.9599999999999991E-002     2.4157595368556883E-010
  -4.8499999999999988E-002     2.0351405283225432E-010
  -4.7399999999999998E-002    -5.3821469850334758E-012
  -4.6299999999999994E-002    -2.8696264808836247E-010
  -4.5199999999999990E-002    -4.6664044850430741E-010
  -4.4099999999999986E-002    -4.0941117163129093E-010
  -4.2999999999999997E-002    -1.1566582414079818E-010
  -4.1899999999999993E-002     2.7150781622964359E-010
  -4.0799999999999989E-002     5.4976045937848994E-010
  -3.9699999999999985E-002     5.7429022648491923E-010
  -3.8599999999999995E-002     3.3805963584043752E-010
  -3.7499999999999992E-002    -2.5228211880667928E-011
  -3.6399999999999988E-002    -3.1569641345541299E-010
  -3.5299999999999984E-002    -3.8691988502037589E-010
  -3.4199999999999994E-002    -2.5115168278411204E-010
  -3.3099999999999991E-002    -9.5191368676417198E-011
  -3.1999999999999987E-002    -1.5826215338243799E-010
  -3.0899999999999997E-002    -5.1346255025563892E-010
  -2.9799999999999993E-002    -9.0645818628942720E-010
  -2.8699999999999989E-002    -8.3232759573448334E-010
  -2.7599999999999986E-002     1.0669592293011121E-010
  -2.6499999999999996E-002     1.7662721285560679E-009
  -2.5399999999999992E-002     3.3079026184879012E-009
  -2.4299999999999988E-002     3.5703697776057197E-009
  -2.3199999999999985E-002     1.8309045390907386E-009
  -2.2099999999999995E-002    -1.5386159013530687E-009
  -2.0999999999999991E-002    -5.0435455811737029E-009
  -1.9899999999999987E-002    -6.8012586673660280E-009
  -1.8799999999999983E-002    -5.6313282925657404E-009
  -1.7699999999999994E-002    -1.8123037515138662E-009
  -1.6599999999999990E-002     2.9822000424672979E-009
  -1.5499999999999986E-002     6.5300467255724470E-009
  -1.4399999999999996E-002     7.1954060487655624E-009
  -1.3299999999999992E-002     4.7583750273361147E-009
  -1.2199999999999989E-002     5.7802129749262576E-010
  -1.1099999999999985E-002    -2.9487603470101931E-009
  -9.9999999999999950E-003    -3.4390374992199213E-009
  -8.8999999999999913E-003     2.5173846340820205E-010
  -7.7999999999999875E-003     7.0967036691627072E-009
  -6.6999999999999837E-003     1.3757045280726743E-008
  -5.5999999999999939E-003     1.5491538718492848E-008
  -4.4999999999999901E-003     7.8056530128378654E-009
  -3.3999999999999864E-003    -1.2045385133774289E-008
  -2.2999999999999826E-003    -4.4654658637455213E-008
  -1.1999999999999927E-003    -8.9459774699207628E-008
  -9.9999999999988987E-005    -1.4645081591879716E-007
   1.0000000000000148E-003    -2.1738517830272031E-007
   2.1000000000000185E-003    -3.0574079801226617E-007
   3.2000000000000084E-003    -4.1571340148038871E-007
   4.3000000000000121E-003    -5.5136547416623216E-007
   5.4000000000000159E-003    -7.1686929459247040E-007
   6.5000000000000058E-003    -9.1782476374646649E-007
   7.6000000000000234E-003    -1.1627579397099908E-006
   8.7000000000000133E-003    -1.4638626453233883E-006
   9.8000000000000032E-003    -1.8367774146099691E-006
   1.0900000000000021E-002    -2.2999336124485126E-006
   1.2000000000000011E-002    -2.8741392270603683E-006
   1.3100000000000001E-002    -3.5826483326673042E-006
   1.4200000000000018E-002    -4.4516550588014070E-006
   1.5300000000000008E-002    -5.5112532209022902E-006
   1.6400000000000026E-002    -6.7971127464261372E-006
   1.7500000000000016E-002    -8.3528320828918368E-006
   1.8600000000000005E-002    -1.0232168278889731E-005
   1.9700000000000023E-002    -1.2499960575951263E-005
   2.0800000000000013E-002    -1.5231351426336914E-005
   2.1900000000000003E-002    -1.8510563677409664E-005
   2.3000000000000020E-002    -2.2431548131862655E-005
   2.4100000000000010E-002    -2.7101961677544750E-005
   2.5200000000000000E-002    -3.2649375498294830E-005
   2.6300000000000018E-002    -3.9226564695127308E-005
   2.7400000000000008E-002    -4.7013007133500651E-005
   2.8500000000000025E-002    -5.6212473282357678E-005
   2.9600000000000015E-002    -6.7049746576230973E-005
   3.0700000000000005E-002    -7.9770281445235014E-005
   3.1800000000000023E-002    -9.4644441560376436E-005
   3.2900000000000013E-002    -1.1197473213542253E-004
   3.4000000000000002E-002    -1.3210285396780819E-004
   3.5100000000000020E-002    -1.5541441098321229E-004
   3.6200000000000010E-002    -1.8234088202007115E-004
   3.7300000000000028E-002    -2.1336018107831478E-004
   3.8400000000000017E-002    -2.4899598793126643E-004
   3.9500000000000007E-002    -2.8981658397242427E-004
   4.0600000000000025E-002    -3.3643274218775332E-004
   4.1700000000000015E-002    -3.8949699955992401E-004
   4.2800000000000005E-002    -4.4970479211769998E-004
   4.3900000000000022E-002    -5.1779753994196653E-004
   4.5000000000000012E-002    -5.9456436429172754E-004
   4.6100000000000002E-002    -6.8083888618275523E-004
   4.7200000000000020E-002    -7.7748985495418310E-004
   4.8300000000000010E-002    -8.8541029253974557E-004
   4.9400000000000027E-002    -1.0055084712803364E-003
   5.0500000000000017E-002    -1.1387029662728310E-003
   5.1600000000000007E-002    -1.2859179405495524E-003
   5.2700000000000025E-002    -1.4480738900601864E-003
   5.3800000000000014E-002    -1.6260700067505240E-003
   5.4900000000000004E-002    -1.8207621760666370E-003
   5.6000000000000022E-002    -2.0329419057816267E-003
   5.7100000000000012E-002    -2.2633194457739592E-003
   5.8200000000000002E-002    -2.5125087704509497E-003
   5.9300000000000019E-002    -2.7810102328658104E-003
   6.0400000000000009E-002    -3.0691842548549175E-003
   6.1500000000000027E-002    -3.3772243186831474E-003
   6.2600000000000017E-002    -3.7051301915198565E-003
   6.3700000000000007E-002    -4.0526841767132282E-003
   6.4800000000000024E-002    -4.4194320216774940E-003
   6.5900000000000014E-002    -4.8046591691672802E-003
   6.7000000000000004E-002    -5.2073677070438862E-003
   6.8100000000000022E-002    -5.6262514553964138E-003
   6.9200000000000012E-002    -6.0596801340579987E-003
   7.0300000000000029E-002    -6.5056914463639259E-003
   7.1400000000000019E-002    -6.9619882851839066E-003
   7.2500000000000009E-002    -7.4259298853576183E-003
   7.3600000000000027E-002    -7.8945225104689598E-003
   7.4700000000000016E-002    -8.3644213154911995E-003
   7.5800000000000006E-002    -8.8319405913352966E-003
   7.6900000000000024E-002    -9.2930765822529793E-003
   7.8000000000000014E-002    -9.7435433417558670E-003
   7.9100000000000004E-002    -1.0178798809647560E-002
   8.0200000000000021E-002    -1.0594074614346027E-002
   8.1300000000000011E-002    -1.0984415188431740E-002
   8.2400000000000029E-002    -1.1344733648002148E-002
   8.3500000000000019E-002    -1.1669876053929329E-002
   8.4600000000000009E-002    -1.1954693123698235E-002
   8.5700000000000026E-002    -1.2194096110761166E-002
   8.6800000000000016E-002    -1.2383125722408295E-002
   8.7900000000000006E-002    -1.2517022900283337E-002
   8.9000000000000024E-002    -1.2591307982802391E-002
   9.0100000000000013E-002    -1.2601866386830807E-002
   9.1200000000000003E-002    -1.2545025907456875E-002
   9.2300000000000021E-002    -1.2417635880410671E-002
   9.3400000000000011E-002    -1.2217122130095959E-002
   9.4500000000000028E-002    -1.1941549368202686E-002
   9.5600000000000018E-002    -1.1589679867029190E-002
   9.6700000000000008E-002    -1.1161037720739841E-002
   9.7800000000000026E-002    -1.0655952617526054E-002
   9.8900000000000016E-002    -1.0075578466057777E-002
  0.10000000000000001         -9.4219045713543892E-003
  0.10110000000000002         -8.6977556347846985E-003
  0.10220000000000001         -7.9067898914217949E-003
  0.10330000000000003         -7.0534902624785900E-003
  0.10440000000000002         -6.1431271024048328E-003
  0.10550000000000001         -5.1816995255649090E-003
  0.10660000000000003         -4.1758590377867222E-003
  0.10770000000000002         -3.1328338664025068E-003
  0.10880000000000001         -2.0603507291525602E-003
  0.10990000000000003         -9.6655200468376279E-004
  0.11100000000000002          1.4010845916345716E-004
  0.11210000000000001          1.2509913649410009E-003
  0.11320000000000002          2.3574060760438442E-003
  0.11430000000000001          3.4507357049733400E-003
  0.11540000000000003          4.5225471258163452E-003
  0.11650000000000002          5.5646994151175022E-003
  0.11760000000000001          6.5694637596607208E-003
  0.11870000000000003          7.5296470895409584E-003
  0.11980000000000002          8.4387119859457016E-003
  0.12090000000000001          9.2908740043640137E-003
  0.12200000000000003          1.0081168264150620E-002
  0.12310000000000001          1.0805516503751278E-002
  0.12420000000000003          1.1460785754024982E-002
  0.12530000000000002          1.2044850736856461E-002
  0.12640000000000001          1.2556635774672031E-002
  0.12750000000000003          1.2996122241020203E-002
  0.12860000000000002          1.3364334590733051E-002
  0.12970000000000001          1.3663303107023239E-002
  0.13080000000000003          1.3896032236516476E-002
  0.13190000000000002          1.4066467061638832E-002
  0.13300000000000001          1.4179439283907413E-002
  0.13410000000000000          1.4240586198866367E-002
  0.13520000000000004          1.4256236143410206E-002
  0.13630000000000003          1.4233299531042576E-002
  0.13740000000000002          1.4179171063005924E-002
  0.13850000000000001          1.4101627282798290E-002
  0.13960000000000000          1.4008718542754650E-002
  0.14070000000000005          1.3908621855080128E-002
  0.14180000000000004          1.3809486292302608E-002
  0.14290000000000003          1.3719296082854271E-002
  0.14400000000000002          1.3645759783685207E-002
  0.14510000000000001          1.3596206903457642E-002
  0.14620000000000000          1.3577470555901527E-002
  0.14730000000000004          1.3595743104815483E-002
  0.14840000000000003          1.3656448572874069E-002
  0.14950000000000002          1.3764137402176857E-002
  0.15060000000000001          1.3922411948442459E-002
  0.15170000000000000          1.4133877120912075E-002
  0.15280000000000005          1.4400070533156395E-002
  0.15390000000000004          1.4721381478011608E-002
  0.15500000000000003          1.5096977353096008E-002
  0.15610000000000002          1.5524786897003651E-002
  0.15720000000000001          1.6001513227820396E-002
  0.15830000000000000          1.6522675752639771E-002
  0.15940000000000004          1.7082609236240387E-002
  0.16050000000000003          1.7674488946795464E-002
  0.16160000000000002          1.8290340900421143E-002
  0.16270000000000001          1.8921127542853355E-002
  0.16380000000000000          1.9556876271963120E-002
  0.16490000000000005          2.0186819136142731E-002
  0.16600000000000004          2.0799499005079269E-002
  0.16710000000000003          2.1382864564657211E-002
  0.16820000000000002          2.1924398839473724E-002
  0.16930000000000001          2.2411298006772995E-002
  0.17040000000000000          2.2830685600638390E-002
  0.17150000000000004          2.3169815540313721E-002
  0.17260000000000003          2.3416249081492424E-002
  0.17370000000000002          2.3558003827929497E-002
  0.17480000000000001          2.3583738133311272E-002
  0.17590000000000000          2.3482946678996086E-002
  0.17700000000000005          2.3246208205819130E-002
  0.17810000000000004          2.2865368053317070E-002
  0.17920000000000003          2.2333698347210884E-002
  0.18030000000000002          2.1645998582243919E-002
  0.18140000000000001          2.0798727869987488E-002
  0.18250000000000000          1.9790126010775566E-002
  0.18360000000000004          1.8620358780026436E-002
  0.18470000000000003          1.7291599884629250E-002
  0.18580000000000002          1.5808045864105225E-002
  0.18690000000000001          1.4175871387124062E-002
  0.18800000000000000          1.2403195723891258E-002
  0.18910000000000005          1.0500052943825722E-002
  0.19020000000000004          8.4783546626567841E-003
  0.19130000000000003          6.3517815433442593E-003
  0.19240000000000002          4.1356091387569904E-003
  0.19350000000000001          1.8464924069121480E-003
  0.19460000000000005         -4.9774674698710442E-004
  0.19570000000000004         -2.8783096931874752E-003
  0.19680000000000003         -5.2756192162632942E-003
  0.19790000000000002         -7.6695629395544529E-003
  0.19900000000000001         -1.0039793327450752E-002
  0.20010000000000000         -1.2366041541099548E-002
  0.20120000000000005         -1.4628395438194275E-002
  0.20230000000000004         -1.6807533800601959E-002
  0.20340000000000003         -1.8884949386119843E-002
  0.20450000000000002         -2.0843192934989929E-002
  0.20560000000000000         -2.2666135802865028E-002
  0.20670000000000005         -2.4339217692613602E-002
  0.20780000000000004         -2.5849619880318642E-002
  0.20890000000000003         -2.7186393737792969E-002
