 -0.12000000000000000          0.0000000000000000
 -0.11889999999999999          0.0000000000000000
 -0.11780000000000000          0.0000000000000000
 -0.11670000000000000          0.0000000000000000
 -0.11559999999999999          0.0000000000000000
 -0.11449999999999999          0.0000000000000000
 -0.11340000000000000          0.0000000000000000
 -0.11230000000000000          0.0000000000000000
 -0.11119999999999999          0.0000000000000000
 -0.11009999999999999         -5.4574356536301902E-027
 -0.10900000000000000          1.5738066259766777E-026
 -0.10790000000000000         -2.3629784533279114E-026
 -0.10679999999999999         -1.4670190860677091E-024
 -0.10569999999999999         -4.7990645047655185E-024
 -0.10460000000000000          7.0417155944965225E-024
 -0.10349999999999999          6.8720797342987014E-023
 -0.10239999999999999          8.9232146444481311E-023
 -0.10130000000000000         -3.6978570586848145E-022
 -0.10020000000000000         -1.4946066176743709E-021
  -9.9099999999999994E-002    -8.6416766244797386E-022
  -9.7999999999999990E-002     7.3117337776917767E-021
  -9.6899999999999986E-002     2.1533574449525291E-020
  -9.5799999999999996E-002     1.0471211519649154E-020
  -9.4699999999999993E-002    -8.0249883554415244E-020
  -9.3599999999999989E-002    -2.2241501144024888E-019
  -9.2499999999999999E-002    -1.4254573436518460E-019
  -9.1399999999999995E-002     5.7704352176246491E-019
  -9.0299999999999991E-002     1.7430424313972529E-018
  -8.9200000000000002E-002     1.5481584722846064E-018
  -8.8099999999999984E-002    -2.7659151585213913E-018
  -8.6999999999999994E-002    -1.0622955347329563E-017
  -8.5899999999999990E-002    -1.2557481818726717E-017
  -8.4799999999999986E-002     7.1485783989251330E-018
  -8.3699999999999997E-002     5.0383389130870154E-017
  -8.2599999999999993E-002     7.7493297338842226E-017
  -8.1499999999999989E-002     1.2026037300315485E-017
  -8.0399999999999999E-002    -1.8068286114497075E-016
  -7.9299999999999995E-002    -3.7094299147564787E-016
  -7.8199999999999992E-002    -2.4533449049383754E-016
  -7.7100000000000002E-002     4.3886823111208512E-016
  -7.5999999999999984E-002     1.3813049079655811E-015
  -7.4899999999999994E-002     1.5151076321489091E-015
  -7.3799999999999991E-002    -3.3633269585524512E-016
  -7.2699999999999987E-002    -3.8961054942986042E-015
  -7.1599999999999997E-002    -6.2257451018783109E-015
  -7.0499999999999993E-002    -2.9299877614733481E-015
  -6.9399999999999989E-002     7.4720858976107599E-015
  -6.8300000000000000E-002     1.8819152711332075E-014
  -6.7199999999999996E-002     1.8056817976605521E-014
  -6.6099999999999992E-002    -4.6964161041823573E-015
  -6.5000000000000002E-002    -4.1508507378886297E-014
  -6.3899999999999985E-002    -6.1633715438182829E-014
  -6.2799999999999995E-002    -2.9559826944048143E-014
  -6.1699999999999991E-002     5.8133483920794204E-014
  -6.0599999999999994E-002     1.4637135904368992E-013
  -5.9499999999999990E-002     1.4258887581948543E-013
  -5.8399999999999994E-002    -7.7754947933831448E-015
  -5.7299999999999990E-002    -2.4059405726375993E-013
  -5.6199999999999986E-002    -3.7117897189013760E-013
  -5.5099999999999996E-002    -2.1711393804763751E-013
  -5.3999999999999992E-002     2.1690731621861609E-013
  -5.2899999999999989E-002     6.5233620371793477E-013
  -5.1799999999999985E-002     6.8382571740549514E-013
  -5.0699999999999995E-002     1.1742626456704569E-013
  -4.9599999999999991E-002    -7.5698068690080444E-013
  -4.8499999999999988E-002    -1.2572181793887860E-012
  -4.7399999999999998E-002    -8.1536936490794742E-013
  -4.6299999999999994E-002     4.4601158161704235E-013
  -4.5199999999999990E-002     1.6096842825677471E-012
  -4.4099999999999986E-002     1.5942577119565371E-012
  -4.2999999999999997E-002     1.4126922559271754E-013
  -4.1899999999999993E-002    -1.6986302772345474E-012
  -4.0799999999999989E-002    -2.2170308124069837E-012
  -3.9699999999999985E-002    -5.4558771779913973E-013
  -3.8599999999999995E-002     2.2210328194660622E-012
  -3.7499999999999992E-002     3.5042645868399447E-012
  -3.6399999999999988E-002     1.3458655847772838E-012
  -3.5299999999999984E-002    -3.4235854168979118E-012
  -3.4199999999999994E-002    -7.0366212856498578E-012
  -3.3099999999999991E-002    -5.4094827575679183E-012
  -3.1999999999999987E-002     2.1299622222220593E-012
  -3.0899999999999997E-002     1.1140175587565082E-011
  -2.9799999999999993E-002     1.4455860120055064E-011
  -2.8699999999999989E-002     7.5457392070821250E-012
  -2.7599999999999986E-002    -7.1347259697485121E-012
  -2.6499999999999996E-002    -2.0652328805437214E-011
  -2.5399999999999992E-002    -2.3340065991028780E-011
  -2.4299999999999988E-002    -1.1843372636766158E-011
  -2.3199999999999985E-002     7.9670237421169965E-012
  -2.2099999999999995E-002     2.4749369220700146E-011
  -2.0999999999999991E-002     2.9416087621303433E-011
  -1.9899999999999987E-002     2.0862353511397203E-011
  -1.8799999999999983E-002     5.3280088674334536E-012
  -1.7699999999999994E-002    -9.6400942783958499E-012
  -1.6599999999999990E-002    -2.1035858818740927E-011
  -1.5499999999999986E-002    -3.0643525911200342E-011
  -1.4399999999999996E-002    -3.9397238943417179E-011
  -1.3299999999999992E-002    -4.1429484842758768E-011
  -1.2199999999999989E-002    -2.4830580300228000E-011
  -1.1099999999999985E-002     1.8719263986111123E-011
  -9.9999999999999950E-003     8.1237044868842645E-011
  -8.8999999999999913E-003     1.3335216264565020E-010
  -7.7999999999999875E-003     1.3485604299923182E-010
  -6.6999999999999837E-003     5.9040557165435104E-011
  -5.5999999999999939E-003    -8.2288155456300416E-011
  -4.4999999999999901E-003    -2.3110066638132309E-010
  -3.3999999999999864E-003    -3.0409191831282101E-010
  -2.2999999999999826E-003    -2.3705165608234324E-010
  -1.1999999999999927E-003    -2.9715372523719807E-011
  -9.9999999999988987E-005     2.3848234498302645E-010
   1.0000000000000148E-003     4.3900338919655724E-010
   2.1000000000000185E-003     4.6080231297374041E-010
   3.2000000000000084E-003     2.7592619855631995E-010
   4.3000000000000121E-003    -3.8625744963605158E-011
   5.4000000000000159E-003    -3.4151001471194320E-010
   6.5000000000000058E-003    -5.0739451529224766E-010
   7.6000000000000234E-003    -4.9415438407862666E-010
   8.7000000000000133E-003    -3.5023106637055434E-010
   9.8000000000000032E-003    -1.5832916921976192E-010
   1.0900000000000021E-002     3.8325360246505014E-011
   1.2000000000000011E-002     2.6334193159449626E-010
   1.3100000000000001E-002     5.5776566698639840E-010
   1.4200000000000018E-002     8.8743518089628992E-010
   1.5300000000000008E-002     1.0869227740073484E-009
   1.6400000000000026E-002     9.0870039270996017E-010
   1.7500000000000016E-002     1.7776402572167171E-010
   1.8600000000000005E-002    -1.0302695363506587E-009
   1.9700000000000023E-002    -2.3085033884484574E-009
   2.0800000000000013E-002    -3.0208371359918829E-009
   2.1900000000000003E-002    -2.5771811351660290E-009
   2.3000000000000020E-002    -7.6899631107352207E-010
   2.4100000000000010E-002     2.0033172898337170E-009
   2.5200000000000000E-002     4.7554760129742135E-009
   2.6300000000000018E-002     6.2407856660229299E-009
   2.7400000000000008E-002     5.4726818632389040E-009
   2.8500000000000025E-002     2.2340171934587261E-009
   2.9600000000000015E-002    -2.6768953720335276E-009
   3.0700000000000005E-002    -7.6279587091221401E-009
   3.1800000000000023E-002    -1.0737918110237388E-008
   3.2900000000000013E-002    -1.0629396030026328E-008
   3.4000000000000002E-002    -7.0022392328894512E-009
   3.5100000000000020E-002    -7.4440709152412410E-010
   3.6200000000000010E-002     6.4731522364525063E-009
   3.7300000000000028E-002     1.2897779733123116E-008
   3.8400000000000017E-002     1.7314086164788023E-008
   3.9500000000000007E-002     1.9256633621012043E-008
   4.0600000000000025E-002     1.8730677453504541E-008
   4.1700000000000015E-002     1.5637541039836833E-008
   4.2800000000000005E-002     9.2625205283525247E-009
   4.3900000000000022E-002    -1.8678623092682756E-009
   4.5000000000000012E-002    -1.9685545638026269E-008
   4.6100000000000002E-002    -4.6048526769482123E-008
   4.7200000000000020E-002    -8.2362440423366934E-008
   4.8300000000000010E-002    -1.2969513818461564E-007
   4.9400000000000027E-002    -1.8945299018469086E-007
   5.0500000000000017E-002    -2.6432147137711581E-007
   5.1600000000000007E-002    -3.5892671235160378E-007
   5.2700000000000025E-002    -4.7974111794246710E-007
   5.3800000000000014E-002    -6.3417246565222740E-007
   5.4900000000000004E-002    -8.2934087686226121E-007
   5.6000000000000022E-002    -1.0714096561059705E-006
   5.7100000000000012E-002    -1.3661940556630725E-006
   5.8200000000000002E-002    -1.7211274325745762E-006
   5.9300000000000019E-002    -2.1478672351804562E-006
   6.0400000000000009E-002    -2.6643795081326971E-006
   6.1500000000000027E-002    -3.2955840651993640E-006
   6.2600000000000017E-002    -4.0724507925915532E-006
   6.3700000000000007E-002    -5.0303278840146959E-006
   6.4800000000000024E-002    -6.2077042457531206E-006
   6.5900000000000014E-002    -7.6463120421976782E-006
   6.7000000000000004E-002    -9.3927055786480196E-006
   6.8100000000000022E-002    -1.1500746040837839E-005
   6.9200000000000012E-002    -1.4034129890205804E-005
   7.0300000000000029E-002    -1.7068408851628192E-005
   7.1400000000000019E-002    -2.0692528778454289E-005
   7.2500000000000009E-002    -2.5010329409269616E-005
   7.3600000000000027E-002    -3.0142480682116002E-005
   7.4700000000000016E-002    -3.6228917451808229E-005
   7.5800000000000006E-002    -4.3431329686427489E-005
   7.6900000000000024E-002    -5.1934999646618962E-005
   7.8000000000000014E-002    -6.1949511291459203E-005
   7.9100000000000004E-002    -7.3708659328985959E-005
   8.0200000000000021E-002    -8.7470602011308074E-005
   8.1300000000000011E-002    -1.0351962555432692E-004
   8.2400000000000029E-002    -1.2217025505378842E-004
   8.3500000000000019E-002    -1.4377322804648429E-004
   8.4600000000000009E-002    -1.6872138075996190E-004
   8.5700000000000026E-002    -1.9745323515962809E-004
   8.6800000000000016E-002    -2.3045264242682606E-004
   8.7900000000000006E-002    -2.6824523229151964E-004
   8.9000000000000024E-002    -3.1139364000409842E-004
   9.0100000000000013E-002    -3.6049456684850156E-004
   9.1200000000000003E-002    -4.1617901297286153E-004
   9.2300000000000021E-002    -4.7911520232446492E-004
   9.3400000000000011E-002    -5.5001140572130680E-004
   9.4500000000000028E-002    -6.2961620278656483E-004
   9.5600000000000018E-002    -7.1871397085487843E-004
   9.6700000000000008E-002    -8.1811484415084124E-004
   9.7800000000000026E-002    -9.2864164616912603E-004
   9.8900000000000016E-002    -1.0511156870052218E-003
  0.10000000000000001         -1.1863437248393893E-003
  0.10110000000000002         -1.3351066736504436E-003
  0.10220000000000001         -1.4981500571593642E-003
  0.10330000000000003         -1.6761739971116185E-003
  0.10440000000000002         -1.8698197090998292E-003
  0.10550000000000001         -2.0796514581888914E-003
  0.10660000000000003         -2.3061330430209637E-003
  0.10770000000000002         -2.5496014859527349E-003
  0.10880000000000001         -2.8102397918701172E-003
  0.10990000000000003         -3.0880537815392017E-003
  0.11100000000000002         -3.3828499726951122E-003
  0.11210000000000001         -3.6942155566066504E-003
  0.11320000000000002         -4.0214988403022289E-003
  0.11430000000000001         -4.3637906201183796E-003
  0.11540000000000003         -4.7199078835546970E-003
  0.11650000000000002         -5.0883754156529903E-003
  0.11760000000000001         -5.4674106650054455E-003
  0.11870000000000003         -5.8549088425934315E-003
  0.11980000000000002         -6.2484317459166050E-003
  0.12090000000000001         -6.6452012397348881E-003
  0.12200000000000003         -7.0421057753264904E-003
  0.12310000000000001         -7.4357115663588047E-003
  0.12420000000000003         -7.8222816810011864E-003
  0.12530000000000002         -8.1978030502796173E-003
  0.12640000000000001         -8.5580172017216682E-003
  0.12750000000000003         -8.8984556496143341E-003
  0.12860000000000002         -9.2144776135683060E-003
  0.12970000000000001         -9.5013175159692764E-003
  0.13080000000000003         -9.7541389986872673E-003
  0.13190000000000002         -9.9680870771408081E-003
  0.13300000000000001         -1.0138357058167458E-002
  0.13410000000000000         -1.0260281153023243E-002
  0.13520000000000004         -1.0329397395253181E-002
  0.13630000000000003         -1.0341535322368145E-002
  0.13740000000000002         -1.0292897932231426E-002
  0.13850000000000001         -1.0180142708122730E-002
  0.13960000000000000         -1.0000457055866718E-002
  0.14070000000000005         -9.7516234964132309E-003
  0.14180000000000004         -9.4320876523852348E-003
  0.14290000000000003         -9.0410225093364716E-003
  0.14400000000000002         -8.5783852264285088E-003
  0.14510000000000001         -8.0449627712368965E-003
  0.14620000000000000         -7.4424152262508869E-003
  0.14730000000000004         -6.7732986062765121E-003
  0.14840000000000003         -6.0410764999687672E-003
  0.14950000000000002         -5.2501158788800240E-003
  0.15060000000000001         -4.4056735932826996E-003
  0.15170000000000000         -3.5138591192662716E-003
  0.15280000000000005         -2.5815819390118122E-003
  0.15390000000000004         -1.6164851840585470E-003
  0.15500000000000003         -6.2686600722372532E-004
  0.15610000000000002          3.7841117591597140E-004
  0.15720000000000001          1.3900139601901174E-003
  0.15830000000000000          2.3982522543519735E-003
  0.15940000000000004          3.3932011574506760E-003
  0.16050000000000003          4.3648332357406616E-003
  0.16160000000000002          5.3031546995043755E-003
  0.16270000000000001          6.1983424238860607E-003
  0.16380000000000000          7.0408857427537441E-003
  0.16490000000000005          7.8217238187789917E-003
  0.16600000000000004          8.5323853418231010E-003
  0.16710000000000003          9.1651119291782379E-003
  0.16820000000000002          9.7129801288247108E-003
  0.16930000000000001          1.0170001536607742E-002
  0.17040000000000000          1.0531214997172356E-002
  0.17150000000000004          1.0792770422995090E-002
  0.17260000000000003          1.0951995849609375E-002
  0.17370000000000002          1.1007439345121384E-002
  0.17480000000000001          1.0958899743855000E-002
  0.17590000000000000          1.0807440616190434E-002
  0.17700000000000005          1.0555376298725605E-002
  0.17810000000000004          1.0206251405179501E-002
  0.17920000000000003          9.7647989168763161E-003
  0.18030000000000002          9.2368731275200844E-003
  0.18140000000000001          8.6293676868081093E-003
  0.18250000000000000          7.9501131549477577E-003
  0.18360000000000004          7.2077740915119648E-003
  0.18470000000000003          6.4117265865206718E-003
  0.18580000000000002          5.5719357915222645E-003
  0.18690000000000001          4.6988176181912422E-003
  0.18800000000000000          3.8030897267162800E-003
  0.18910000000000005          2.8956255409866571E-003
  0.19020000000000004          1.9873068667948246E-003
  0.19130000000000003          1.0888825636357069E-003
  0.19240000000000002          2.1082701277919114E-004
  0.19350000000000001         -6.3679920276626945E-004
  0.19460000000000005         -1.4444845728576183E-003
  0.19570000000000004         -2.2033902350813150E-003
  0.19680000000000003         -2.9054596088826656E-003
  0.19790000000000002         -3.5435126628726721E-003
  0.19900000000000001         -4.1113281622529030E-003
  0.20010000000000000         -4.6037179417908192E-003
  0.20120000000000005         -5.0165792927145958E-003
  0.20230000000000004         -5.3469347767531872E-003
  0.20340000000000003         -5.5929487571120262E-003
  0.20450000000000002         -5.7539287954568863E-003
  0.20560000000000000         -5.8303135447204113E-003
  0.20670000000000005         -5.8236517943441868E-003
  0.20780000000000004         -5.7365731336176395E-003
  0.20890000000000003         -5.5727353319525719E-003
