 -0.12000000000000000          0.0000000000000000
 -0.11889999999999999          0.0000000000000000
 -0.11780000000000000          0.0000000000000000
 -0.11670000000000000          0.0000000000000000
 -0.11559999999999999          0.0000000000000000
 -0.11449999999999999          0.0000000000000000
 -0.11340000000000000         -3.2083383172398783E-010
 -0.11230000000000000          9.7563290779589806E-010
 -0.11119999999999999          1.2221486045405072E-008
 -0.11009999999999999          2.2307919067543480E-008
 -0.10900000000000000         -6.5436914553629322E-008
 -0.10790000000000000         -3.6238719758330262E-007
 -0.10679999999999999         -5.2413565754250158E-007
 -0.10569999999999999          6.7016088678428787E-007
 -0.10460000000000000          4.0067143345368095E-006
 -0.10349999999999999          6.0316428971418645E-006
 -0.10239999999999999         -2.6160266770602902E-006
 -0.10130000000000000         -2.7313486498314887E-005
 -0.10020000000000000         -4.7640914999647066E-005
  -9.9099999999999994E-002    -1.0065570677397773E-005
  -9.7999999999999990E-002     1.2300809612497687E-004
  -9.6899999999999986E-002     2.7172476984560490E-004
  -9.5799999999999996E-002     1.9561545923352242E-004
  -9.4699999999999993E-002    -3.2817290048114955E-004
  -9.3599999999999989E-002    -1.1087604798376560E-003
  -9.2499999999999999E-002    -1.2981473701074719E-003
  -9.1399999999999995E-002     1.3342358579393476E-004
  -9.0299999999999991E-002     3.1083805952221155E-003
  -8.9200000000000002E-002     5.3458227775990963E-003
  -8.8099999999999984E-002     3.1856379937380552E-003
  -8.6999999999999994E-002    -4.9767773598432541E-003
  -8.5899999999999990E-002    -1.4832056127488613E-002
  -8.4799999999999986E-002    -1.6417296603322029E-002
  -8.3699999999999997E-002    -1.3904219958931208E-003
  -8.2599999999999993E-002     2.6256445795297623E-002
  -8.1499999999999989E-002     4.6183284372091293E-002
  -8.0399999999999999E-002     3.3261962234973907E-002
  -7.9299999999999995E-002    -1.8805580213665962E-002
  -7.8199999999999992E-002    -8.0794915556907654E-002
  -7.7100000000000002E-002    -9.9639497697353363E-002
  -7.5999999999999984E-002    -3.9907280355691910E-002
  -7.4899999999999994E-002     7.4596382677555084E-002
  -7.3799999999999991E-002    0.16172629594802856
  -7.2699999999999987E-002    0.13981099426746368
  -7.1599999999999997E-002     5.3448081016540527E-003
  -7.0499999999999993E-002   -0.14318472146987915
  -6.9399999999999989E-002   -0.17698301374912262
  -6.8300000000000000E-002    -5.9584107249975204E-002
  -6.7199999999999996E-002     9.2733271420001984E-002
  -6.6099999999999992E-002     9.7365193068981171E-002
  -6.5000000000000002E-002   -0.10545295476913452
  -6.3899999999999985E-002   -0.33085513114929199
  -6.2799999999999995E-002   -0.25395995378494263
  -6.1699999999999991E-002    0.28275611996650696
  -6.0599999999999994E-002     1.0043590068817139
  -5.9499999999999990E-002     1.2716280221939087
  -5.8399999999999994E-002    0.54296088218688965
  -5.7299999999999990E-002    -1.0717204809188843
  -5.6199999999999986E-002    -2.6480350494384766
  -5.5099999999999996E-002    -2.9402847290039062
  -5.3999999999999992E-002    -1.2847534418106079
  -5.2899999999999989E-002     1.7390791177749634
  -5.1799999999999985E-002     4.4660582542419434
  -5.0699999999999995E-002     5.1295013427734375
  -4.9599999999999991E-002     3.0336537361145020
  -4.8499999999999988E-002   -0.92094480991363525
  -4.7399999999999998E-002    -4.7511944770812988
  -4.6299999999999994E-002    -6.5821814537048340
  -4.5199999999999990E-002    -5.6805906295776367
  -4.4099999999999986E-002    -2.6688175201416016
  -4.2999999999999997E-002     1.0921589136123657
  -4.1899999999999993E-002     4.3759536743164062
  -4.0799999999999989E-002     6.5681414604187012
  -3.9699999999999985E-002     7.5244798660278320
  -3.8599999999999995E-002     7.1144046783447266
  -3.7499999999999992E-002     4.9563698768615723
  -3.6399999999999988E-002    0.62955218553543091
  -3.5299999999999984E-002    -5.7573928833007812
  -3.4199999999999994E-002    -13.030518531799316
  -3.3099999999999991E-002    -18.844301223754883
  -3.1999999999999987E-002    -20.215747833251953
  -3.0899999999999997E-002    -14.646751403808594
  -2.9799999999999993E-002    -1.4945636987686157
  -2.8699999999999989E-002     17.007984161376953
  -2.7599999999999986E-002     35.753238677978516
  -2.6499999999999996E-002     48.144191741943359
  -2.5399999999999992E-002     48.544795989990234
  -2.4299999999999988E-002     34.754695892333984
  -2.3199999999999985E-002     9.2146005630493164
  -2.2099999999999995E-002    -21.869787216186523
  -2.0999999999999991E-002    -51.309955596923828
  -1.9899999999999987E-002    -74.524383544921875
  -1.8799999999999983E-002    -92.451004028320312
  -1.7699999999999994E-002    -112.52149963378906
  -1.6599999999999990E-002    -147.05805969238281
  -1.5499999999999986E-002    -209.29443359375000
  -1.4399999999999996E-002    -308.23187255859375
  -1.3299999999999992E-002    -444.51300048828125
  -1.2199999999999989E-002    -609.81774902343750
  -1.1099999999999985E-002    -791.20922851562500
  -9.9999999999999950E-003    -979.34100341796875
  -8.8999999999999913E-003    -1176.7049560546875
  -7.7999999999999875E-003    -1401.1613769531250
  -6.6999999999999837E-003    -1682.1362304687500
  -5.5999999999999939E-003    -2051.2441406250000
  -4.4999999999999901E-003    -2532.9206542968750
  -3.3999999999999864E-003    -3141.0322265625000
  -2.2999999999999826E-003    -3883.7756347656250
  -1.1999999999999927E-003    -4773.7924804687500
  -9.9999999999988987E-005    -5837.0830078125000
   1.0000000000000148E-003    -7115.3134765625000
   2.1000000000000185E-003    -8660.7324218750000
   3.2000000000000084E-003    -10527.842773437500
   4.3000000000000121E-003    -12767.913085937500
   5.4000000000000159E-003    -15430.210937500000
   6.5000000000000058E-003    -18569.578125000000
   7.6000000000000234E-003    -22256.107421875000
   8.7000000000000133E-003    -26581.824218750000
   9.8000000000000032E-003    -31661.255859375000
   1.0900000000000021E-002    -37626.468750000000
   1.2000000000000011E-002    -44620.066406250000
   1.3100000000000001E-002    -52790.316406250000
   1.4200000000000018E-002    -62291.058593750000
   1.5300000000000008E-002    -73285.882812500000
   1.6400000000000026E-002    -85953.593750000000
   1.7500000000000016E-002    -100492.00781250000
   1.8600000000000005E-002    -117118.58593750000
   1.9700000000000023E-002    -136069.25000000000
   2.0800000000000013E-002    -157598.25000000000
   2.1900000000000003E-002    -181978.96875000000
   2.3000000000000020E-002    -209504.81250000000
   2.4100000000000010E-002    -240484.37500000000
   2.5200000000000000E-002    -275231.84375000000
   2.6300000000000018E-002    -314052.71875000000
   2.7400000000000008E-002    -357233.56250000000
   2.8500000000000025E-002    -405039.62500000000
   2.9600000000000015E-002    -457720.09375000000
   3.0700000000000005E-002    -515517.46875000000
   3.1800000000000023E-002    -578669.43750000000
   3.2900000000000013E-002    -647400.81250000000
   3.4000000000000002E-002    -721903.62500000000
   3.5100000000000020E-002    -802311.06250000000
   3.6200000000000010E-002    -888671.31250000000
   3.7300000000000028E-002    -980926.43750000000
   3.8400000000000017E-002    -1078905.5000000000
   3.9500000000000007E-002    -1182323.8750000000
   4.0600000000000025E-002    -1290792.1250000000
   4.1700000000000015E-002    -1403820.2500000000
   4.2800000000000005E-002    -1520815.3750000000
   4.3900000000000022E-002    -1641065.3750000000
   4.5000000000000012E-002    -1763708.0000000000
   4.6100000000000002E-002    -1887714.2500000000
   4.7200000000000020E-002    -2011860.7500000000
   4.8300000000000010E-002    -2134731.7500000000
   4.9400000000000027E-002    -2254732.0000000000
   5.0500000000000017E-002    -2370092.2500000000
   5.1600000000000007E-002    -2478907.0000000000
   5.2700000000000025E-002    -2579148.0000000000
   5.3800000000000014E-002    -2668681.7500000000
   5.4900000000000004E-002    -2745298.2500000000
   5.6000000000000022E-002    -2806717.0000000000
   5.7100000000000012E-002    -2850611.5000000000
   5.8200000000000002E-002    -2874600.7500000000
   5.9300000000000019E-002    -2876289.7500000000
   6.0400000000000009E-002    -2853322.0000000000
   6.1500000000000027E-002    -2803425.5000000000
   6.2600000000000017E-002    -2724498.2500000000
   6.3700000000000007E-002    -2614658.7500000000
   6.4800000000000024E-002    -2472304.2500000000
   6.5900000000000014E-002    -2296129.7500000000
   6.7000000000000004E-002    -2085196.0000000000
   6.8100000000000022E-002    -1838940.5000000000
   6.9200000000000012E-002    -1557203.1250000000
   7.0300000000000029E-002    -1240283.8750000000
   7.1400000000000019E-002    -888942.56250000000
   7.2500000000000009E-002    -504446.68750000000
   7.3600000000000027E-002    -88634.578125000000
   7.4700000000000016E-002     356066.68750000000
   7.5800000000000006E-002     826645.37500000000
   7.6900000000000024E-002     1319528.8750000000
   7.8000000000000014E-002     1830647.6250000000
   7.9100000000000004E-002     2355470.7500000000
   8.0200000000000021E-002     2889022.2500000000
   8.1300000000000011E-002     3425948.7500000000
   8.2400000000000029E-002     3960542.0000000000
   8.3500000000000019E-002     4486847.5000000000
   8.4600000000000009E-002     4998748.0000000000
   8.5700000000000026E-002     5490040.5000000000
   8.6800000000000016E-002     5954540.0000000000
   8.7900000000000006E-002     6386145.5000000000
   8.9000000000000024E-002     6778950.0000000000
   9.0100000000000013E-002     7127361.5000000000
   9.1200000000000003E-002     7426199.5000000000
   9.2300000000000021E-002     7670805.5000000000
   9.3400000000000011E-002     7857101.0000000000
   9.4500000000000028E-002     7981676.0000000000
   9.5600000000000018E-002     8041840.0000000000
   9.6700000000000008E-002     8035705.0000000000
   9.7800000000000026E-002     7962245.0000000000
   9.8900000000000016E-002     7821317.5000000000
  0.10000000000000001          7613654.0000000000
  0.10110000000000002          7340847.0000000000
  0.10220000000000001          7005336.5000000000
  0.10330000000000003          6610404.5000000000
  0.10440000000000002          6160146.0000000000
  0.10550000000000001          5659400.0000000000
  0.10660000000000003          5113663.5000000000
  0.10770000000000002          4528974.5000000000
  0.10880000000000001          3911847.0000000000
  0.10990000000000003          3269161.2500000000
  0.11100000000000002          2608080.7500000000
  0.11210000000000001          1935928.1250000000
  0.11320000000000002          1260029.2500000000
  0.11430000000000001          587623.25000000000
  0.11540000000000003         -74267.078125000000
  0.11650000000000002         -718906.12500000000
  0.11760000000000001         -1339920.5000000000
  0.11870000000000003         -1931381.8750000000
  0.11980000000000002         -2487914.7500000000
  0.12090000000000001         -3004786.7500000000
  0.12200000000000003         -3477936.0000000000
  0.12310000000000001         -3904028.2500000000
  0.12420000000000003         -4280451.5000000000
  0.12530000000000002         -4605305.0000000000
  0.12640000000000001         -4877448.0000000000
  0.12750000000000003         -5096493.5000000000
  0.12860000000000002         -5262727.0000000000
  0.12970000000000001         -5377108.5000000000
  0.13080000000000003         -5441178.0000000000
  0.13190000000000002         -5457034.0000000000
  0.13300000000000001         -5427238.0000000000
  0.13410000000000000         -5354855.5000000000
  0.13520000000000004         -5243255.0000000000
  0.13630000000000003         -5096134.0000000000
  0.13740000000000002         -4917338.5000000000
  0.13850000000000001         -4710873.0000000000
  0.13960000000000000         -4480840.0000000000
  0.14070000000000005         -4231310.0000000000
  0.14180000000000004         -3966361.5000000000
  0.14290000000000003         -3689917.2500000000
  0.14400000000000002         -3405706.7500000000
  0.14510000000000001         -3117216.7500000000
  0.14620000000000000         -2827730.5000000000
  0.14730000000000004         -2540270.5000000000
  0.14840000000000003         -2257572.7500000000
  0.14950000000000002         -1982061.7500000000
  0.15060000000000001         -1715823.1250000000
  0.15170000000000000         -1460605.3750000000
  0.15280000000000005         -1217812.7500000000
  0.15390000000000004         -988575.18750000000
  0.15500000000000003         -773703.56250000000
  0.15610000000000002         -573694.31250000000
  0.15720000000000001         -388810.90625000000
  0.15830000000000000         -219018.50000000000
  0.15940000000000004         -64082.656250000000
  0.16050000000000003          76474.812500000000
  0.16160000000000002          203262.01562500000
  0.16270000000000001          317047.21875000000
  0.16380000000000000          418718.68750000000
  0.16490000000000005          509277.68750000000
  0.16600000000000004          589810.81250000000
  0.16710000000000003          661487.87500000000
  0.16820000000000002          725506.56250000000
  0.16930000000000001          783062.06250000000
  0.17040000000000000          835317.12500000000
  0.17150000000000004          883409.37500000000
  0.17260000000000003          928448.25000000000
  0.17370000000000002          971515.56250000000
  0.17480000000000001          1013643.3125000000
  0.17590000000000000          1055767.6250000000
  0.17700000000000005          1098705.2500000000
  0.17810000000000004          1143136.2500000000
  0.17920000000000003          1189644.8750000000
  0.18030000000000002          1238711.3750000000
  0.18140000000000001          1290737.8750000000
  0.18250000000000000          1345960.7500000000
  0.18360000000000004          1404459.6250000000
  0.18470000000000003          1466147.2500000000
  0.18580000000000002          1530779.3750000000
  0.18690000000000001          1598024.8750000000
  0.18800000000000000          1667390.5000000000
  0.18910000000000005          1738252.0000000000
  0.19020000000000004          1809782.1250000000
  0.19130000000000003          1880976.0000000000
  0.19240000000000002          1950695.2500000000
  0.19350000000000001          2017714.2500000000
  0.19460000000000005          2080731.1250000000
  0.19570000000000004          2138334.7500000000
  0.19680000000000003          2188965.2500000000
  0.19790000000000002          2230940.0000000000
  0.19900000000000001          2262499.2500000000
  0.20010000000000000          2281936.2500000000
  0.20120000000000005          2287559.5000000000
  0.20230000000000004          2277706.2500000000
  0.20340000000000003          2250733.7500000000
  0.20450000000000002          2205038.5000000000
  0.20560000000000000          2139163.5000000000
  0.20670000000000005          2051814.1250000000
  0.20780000000000004          1941908.8750000000
  0.20890000000000003          1808559.1250000000
