 -0.12000000000000000          0.0000000000000000
 -0.11889999999999999          0.0000000000000000
 -0.11780000000000000          0.0000000000000000
 -0.11670000000000000          0.0000000000000000
 -0.11559999999999999          0.0000000000000000
 -0.11449999999999999          0.0000000000000000
 -0.11340000000000000          0.0000000000000000
 -0.11230000000000000          0.0000000000000000
 -0.11119999999999999          0.0000000000000000
 -0.11009999999999999          0.0000000000000000
 -0.10900000000000000         -2.9863981292809957E-029
 -0.10790000000000000          9.2556709902390198E-030
 -0.10679999999999999         -4.4720921458547703E-028
 -0.10569999999999999         -8.7702497065720406E-027
 -0.10460000000000000         -3.0322380304817070E-026
 -0.10349999999999999          2.0764503058560403E-026
 -0.10239999999999999          3.2710309719834902E-025
 -0.10130000000000000          3.2367320393815793E-025
 -0.10020000000000000         -2.6251090003829706E-024
  -9.9099999999999994E-002    -9.0343735079193670E-024
  -9.7999999999999990E-002    -1.1476281395978336E-024
  -9.6899999999999986E-002     5.9742474768966315E-023
  -9.5799999999999996E-002     1.4648462909777182E-022
  -9.4699999999999993E-002    -6.8069505891027494E-024
  -9.3599999999999989E-002    -7.9868756250161994E-022
  -9.2499999999999999E-002    -1.7712818718310404E-021
  -9.1399999999999995E-002    -2.3434785574709224E-022
  -9.0299999999999991E-002     7.2437215983227316E-021
  -8.9200000000000002E-002     1.6736067452798379E-020
  -8.8099999999999984E-002     7.5195677533571266E-021
  -8.6999999999999994E-002    -4.6644123436974226E-020
  -8.5899999999999990E-002    -1.2482275643107949E-019
  -8.4799999999999986E-002    -9.9483538856286528E-020
  -8.3699999999999997E-002     2.0613859145174002E-019
  -8.2599999999999993E-002     7.3412486159234344E-019
  -8.1499999999999989E-002     8.4852435389873345E-019
  -8.0399999999999999E-002    -4.7448765316539744E-019
  -7.9299999999999995E-002    -3.3620962792370948E-018
  -7.8199999999999992E-002    -5.2721080124103203E-018
  -7.7100000000000002E-002    -1.1998828641631625E-018
  -7.5999999999999984E-002     1.1469743449122548E-017
  -7.4899999999999994E-002     2.4979219990211031E-017
  -7.3799999999999991E-002     1.8967198506281721E-017
  -7.2699999999999987E-002    -2.4639771536598870E-017
  -7.1599999999999997E-002    -9.0803083381073670E-017
  -7.0499999999999993E-002    -1.1186056067783199E-016
  -6.9399999999999989E-002    -1.8896970045095357E-018
  -6.8300000000000000E-002     2.4284347247508105E-016
  -6.7199999999999996E-002     4.4615930543359292E-016
  -6.6099999999999992E-002     2.9468781807767501E-016
  -6.5000000000000002E-002    -3.9249635362346438E-016
  -6.3899999999999985E-002    -1.2984132049560912E-015
  -6.2799999999999995E-002    -1.5264730143560489E-015
  -6.1699999999999991E-002    -1.6504978284242897E-016
  -6.0599999999999994E-002     2.6291019650925970E-015
  -5.9499999999999990E-002     4.8981204834284975E-015
  -5.8399999999999994E-002     3.6547464205938067E-015
  -5.7299999999999990E-002    -2.5573879206133117E-015
  -5.6199999999999986E-002    -1.0881839049639574E-014
  -5.5099999999999996E-002    -1.4094743438792384E-014
  -5.3999999999999992E-002    -5.2376248412151771E-015
  -5.2899999999999989E-002     1.4920370169403674E-014
  -5.1799999999999985E-002     3.3678057087885294E-014
  -5.0699999999999995E-002     3.1837501927346745E-014
  -4.9599999999999991E-002    -1.1039711803205910E-015
  -4.8499999999999988E-002    -5.1803854039583416E-014
  -4.7399999999999998E-002    -8.3006972335149948E-014
  -4.6299999999999994E-002    -5.6384994465358620E-014
  -4.5199999999999990E-002     3.2447345320579107E-014
  -4.4099999999999986E-002     1.3424417827367918E-013
  -4.2999999999999997E-002     1.6696092750533020E-013
  -4.1899999999999993E-002     7.4912169837574455E-014
  -4.0799999999999989E-002    -1.1240012013583739E-013
  -3.9699999999999985E-002    -2.7486850686167519E-013
  -3.8599999999999995E-002    -2.7345107515147626E-013
  -3.7499999999999992E-002    -6.1271463163564688E-014
  -3.6399999999999988E-002     2.5078910844723856E-013
  -3.5299999999999984E-002     4.4422232277178952E-013
  -3.4199999999999994E-002     3.4679756896055514E-013
  -3.3099999999999991E-002    -1.6178696904856245E-014
  -3.1999999999999987E-002    -4.0428784994252231E-013
  -3.0899999999999997E-002    -5.2314478703879841E-013
  -2.9799999999999993E-002    -2.6211156725977625E-013
  -2.8699999999999989E-002     1.8417930483689837E-013
  -2.7599999999999986E-002     4.4177777213348646E-013
  -2.6499999999999996E-002     2.6821857994178966E-013
  -2.5399999999999992E-002    -1.9609604196522967E-013
  -2.4299999999999988E-002    -4.8184118370611650E-013
  -2.3199999999999985E-002    -1.7371686229263050E-013
  -2.2099999999999995E-002     6.5156961857187889E-013
  -2.0999999999999991E-002     1.3281252183097725E-012
  -1.9899999999999987E-002     1.0342873476079650E-012
  -1.8799999999999983E-002    -4.8275505771730454E-013
  -1.7699999999999994E-002    -2.4565228323725208E-012
  -1.6599999999999990E-002    -3.4028489661469541E-012
  -1.5499999999999986E-002    -2.1291525400396472E-012
  -1.4399999999999996E-002     1.2027584874244046E-012
  -1.3299999999999992E-002     4.8165560082025216E-012
  -1.2199999999999989E-002     6.2599539267516047E-012
  -1.1099999999999985E-002     4.0612266154205212E-012
  -9.9999999999999950E-003    -1.0350579985121677E-012
  -8.8999999999999913E-003    -6.2599253038142511E-012
  -7.7999999999999875E-003    -8.4969305896853697E-012
  -6.6999999999999837E-003    -6.3650291634576028E-012
  -5.5999999999999939E-003    -1.1866346663960692E-012
  -4.4999999999999901E-003     3.9716190405880702E-012
  -3.3999999999999864E-003     6.5515223454659655E-012
  -2.2999999999999826E-003     6.3099005187527979E-012
  -1.1999999999999927E-003     5.1396573629014508E-012
  -9.9999999999988987E-005     4.9026980392108399E-012
   1.0000000000000148E-003     5.0587225380871459E-012
   2.1000000000000185E-003     2.4137274210606074E-012
   3.2000000000000084E-003    -6.1175253231182669E-012
   4.3000000000000121E-003    -1.9429366102108325E-011
   5.4000000000000159E-003    -3.0291436026175234E-011
   6.5000000000000058E-003    -2.8262486101438000E-011
   7.6000000000000234E-003    -6.8448285234223860E-012
   8.7000000000000133E-003     2.9471470402997468E-011
   9.8000000000000032E-003     6.3882003853432678E-011
   1.0900000000000021E-002     7.4458210430616845E-011
   1.2000000000000011E-002     4.7053441004640817E-011
   1.3100000000000001E-002    -1.3617919292219227E-011
   1.4200000000000018E-002    -8.2515889954226651E-011
   1.5300000000000008E-002    -1.2506698454650689E-010
   1.6400000000000026E-002    -1.1520218806682081E-010
   1.7500000000000016E-002    -5.0466960471728939E-011
   1.8600000000000005E-002     4.4924567538240368E-011
   1.9700000000000023E-002     1.3127207654228812E-010
   2.0800000000000013E-002     1.7250274819691214E-010
   2.1900000000000003E-002     1.5240884942979704E-010
   2.3000000000000020E-002     7.9551185083737153E-011
   2.4100000000000010E-002    -2.0221491148220139E-011
   2.5200000000000000E-002    -1.1735208638175010E-010
   2.6300000000000018E-002    -1.8949912472532304E-010
   2.7400000000000008E-002    -2.2455598491788464E-010
   2.8500000000000025E-002    -2.1688316420576115E-010
   2.9600000000000015E-002    -1.6232373778457543E-010
   3.0700000000000005E-002    -5.7290110155872043E-011
   3.1800000000000023E-002     9.6798451199031632E-011
   3.2900000000000013E-002     2.8658861395136626E-010
   3.4000000000000002E-002     4.8150761156051658E-010
   3.5100000000000020E-002     6.3264887772973566E-010
   3.6200000000000010E-002     6.7646399593002116E-010
   3.7300000000000028E-002     5.4404281080167038E-010
   3.8400000000000017E-002     1.7836393473302792E-010
   3.9500000000000007E-002    -4.3845055364144514E-010
   4.0600000000000025E-002    -1.2511253144609213E-009
   4.1700000000000015E-002    -2.1027763974501568E-009
   4.2800000000000005E-002    -2.7311160000209611E-009
   4.3900000000000022E-002    -2.8058149137422106E-009
   4.5000000000000012E-002    -2.0092185692988096E-009
   4.6100000000000002E-002    -1.4264425751697729E-010
   4.7200000000000020E-002     2.7735382879257031E-009
   4.8300000000000010E-002     6.4363829821445506E-009
   4.9400000000000027E-002     1.0246917980794024E-008
   5.0500000000000017E-002     1.3338763871217907E-008
   5.1600000000000007E-002     1.4628676048289435E-008
   5.2700000000000025E-002     1.2872820143172703E-008
   5.3800000000000014E-002     6.7261543001961854E-009
   5.4900000000000004E-002    -5.1898449981990780E-009
   5.6000000000000022E-002    -2.4215406568828257E-008
   5.7100000000000012E-002    -5.1604185813403092E-008
   5.8200000000000002E-002    -8.8544467757856182E-008
   5.9300000000000019E-002    -1.3628832107315247E-007
   6.0400000000000009E-002    -1.9638824255707732E-007
   6.1500000000000027E-002    -2.7098948862658290E-007
   6.2600000000000017E-002    -3.6309623396846291E-007
   6.3700000000000007E-002    -4.7674745928816264E-007
   6.4800000000000024E-002    -6.1710022691841004E-007
   6.5900000000000014E-002    -7.9048857060115552E-007
   6.7000000000000004E-002    -1.0045583849205286E-006
   6.8100000000000022E-002    -1.2685471801887616E-006
   6.9200000000000012E-002    -1.5936980162223335E-006
   7.0300000000000029E-002    -1.9937233446398750E-006
   7.1400000000000019E-002    -2.4852197384461761E-006
   7.2500000000000009E-002    -3.0879971291142283E-006
   7.3600000000000027E-002    -3.8253911043284461E-006
   7.4700000000000016E-002    -4.7247040129150264E-006
   7.5800000000000006E-002    -5.8179075494990684E-006
   7.6900000000000024E-002    -7.1426425165554974E-006
   7.8000000000000014E-002    -8.7434054876212031E-006
   7.9100000000000004E-002    -1.0672741154849064E-005
   8.0200000000000021E-002    -1.2992287338420283E-005
   8.1300000000000011E-002    -1.5773657651152462E-005
   8.2400000000000029E-002    -1.9099305063718930E-005
   8.3500000000000019E-002    -2.3063599655870348E-005
   8.4600000000000009E-002    -2.7774332920671441E-005
   8.5700000000000026E-002    -3.3354674087604508E-005
   8.6800000000000016E-002    -3.9945443859323859E-005
   8.7900000000000006E-002    -4.7707391786389053E-005
   8.9000000000000024E-002    -5.6823329941835254E-005
   9.0100000000000013E-002    -6.7499895521905273E-005
   9.1200000000000003E-002    -7.9969067883212119E-005
   9.2300000000000021E-002    -9.4489572802558541E-005
   9.3400000000000011E-002    -1.1134829401271418E-004
   9.4500000000000028E-002    -1.3086189574096352E-004
   9.5600000000000018E-002    -1.5337855438701808E-004
   9.6700000000000008E-002    -1.7927972658071667E-004
   9.7800000000000026E-002    -2.0898168440908194E-004
   9.8900000000000016E-002    -2.4293678870890290E-004
  0.10000000000000001         -2.8163412935100496E-004
  0.10110000000000002         -3.2559942337684333E-004
  0.10220000000000001         -3.7539389450103045E-004
  0.10330000000000003         -4.3161227949894965E-004
  0.10440000000000002         -4.9487961223348975E-004
  0.10550000000000001         -5.6584761478006840E-004
  0.10660000000000003         -6.4518942963331938E-004
  0.10770000000000002         -7.3359475936740637E-004
  0.10880000000000001         -8.3176320185884833E-004
  0.10990000000000003         -9.4039732357487082E-004
  0.11100000000000002         -1.0601938702166080E-003
  0.11210000000000001         -1.1918336385861039E-003
  0.11320000000000002         -1.3359691947698593E-003
  0.11430000000000001         -1.4932116027921438E-003
  0.11540000000000003         -1.6641140682622790E-003
  0.11650000000000002         -1.8491561058908701E-003
  0.11760000000000001         -2.0487261936068535E-003
  0.11870000000000003         -2.2631038445979357E-003
  0.11980000000000002         -2.4924417957663536E-003
  0.12090000000000001         -2.7367479633539915E-003
  0.12200000000000003         -2.9958670493215322E-003
  0.12310000000000001         -3.2694616820663214E-003
  0.12420000000000003         -3.5569944884628057E-003
  0.12530000000000002         -3.8577097002416849E-003
  0.12640000000000001         -4.1706170886754990E-003
  0.12750000000000003         -4.4944779947400093E-003
  0.12860000000000002         -4.8277927562594414E-003
  0.12970000000000001         -5.1687927916646004E-003
  0.13080000000000003         -5.5154375731945038E-003
  0.13190000000000002         -5.8654136955738068E-003
  0.13300000000000001         -6.2161362729966640E-003
  0.13410000000000000         -6.5647605806589127E-003
  0.13520000000000004         -6.9081913679838181E-003
  0.13630000000000003         -7.2431000880897045E-003
  0.13740000000000002         -7.5659495778381824E-003
  0.13850000000000001         -7.8730219975113869E-003
  0.13960000000000000         -8.1604532897472382E-003
  0.14070000000000005         -8.4242736920714378E-003
  0.14180000000000004         -8.6604543030261993E-003
  0.14290000000000003         -8.8649550452828407E-003
  0.14400000000000002         -9.0337786823511124E-003
  0.14510000000000001         -9.1630257666110992E-003
  0.14620000000000000         -9.2489561066031456E-003
  0.14730000000000004         -9.2880502343177795E-003
  0.14840000000000003         -9.2770671471953392E-003
  0.14950000000000002         -9.2131104320287704E-003
  0.15060000000000001         -9.0936850756406784E-003
  0.15170000000000000         -8.9167542755603790E-003
  0.15280000000000005         -8.6807953193783760E-003
  0.15390000000000004         -8.3848461508750916E-003
  0.15500000000000003         -8.0285454168915749E-003
  0.15610000000000002         -7.6121720485389233E-003
  0.15720000000000001         -7.1366662159562111E-003
  0.15830000000000000         -6.6036474891006947E-003
  0.15940000000000004         -6.0154218226671219E-003
  0.16050000000000003         -5.3749768994748592E-003
  0.16160000000000002         -4.6859658323228359E-003
  0.16270000000000001         -3.9526834152638912E-003
  0.16380000000000000         -3.1800270080566406E-003
  0.16490000000000005         -2.3734513670206070E-003
  0.16600000000000004         -1.5389098552986979E-003
  0.16710000000000003         -6.8278744583949447E-004
  0.16820000000000002          1.8817289674188942E-004
  0.16930000000000001          1.0669518960639834E-003
  0.17040000000000000          1.9463413627818227E-003
  0.17150000000000004          2.8190363664180040E-003
  0.17260000000000003          3.6777309142053127E-003
  0.17370000000000002          4.5152143575251102E-003
  0.17480000000000001          5.3244675509631634E-003
  0.17590000000000000          6.0987551696598530E-003
  0.17700000000000005          6.8317162804305553E-003
  0.17810000000000004          7.5174449011683464E-003
  0.17920000000000003          8.1505673006176949E-003
  0.18030000000000002          8.7263090535998344E-003
  0.18140000000000001          9.2405499890446663E-003
  0.18250000000000000          9.6898749470710754E-003
  0.18360000000000004          1.0071608237922192E-002
  0.18470000000000003          1.0383837856352329E-002
  0.18580000000000002          1.0625430382788181E-002
  0.18690000000000001          1.0796029120683670E-002
  0.18800000000000000          1.0896044783294201E-002
  0.18910000000000005          1.0926629416644573E-002
  0.19020000000000004          1.0889646597206593E-002
  0.19130000000000003          1.0787622071802616E-002
  0.19240000000000002          1.0623689740896225E-002
  0.19350000000000001          1.0401534847915173E-002
  0.19460000000000005          1.0125325992703438E-002
  0.19570000000000004          9.7996424883604050E-003
  0.19680000000000003          9.4294026494026184E-003
  0.19790000000000002          9.0197864919900894E-003
  0.19900000000000001          8.5761575028300285E-003
  0.20010000000000000          8.1039872020483017E-003
  0.20120000000000005          7.6087820343673229E-003
  0.20230000000000004          7.0960102602839470E-003
  0.20340000000000003          6.5710372291505337E-003
  0.20450000000000002          6.0390653088688850E-003
  0.20560000000000000          5.5050775408744812E-003
  0.20670000000000005          4.9737934023141861E-003
  0.20780000000000004          4.4496250338852406E-003
  0.20890000000000003          3.9366488344967365E-003
