 -0.12000000000000000          0.0000000000000000
 -0.11889999999999999          0.0000000000000000
 -0.11780000000000000          0.0000000000000000
 -0.11670000000000000          0.0000000000000000
 -0.11559999999999999          0.0000000000000000
 -0.11449999999999999          0.0000000000000000
 -0.11340000000000000          0.0000000000000000
 -0.11230000000000000         -6.3685657544195047E-026
 -0.11119999999999999         -7.0051584121996396E-019
 -0.11009999999999999         -4.9563318135679847E-018
 -0.10900000000000000         -1.0801446861448575E-017
 -0.10790000000000000          1.9451036298895012E-017
 -0.10679999999999999          1.7707824626347390E-016
 -0.10569999999999999          4.5634402959138326E-016
 -0.10460000000000000          3.3751065398713451E-016
 -0.10349999999999999         -1.3943575798035364E-015
 -0.10239999999999999         -5.3091017164692068E-015
 -0.10130000000000000         -7.9867219405392332E-015
 -0.10020000000000000         -8.8191005826449820E-017
  -9.9099999999999994E-002     2.6687683909574750E-014
  -9.7999999999999990E-002     6.0792340671017879E-014
  -9.6899999999999986E-002     5.5600184558416500E-014
  -9.5799999999999996E-002    -4.8361166552489867E-014
  -9.4699999999999993E-002    -2.4531697745237779E-013
  -9.3599999999999989E-002    -3.8010377180835685E-013
  -9.2499999999999999E-002    -1.8131919305845941E-013
  -9.1399999999999995E-002     4.9725946017066741E-013
  -9.0299999999999991E-002     1.3401440330726847E-012
  -8.9200000000000002E-002     1.5009236258372022E-012
  -8.8099999999999984E-002     1.4474086805429001E-013
  -8.6999999999999994E-002    -2.5503358105915487E-012
  -8.5899999999999990E-002    -4.7917746159867805E-012
  -8.4799999999999986E-002    -3.9843731612650057E-012
  -8.3699999999999997E-002     1.0214276256395292E-012
  -8.2599999999999993E-002     7.8916569459799262E-012
  -8.1499999999999989E-002     1.1359413409907340E-011
  -8.0399999999999999E-002     7.0989286497809663E-012
  -7.9299999999999995E-002    -3.7091089748190320E-012
  -7.8199999999999992E-002    -1.3751976987720888E-011
  -7.7100000000000002E-002    -1.5120415336470648E-011
  -7.5999999999999984E-002    -7.1552351717270468E-012
  -7.4899999999999994E-002     1.4806856912459625E-012
  -7.3799999999999991E-002     1.1140651118692549E-012
  -7.2699999999999987E-002    -6.1668773386420284E-012
  -7.1599999999999997E-002    -3.3749981975802469E-012
  -7.0499999999999993E-002     2.5861531666163124E-011
  -6.9399999999999989E-002     7.2509255544239044E-011
  -6.8300000000000000E-002     9.3549855362248062E-011
  -6.7199999999999996E-002     3.9113476346677286E-011
  -6.6099999999999992E-002    -9.6215459210987745E-011
  -6.5000000000000002E-002    -2.4150065280890631E-010
  -6.3899999999999985E-002    -2.7892949061582158E-010
  -6.2799999999999995E-002    -1.3036156876205043E-010
  -6.1699999999999991E-002     1.6145138004292475E-010
  -6.0599999999999994E-002     4.3348399869634450E-010
  -5.9499999999999990E-002     5.0459564304721303E-010
  -5.8399999999999994E-002     3.0942512441187607E-010
  -5.7299999999999990E-002    -4.7209586934088522E-011
  -5.6199999999999986E-002    -3.6953445858856081E-010
  -5.5099999999999996E-002    -5.2052678833910594E-010
  -5.3999999999999992E-002    -5.0784654259682833E-010
  -5.2899999999999989E-002    -4.2501524522014674E-010
  -5.1799999999999985E-002    -3.0872637779562812E-010
  -5.0699999999999995E-002    -7.0018685294131329E-011
  -4.9599999999999991E-002     4.0067577034012962E-010
  -4.8499999999999988E-002     1.0331798749873583E-009
  -4.7399999999999998E-002     1.4922153512840776E-009
  -4.6299999999999994E-002     1.3520555786072395E-009
  -4.5199999999999990E-002     4.4153783407284926E-010
  -4.4099999999999986E-002    -9.2595198175591825E-010
  -4.2999999999999997E-002    -2.0745836160072009E-009
  -4.1899999999999993E-002    -2.3926174375076942E-009
  -4.0799999999999989E-002    -1.7383792183525079E-009
  -3.9699999999999985E-002    -4.9714710126418136E-010
  -3.8599999999999995E-002     7.4296763186122003E-010
  -3.7499999999999992E-002     1.5953213194918114E-009
  -3.6399999999999988E-002     2.0066677208775682E-009
  -3.5299999999999984E-002     2.0511479181808666E-009
  -3.4199999999999994E-002     1.6686485526664349E-009
  -3.3099999999999991E-002     6.8450450863017939E-010
  -3.1999999999999987E-002    -8.6373730390221267E-010
  -3.0899999999999997E-002    -2.4397450726353939E-009
  -2.9799999999999993E-002    -3.1495519525746546E-009
  -2.8699999999999989E-002    -2.3234310031481233E-009
  -2.7599999999999986E-002    -1.0316785620229640E-010
  -2.6499999999999996E-002     2.4768591622148117E-009
  -2.5399999999999992E-002     4.0275103252437912E-009
  -2.4299999999999988E-002     3.5633269668262659E-009
  -2.3199999999999985E-002     9.4164054331665200E-010
  -2.2099999999999995E-002    -3.2118423476394659E-009
  -2.0999999999999991E-002    -7.8198549857691963E-009
  -1.9899999999999987E-002    -1.1530301158302641E-008
  -1.8799999999999983E-002    -1.2693788242757305E-008
  -1.7699999999999994E-002    -9.4389918103848209E-009
  -1.6599999999999990E-002    -8.4981154058533673E-011
  -1.5499999999999986E-002     1.6322497131682672E-008
  -1.4399999999999996E-002     3.9899152426416940E-008
  -1.3299999999999992E-002     7.0540380647803860E-008
  -1.2199999999999989E-002     1.0889097268319296E-007
  -1.1099999999999985E-002     1.5684477716605584E-007
  -9.9999999999999950E-003     2.1709823272432850E-007
  -8.8999999999999913E-003     2.9219845032459999E-007
  -7.7999999999999875E-003     3.8414358982666609E-007
  -6.6999999999999837E-003     4.9522282097318053E-007
  -5.5999999999999939E-003     6.2965943925524514E-007
  -4.4999999999999901E-003     7.9478274983564416E-007
  -3.3999999999999864E-003     1.0007485116148878E-006
  -2.2999999999999826E-003     1.2590738833752023E-006
  -1.1999999999999927E-003     1.5813263871679263E-006
  -9.9999999999988987E-005     1.9792050807156415E-006
   1.0000000000000148E-003     2.4660719191162844E-006
   2.1000000000000185E-003     3.0588460049332629E-006
   3.2000000000000084E-003     3.7790905480509122E-006
   4.3000000000000121E-003     4.6531022235289463E-006
   5.4000000000000159E-003     5.7117913456754981E-006
   6.5000000000000058E-003     6.9911875471013050E-006
   7.6000000000000234E-003     8.5335805124494098E-006
   8.7000000000000133E-003     1.0388610462542583E-005
   9.8000000000000032E-003     1.2613792932826249E-005
   1.0900000000000021E-002     1.5274825273082978E-005
   1.2000000000000011E-002     1.8446557078279285E-005
   1.3100000000000001E-002     2.2214986529436017E-005
   1.4200000000000018E-002     2.6679696020439712E-005
   1.5300000000000008E-002     3.1955638405636855E-005
   1.6400000000000026E-002     3.8173944631129092E-005
   1.7500000000000016E-002     4.5482407585954519E-005
   1.8600000000000005E-002     5.4046828154246369E-005
   1.9700000000000023E-002     6.4053347159648296E-005
   2.0800000000000013E-002     7.5710944656754925E-005
   2.1900000000000003E-002     8.9252913312528625E-005
   2.3000000000000020E-002     1.0493722948013791E-004
   2.4100000000000010E-002     1.2304699339439306E-004
   2.5200000000000000E-002     1.4389223360923448E-004
   2.6300000000000018E-002     1.6781271551737171E-004
   2.7400000000000008E-002     1.9518047338353323E-004
   2.8500000000000025E-002     2.2640006500298287E-004
   2.9600000000000015E-002     2.6190650532955750E-004
   3.0700000000000005E-002     3.0216269078667149E-004
   3.1800000000000023E-002     3.4765797317962442E-004
   3.2900000000000013E-002     3.9890818879943145E-004
   3.4000000000000002E-002     4.5645554200750163E-004
   3.5100000000000020E-002     5.2086630603303164E-004
   3.6200000000000010E-002     5.9272616636013293E-004
   3.7300000000000028E-002     6.7263387609279180E-004
   3.8400000000000017E-002     7.6119415462023836E-004
   3.9500000000000007E-002     8.5901102283977187E-004
   4.0600000000000025E-002     9.6667977049955415E-004
   4.1700000000000015E-002     1.0847774101422206E-003
   4.2800000000000005E-002     1.2138519668952717E-003
   4.3900000000000022E-002     1.3544113608078383E-003
   4.5000000000000012E-002     1.5069117071108383E-003
   4.6100000000000002E-002     1.6717448597775412E-003
   4.7200000000000020E-002     1.8492239760236617E-003
   4.8300000000000010E-002     2.0395680330695561E-003
   4.9400000000000027E-002     2.2428836673500179E-003
   5.0500000000000017E-002     2.4591512046756585E-003
   5.1600000000000007E-002     2.6882095262410689E-003
   5.2700000000000025E-002     2.9297417495402372E-003
   5.3800000000000014E-002     3.1832614913585694E-003
   5.4900000000000004E-002     3.4480979666116989E-003
   5.6000000000000022E-002     3.7233792245391422E-003
   5.7100000000000012E-002     4.0080239996317709E-003
   5.8200000000000002E-002     4.3007326312367077E-003
   5.9300000000000019E-002     4.5999856665734683E-003
   6.0400000000000009E-002     4.9040396697823726E-003
   6.1500000000000027E-002     5.2109267562632572E-003
   6.2600000000000017E-002     5.5184569209819146E-003
   6.3700000000000007E-002     5.8242254890506859E-003
   6.4800000000000024E-002     6.1256280168896600E-003
   6.5900000000000014E-002     6.4198742620652886E-003
   6.7000000000000004E-002     6.7040091380483153E-003
   6.8100000000000022E-002     6.9749346002942825E-003
   6.9200000000000012E-002     7.2294371202594795E-003
   7.0300000000000029E-002     7.4642235413200650E-003
   7.1400000000000019E-002     7.6759653165943626E-003
   7.2500000000000009E-002     7.8613394871361441E-003
   7.3600000000000027E-002     8.0170631408698900E-003
   7.4700000000000016E-002     8.1399427726872448E-003
   7.5800000000000006E-002     8.2269161939628709E-003
   7.6900000000000024E-002     8.2751112058766525E-003
   7.8000000000000014E-002     8.2818930968650058E-003
   7.9100000000000004E-002     8.2449121400721727E-003
   8.0200000000000021E-002     8.1621482968338120E-003
   8.1300000000000011E-002     8.0319484695799831E-003
   8.2400000000000029E-002     7.8530674800284250E-003
   8.3500000000000019E-002     7.6247118413455628E-003
   8.4600000000000009E-002     7.3465723544366259E-003
   8.5700000000000026E-002     7.0188441313809961E-003
   8.6800000000000016E-002     6.6422345116740941E-003
   8.7900000000000006E-002     6.2179719097918366E-003
   8.9000000000000024E-002     5.7478081434970763E-003
   9.0100000000000013E-002     5.2340161055331623E-003
   9.1200000000000003E-002     4.6793734654788860E-003
   9.2300000000000021E-002     4.0871324017648040E-003
   9.3400000000000011E-002     3.4609762951735216E-003
   9.4500000000000028E-002     2.8049764223399705E-003
   9.5600000000000018E-002     2.1235477179291158E-003
   9.6700000000000008E-002     1.4213975518943521E-003
   9.7800000000000026E-002     7.0346298161903787E-004
   9.8900000000000016E-002    -2.5166358682298272E-005
  0.10000000000000001         -7.5933104380969266E-004
  0.10110000000000002         -1.4938790118322871E-003
  0.10220000000000001         -2.2237354423852562E-003
  0.10330000000000003         -2.9439702630045497E-003
  0.10440000000000002         -3.6498738918456595E-003
  0.10550000000000001         -4.3370374478403553E-003
  0.10660000000000003         -5.0014322623614929E-003
  0.10770000000000002         -5.6394678540532860E-003
  0.10880000000000001         -6.2480391934519666E-003
  0.10990000000000003         -6.8245618604129768E-003
  0.11100000000000002         -7.3670120909816771E-003
  0.11210000000000001         -7.8739654272801905E-003
  0.11320000000000002         -8.3446232602007887E-003
  0.11430000000000001         -8.7788170203574618E-003
  0.11540000000000003         -9.1769816353925570E-003
  0.11650000000000002         -9.5401331782349798E-003
  0.11760000000000001         -9.8698372021326607E-003
  0.11870000000000003         -1.0168179869652735E-002
  0.11980000000000002         -1.0437729768455995E-002
  0.12090000000000001         -1.0681473650039231E-002
  0.12200000000000003         -1.0902724228800353E-002
  0.12310000000000001         -1.1105039156974391E-002
  0.12420000000000003         -1.1292142793537232E-002
  0.12530000000000002         -1.1467850767077079E-002
  0.12640000000000001         -1.1635985225440149E-002
  0.12750000000000003         -1.1800282634795805E-002
  0.12860000000000002         -1.1964282952250157E-002
  0.12970000000000001         -1.2131225317717721E-002
  0.13080000000000003         -1.2303964234889690E-002
  0.13190000000000002         -1.2484909966589174E-002
  0.13300000000000001         -1.2675963342190958E-002
  0.13410000000000000         -1.2878437526525255E-002
  0.13520000000000004         -1.3092989102007166E-002
  0.13630000000000003         -1.3319553807379043E-002
  0.13740000000000002         -1.3557324185968694E-002
  0.13850000000000001         -1.3804749585689386E-002
  0.13960000000000000         -1.4059541746975287E-002
  0.14070000000000005         -1.4318668283523449E-002
  0.14180000000000004         -1.4578355476261531E-002
  0.14290000000000003         -1.4834115281702458E-002
  0.14400000000000002         -1.5080809593202080E-002
  0.14510000000000001         -1.5312742441894043E-002
  0.14620000000000000         -1.5523746609689247E-002
  0.14730000000000004         -1.5707258135081798E-002
  0.14840000000000003         -1.5856392681600141E-002
  0.14950000000000002         -1.5964062884451454E-002
  0.15060000000000001         -1.6023103147746635E-002
  0.15170000000000000         -1.6026427969338019E-002
  0.15280000000000005         -1.5967173501850684E-002
  0.15390000000000004         -1.5838807448746276E-002
  0.15500000000000003         -1.5635248273612557E-002
  0.15610000000000002         -1.5350978821517506E-002
  0.15720000000000001         -1.4981191605330955E-002
  0.15830000000000000         -1.4521925710143064E-002
  0.15940000000000004         -1.3970173895360401E-002
  0.16050000000000003         -1.3323966413737651E-002
  0.16160000000000002         -1.2582434341312700E-002
  0.16270000000000001         -1.1745868250728826E-002
  0.16380000000000000         -1.0815779678524633E-002
  0.16490000000000005         -9.7949411720047487E-003
  0.16600000000000004         -8.6873928084978576E-003
  0.16710000000000003         -7.4984189122923256E-003
  0.16820000000000002         -6.2344940379268823E-003
  0.16930000000000001         -4.9032242968684112E-003
  0.17040000000000000         -3.5132835619155964E-003
  0.17150000000000004         -2.0743259228769009E-003
  0.17260000000000003         -5.9687258908541860E-004
  0.17370000000000002          9.0782885672521872E-004
  0.17480000000000001          2.4279530625791516E-003
  0.17590000000000000          3.9512515068056801E-003
  0.17700000000000005          5.4652108810846079E-003
  0.17810000000000004          6.9572189822798480E-003
  0.17920000000000003          8.4147425368435100E-003
  0.18030000000000002          9.8255081102260264E-003
  0.18140000000000001          1.1177676729858879E-002
  0.18250000000000000          1.2459996156395566E-002
  0.18360000000000004          1.3661948964000952E-002
  0.18470000000000003          1.4773885719479447E-002
  0.18580000000000002          1.5787160024048317E-002
  0.18690000000000001          1.6694253310562693E-002
  0.18800000000000000          1.7488867044450448E-002
  0.18910000000000005          1.8165983259679556E-002
  0.19020000000000004          1.8721904605628791E-002
  0.19130000000000003          1.9154287874700422E-002
  0.19240000000000002          1.9462149590255651E-002
  0.19350000000000001          1.9645873457195220E-002
  0.19460000000000005          1.9707167521120981E-002
  0.19570000000000004          1.9648995250465349E-002
  0.19680000000000003          1.9475499168040224E-002
  0.19790000000000002          1.9191913306714943E-002
  0.19900000000000001          1.8804470077158828E-002
  0.20010000000000000          1.8320299685003143E-002
  0.20120000000000005          1.7747292295100026E-002
  0.20230000000000004          1.7093958333136317E-002
  0.20340000000000003          1.6369281336666756E-002
  0.20450000000000002          1.5582594089211567E-002
  0.20560000000000000          1.4743453823031452E-002
  0.20670000000000005          1.3861507177354283E-002
  0.20780000000000004          1.2946357019246917E-002
  0.20890000000000003          1.2007426470519318E-002
