 -0.12000000000000000          0.0000000000000000
 -0.11889999999999999          0.0000000000000000
 -0.11780000000000000          0.0000000000000000
 -0.11670000000000000          0.0000000000000000
 -0.11559999999999999          0.0000000000000000
 -0.11449999999999999          0.0000000000000000
 -0.11340000000000000          0.0000000000000000
 -0.11230000000000000          0.0000000000000000
 -0.11119999999999999          0.0000000000000000
 -0.11009999999999999          0.0000000000000000
 -0.10900000000000000         -1.1553261342331401E-019
 -0.10790000000000000         -1.1801966893674364E-018
 -0.10679999999999999         -4.5601441466088850E-018
 -0.10569999999999999         -2.5727701398514845E-018
 -0.10460000000000000          4.9449095246436410E-017
 -0.10349999999999999          2.2802632512876158E-016
 -0.10239999999999999          4.1348302425978816E-016
 -0.10130000000000000         -2.8225853601900421E-016
 -0.10020000000000000         -3.6376829418713688E-015
  -9.9099999999999994E-002    -9.5831181599653932E-015
  -9.7999999999999990E-002    -8.9902272841393786E-015
  -9.6899999999999986E-002     2.1078631732857761E-014
  -9.5799999999999996E-002     9.8326755808633703E-014
  -9.4699999999999993E-002     1.7362489484334942E-013
  -9.3599999999999989E-002     6.4024672607847222E-014
  -9.2499999999999999E-002    -4.7969777022122129E-013
  -9.1399999999999995E-002    -1.4066025904799218E-012
  -9.0299999999999991E-002    -1.8011815997032166E-012
  -8.9200000000000002E-002     1.9318710043139675E-013
  -8.8099999999999984E-002     5.9004507009519092E-012
  -8.6999999999999994E-002     1.2893342643538475E-011
  -8.5899999999999990E-002     1.2458050216435090E-011
  -8.4799999999999986E-002    -7.1246064603514014E-012
  -8.3699999999999997E-002    -4.7766644806213066E-011
  -8.2599999999999993E-002    -8.4561732616172947E-011
  -8.1499999999999989E-002    -6.3120689230977689E-011
  -8.0399999999999999E-002     6.6673153109597649E-011
  -7.9299999999999995E-002     2.8101018734183469E-010
  -7.8199999999999992E-002     4.2477457662393192E-010
  -7.7100000000000002E-002     2.5155366678575319E-010
  -7.5999999999999984E-002    -3.8587907869036542E-010
  -7.4899999999999994E-002    -1.2697680684681245E-009
  -7.3799999999999991E-002    -1.7092942616869777E-009
  -7.2699999999999987E-002    -8.5006673922194409E-010
  -7.1599999999999997E-002     1.5828941490880766E-009
  -7.0499999999999993E-002     4.5455856856335686E-009
  -6.9399999999999989E-002     5.6953655125369096E-009
  -6.8300000000000000E-002     2.6798505636804748E-009
  -6.7199999999999996E-002    -4.7213166709525467E-009
  -6.6099999999999992E-002    -1.3084939354257585E-008
  -6.5000000000000002E-002    -1.6177160944153002E-008
  -6.3899999999999985E-002    -8.5932745363948015E-009
  -6.2799999999999995E-002     9.5658094778627856E-009
  -6.1699999999999991E-002     3.0321032795654901E-008
  -6.0599999999999994E-002     4.0376949783649252E-008
  -5.9499999999999990E-002     2.8235644933261028E-008
  -5.8399999999999994E-002    -7.8232238465147930E-009
  -5.7299999999999990E-002    -5.5615320349033937E-008
  -5.6199999999999986E-002    -9.1497092569170491E-008
  -5.5099999999999996E-002    -8.8944723586337204E-008
  -5.3999999999999992E-002    -3.0989273369641523E-008
  -5.2899999999999989E-002     7.6259517811649857E-008
  -5.1799999999999985E-002     1.9360636827059352E-007
  -5.0699999999999995E-002     2.5132200676125649E-007
  -4.9599999999999991E-002     1.7533893981180881E-007
  -4.8499999999999988E-002    -6.1476967516682635E-008
  -4.7399999999999998E-002    -3.8573571714550781E-007
  -4.6299999999999994E-002    -6.1424617570082773E-007
  -4.5199999999999990E-002    -5.3059119409226696E-007
  -4.4099999999999986E-002    -3.7108900841076320E-008
  -4.2999999999999997E-002     7.0528830065086368E-007
  -4.1899999999999993E-002     1.2765084420607309E-006
  -4.0799999999999989E-002     1.2046283472955110E-006
  -3.9699999999999985E-002     3.0062835776334396E-007
  -3.8599999999999995E-002    -1.1014780056939344E-006
  -3.7499999999999992E-002    -2.2218860067368951E-006
  -3.6399999999999988E-002    -2.2623280528932810E-006
  -3.5299999999999984E-002    -9.4480731149815256E-007
  -3.4199999999999994E-002     1.2142635341660935E-006
  -3.3099999999999991E-002     3.1262679840438068E-006
  -3.1999999999999987E-002     3.7302258988347603E-006
  -3.0899999999999997E-002     2.5698061563161900E-006
  -2.9799999999999993E-002    -1.6343564723797499E-008
  -2.8699999999999989E-002    -3.1209992812364362E-006
  -2.7599999999999986E-002    -5.6225503612949979E-006
  -2.6499999999999996E-002    -6.3983529798861127E-006
  -2.5399999999999992E-002    -4.4751523091690615E-006
  -2.4299999999999988E-002     5.4061973742136615E-007
  -2.3199999999999985E-002     7.6537153290701099E-006
  -2.2099999999999995E-002     1.3876964658265933E-005
  -2.0999999999999991E-002     1.4864947843307164E-005
  -1.9899999999999987E-002     7.2834427555790171E-006
  -1.8799999999999983E-002    -8.0692952906247228E-006
  -1.7699999999999994E-002    -2.4713242964935489E-005
  -1.6599999999999990E-002    -3.2601896236883476E-005
  -1.5499999999999986E-002    -2.3754744688631035E-005
  -1.4399999999999996E-002     1.6689938320268993E-006
  -1.3299999999999992E-002     3.3199412428075448E-005
  -1.2199999999999989E-002     5.4250347602646798E-005
  -1.1099999999999985E-002     5.0997219659620896E-005
  -9.9999999999999950E-003     2.0769988623214886E-005
  -8.8999999999999913E-003    -2.5290873963967897E-005
  -7.7999999999999875E-003    -6.7015178501605988E-005
  -6.6999999999999837E-003    -8.4545921708922833E-005
  -5.5999999999999939E-003    -6.7122520704288036E-005
  -4.4999999999999901E-003    -1.7516804291517474E-005
  -3.3999999999999864E-003     4.8540758143644780E-005
  -2.2999999999999826E-003     1.0662591375876218E-004
  -1.1999999999999927E-003     1.3056375610176474E-004
  -9.9999999999988987E-005     1.0187344014411792E-004
   1.0000000000000148E-003     2.0318449969636276E-005
   2.1000000000000185E-003    -8.9205321273766458E-005
   3.2000000000000084E-003    -1.8031836953014135E-004
   4.3000000000000121E-003    -2.0296733418945223E-004
   5.4000000000000159E-003    -1.3020110782235861E-004
   6.5000000000000058E-003     2.0213987227180041E-005
   7.6000000000000234E-003     1.8485213513486087E-004
   8.7000000000000133E-003     2.8026130166836083E-004
   9.8000000000000032E-003     2.4515110999345779E-004
   1.0900000000000021E-002     7.7169454016257077E-005
   1.2000000000000011E-002    -1.5715265180915594E-004
   1.3100000000000001E-002    -3.4731067717075348E-004
   1.4200000000000018E-002    -3.8839853368699551E-004
   1.5300000000000008E-002    -2.3257233260665089E-004
   1.6400000000000026E-002     8.1329511885996908E-005
   1.7500000000000016E-002     4.3416634434834123E-004
   1.8600000000000005E-002     6.6843704553321004E-004
   1.9700000000000023E-002     6.5141648519784212E-004
   2.0800000000000013E-002     3.3580296440050006E-004
   2.1900000000000003E-002    -2.0756218873430043E-004
   2.3000000000000020E-002    -8.0239557428285480E-004
   2.4100000000000010E-002    -1.2254896573722363E-003
   2.5200000000000000E-002    -1.2910329969599843E-003
   2.6300000000000018E-002    -9.2693237820640206E-004
   2.7400000000000008E-002    -2.1036085672676563E-004
   2.8500000000000025E-002     6.5405591158196330E-004
   2.9600000000000015E-002     1.4068166492506862E-003
   3.0700000000000005E-002     1.8308435101062059E-003
   3.1800000000000023E-002     1.8377499654889107E-003
   3.2900000000000013E-002     1.5076390700414777E-003
   3.4000000000000002E-002     1.0565492557361722E-003
   3.5100000000000020E-002     7.2702061152085662E-004
   3.6200000000000010E-002     6.3171662623062730E-004
   3.7300000000000028E-002     6.1773177003487945E-004
   3.8400000000000017E-002     2.3610207426827401E-004
   3.9500000000000007E-002    -1.1293466668576002E-003
   4.0600000000000025E-002    -3.9974898099899292E-003
   4.1700000000000015E-002    -8.5052903741598129E-003
   4.2800000000000005E-002    -1.4261550270020962E-002
   4.3900000000000022E-002    -2.0450133830308914E-002
   4.5000000000000012E-002    -2.6168758049607277E-002
   4.6100000000000002E-002    -3.0854318290948868E-002
   4.7200000000000020E-002    -3.4588340669870377E-002
   4.8300000000000010E-002    -3.8132116198539734E-002
   4.9400000000000027E-002    -4.2688310146331787E-002
   5.0500000000000017E-002    -4.9522534012794495E-002
   5.1600000000000007E-002    -5.9638220816850662E-002
   5.2700000000000025E-002    -7.3644116520881653E-002
   5.3800000000000014E-002    -9.1839365661144257E-002
   5.4900000000000004E-002   -0.11443585157394409
   5.6000000000000022E-002   -0.14177949726581573
   5.7100000000000012E-002   -0.17449218034744263
   5.8200000000000002E-002   -0.21350201964378357
   5.9300000000000019E-002   -0.26002043485641479
   6.0400000000000009E-002   -0.31551834940910339
   6.1500000000000027E-002   -0.38175433874130249
   6.2600000000000017E-002   -0.46080410480499268
   6.3700000000000007E-002   -0.55502629280090332
   6.4800000000000024E-002   -0.66691946983337402
   6.5900000000000014E-002   -0.79895555973052979
   6.7000000000000004E-002   -0.95346581935882568
   6.8100000000000022E-002    -1.1327961683273315
   6.9200000000000012E-002    -1.3397729396820068
   7.0300000000000029E-002    -1.5781821012496948
   7.1400000000000019E-002    -1.8531286716461182
   7.2500000000000009E-002    -2.1707983016967773
   7.3600000000000027E-002    -2.5378248691558838
   7.4700000000000016E-002    -2.9603261947631836
   7.5800000000000006E-002    -3.4433791637420654
   7.6900000000000024E-002    -3.9911327362060547
   7.8000000000000014E-002    -4.6076068878173828
   7.9100000000000004E-002    -5.2977228164672852
   8.0200000000000021E-002    -6.0679140090942383
   8.1300000000000011E-002    -6.9259138107299805
   8.2400000000000029E-002    -7.8799099922180176
   8.3500000000000019E-002    -8.9371480941772461
   8.4600000000000009E-002    -10.102965354919434
   8.5700000000000026E-002    -11.380370140075684
   8.6800000000000016E-002    -12.770536422729492
   8.7900000000000006E-002    -14.273287773132324
   8.9000000000000024E-002    -15.887531280517578
   9.0100000000000013E-002    -17.611679077148438
   9.1200000000000003E-002    -19.442901611328125
   9.2300000000000021E-002    -21.376127243041992
   9.3400000000000011E-002    -23.403396606445312
   9.4500000000000028E-002    -25.513315200805664
   9.5600000000000018E-002    -27.690307617187500
   9.6700000000000008E-002    -29.914215087890625
   9.7800000000000026E-002    -32.160354614257812
   9.8900000000000016E-002    -34.399410247802734
  0.10000000000000001         -36.597595214843750
  0.10110000000000002         -38.717044830322266
  0.10220000000000001         -40.717193603515625
  0.10330000000000003         -42.552001953125000
  0.10440000000000002         -44.173358917236328
  0.10550000000000001         -45.530578613281250
  0.10660000000000003         -46.569519042968750
  0.10770000000000002         -47.232521057128906
  0.10880000000000001         -47.453239440917969
  0.10990000000000003         -47.167285919189453
  0.11100000000000002         -46.310394287109375
  0.11210000000000001         -44.822170257568359
  0.11320000000000002         -42.648578643798828
  0.11430000000000001         -39.739082336425781
  0.11540000000000003         -36.049846649169922
  0.11650000000000002         -31.534643173217773
  0.11760000000000001         -26.160137176513672
  0.11870000000000003         -19.899232864379883
  0.11980000000000002         -12.739870071411133
  0.12090000000000001         -4.6833243370056152
  0.12200000000000003          4.2523403167724609
  0.12310000000000001          14.030096054077148
  0.12420000000000003          24.585599899291992
  0.12530000000000002          35.852603912353516
  0.12640000000000001          47.749794006347656
  0.12750000000000003          60.182765960693359
  0.12860000000000002          73.026687622070312
  0.12970000000000001          86.140861511230469
  0.13080000000000003          99.364608764648438
  0.13190000000000002          112.52729034423828
  0.13300000000000001          125.44173431396484
  0.13410000000000000          137.92359924316406
  0.13520000000000004          149.77259826660156
  0.13630000000000003          160.77413940429688
  0.13740000000000002          170.73167419433594
  0.13850000000000001          179.44364929199219
  0.13960000000000000          186.70735168457031
  0.14070000000000005          192.34844970703125
  0.14180000000000004          196.20454406738281
  0.14290000000000003          198.11889648437500
  0.14400000000000002          197.96311950683594
  0.14510000000000001          195.62619018554688
  0.14620000000000000          191.04328918457031
  0.14730000000000004          184.18606567382812
  0.14840000000000003          175.04734802246094
  0.14950000000000002          163.65463256835938
  0.15060000000000001          150.07272338867188
  0.15170000000000000          134.40428161621094
  0.15280000000000005          116.80233764648438
  0.15390000000000004          97.456375122070312
  0.15500000000000003          76.576629638671875
  0.15610000000000002          54.388046264648438
  0.15720000000000001          31.136877059936523
  0.15830000000000000          7.1024990081787109
  0.15940000000000004         -17.400527954101562
  0.16050000000000003         -42.034942626953125
  0.16160000000000002         -66.468635559082031
  0.16270000000000001         -90.381629943847656
  0.16380000000000000         -113.46479797363281
  0.16490000000000005         -135.42662048339844
  0.16600000000000004         -155.97280883789062
  0.16710000000000003         -174.81864929199219
  0.16820000000000002         -191.71879577636719
  0.16930000000000001         -206.46151733398438
  0.17040000000000000         -218.88366699218750
  0.17150000000000004         -228.84033203125000
  0.17260000000000003         -236.22348022460938
  0.17370000000000002         -240.96110534667969
  0.17480000000000001         -243.03410339355469
  0.17590000000000000         -242.46606445312500
  0.17700000000000005         -239.33755493164062
  0.17810000000000004         -233.74337768554688
  0.17920000000000003         -225.81137084960938
  0.18030000000000002         -215.70776367187500
  0.18140000000000001         -203.63151550292969
  0.18250000000000000         -189.81347656250000
  0.18360000000000004         -174.48184204101562
  0.18470000000000003         -157.88922119140625
  0.18580000000000002         -140.28861999511719
  0.18690000000000001         -121.94708251953125
  0.18800000000000000         -103.13798522949219
  0.18910000000000005         -84.134864807128906
  0.19020000000000004         -65.196746826171875
  0.19130000000000003         -46.563270568847656
  0.19240000000000002         -28.443691253662109
  0.19350000000000001         -11.032917976379395
  0.19460000000000005          5.4890336990356445
  0.19570000000000004          20.953222274780273
  0.19680000000000003          35.224105834960938
  0.19790000000000002          48.199676513671875
  0.19900000000000001          59.804771423339844
  0.20010000000000000          69.993576049804688
  0.20120000000000005          78.735771179199219
  0.20230000000000004          86.026741027832031
  0.20340000000000003          91.876495361328125
  0.20450000000000002          96.321083068847656
  0.20560000000000000          99.420509338378906
  0.20670000000000005          101.25235748291016
  0.20780000000000004          101.90781402587891
  0.20890000000000003          101.48615264892578
