 -0.12000000000000000          0.0000000000000000
 -0.11889999999999999          0.0000000000000000
 -0.11780000000000000          0.0000000000000000
 -0.11670000000000000          0.0000000000000000
 -0.11559999999999999          5.0858319292079734E-013
 -0.11449999999999999          1.7094483380913905E-012
 -0.11340000000000000          1.4868390806749288E-013
 -0.11230000000000000         -1.0690961137205246E-011
 -0.11119999999999999         -2.8100268639752457E-011
 -0.11009999999999999         -2.6439735817396226E-011
 -0.10900000000000000          2.8020575443266083E-011
 -0.10790000000000000          1.2394582582508917E-010
 -0.10679999999999999          1.6585595397078379E-010
 -0.10569999999999999          3.1352729440436988E-011
 -0.10460000000000000         -2.7475940966859014E-010
 -0.10349999999999999         -5.1763704433938074E-010
 -0.10239999999999999         -3.6503486344763303E-010
 -0.10130000000000000          2.6376292816543412E-010
 -0.10020000000000000          9.5316365911202183E-010
  -9.9099999999999994E-002     1.0160007279935712E-009
  -9.7999999999999990E-002     1.5046888734993047E-010
  -9.6899999999999986E-002    -1.0573025788218615E-009
  -9.5799999999999996E-002    -1.4461363218032375E-009
  -9.4699999999999993E-002    -3.7779393502468395E-010
  -9.3599999999999989E-002     1.3413337107692769E-009
  -9.2499999999999999E-002     1.8383699007529231E-009
  -9.1399999999999995E-002    -9.3231866671317221E-011
  -9.0299999999999991E-002    -3.3489511164219721E-009
  -8.9200000000000002E-002    -4.7865005292635487E-009
  -8.8099999999999984E-002    -1.7642259875216837E-009
  -8.6999999999999994E-002     4.9878758900945286E-009
  -8.5899999999999990E-002     1.0967022845420615E-008
  -8.4799999999999986E-002     1.0985421461384703E-008
  -8.3699999999999997E-002     3.5710949752854049E-009
  -8.2599999999999993E-002    -7.1651125033156404E-009
  -8.1499999999999989E-002    -1.4266693604270131E-008
  -8.0399999999999999E-002    -1.3328149250924071E-008
  -7.9299999999999995E-002    -5.9484457359815224E-009
  -7.8199999999999992E-002     1.9429795550252038E-009
  -7.7100000000000002E-002     5.5268065679570100E-009
  -7.5999999999999984E-002     5.3458388826754799E-009
  -7.4899999999999994E-002     6.2821730040241164E-009
  -7.3799999999999991E-002     1.1984950809562633E-008
  -7.2699999999999987E-002     1.9878234169823372E-008
  -7.1599999999999997E-002     2.1646897607752180E-008
  -7.0499999999999993E-002     9.2058103362546717E-009
  -6.9399999999999989E-002    -1.8982126093192164E-008
  -6.8300000000000000E-002    -5.6934180037160331E-008
  -6.7199999999999996E-002    -9.6537817739772436E-008
  -6.6099999999999992E-002    -1.3464143933106243E-007
  -6.5000000000000002E-002    -1.7574929245256499E-007
  -6.3899999999999985E-002    -2.2834244362002210E-007
  -6.2799999999999995E-002    -2.9866589557059342E-007
  -6.1699999999999991E-002    -3.8793501744294190E-007
  -6.0599999999999994E-002    -4.9545315050636418E-007
  -5.9499999999999990E-002    -6.2446059700960177E-007
  -5.8399999999999994E-002    -7.8502910128008807E-007
  -5.7299999999999990E-002    -9.9127089470130159E-007
  -5.6199999999999986E-002    -1.2556578212752356E-006
  -5.5099999999999996E-002    -1.5860707662795903E-006
  -5.3999999999999992E-002    -1.9886624613718595E-006
  -5.2899999999999989E-002    -2.4741507331782486E-006
  -5.1799999999999985E-002    -3.0619587505498203E-006
  -5.0699999999999995E-002    -3.7787358451168984E-006
  -4.9599999999999991E-002    -4.6532600208593067E-006
  -4.8499999999999988E-002    -5.7133584050461650E-006
  -4.7399999999999998E-002    -6.9887423705949914E-006
  -4.6299999999999994E-002    -8.5180136011331342E-006
  -4.5199999999999990E-002    -1.0353774996474385E-005
  -4.4099999999999986E-002    -1.2561104995256756E-005
  -4.2999999999999997E-002    -1.5210730452963617E-005
  -4.1899999999999993E-002    -1.8373730199527927E-005
  -4.0799999999999989E-002    -2.2124104361864738E-005
  -3.9699999999999985E-002    -2.6548941605142318E-005
  -3.8599999999999995E-002    -3.1758820114191622E-005
  -3.7499999999999992E-002    -3.7890084058744833E-005
  -3.6399999999999988E-002    -4.5097425754647702E-005
  -3.5299999999999984E-002    -5.3544146794592962E-005
  -3.4199999999999994E-002    -6.3400482758879662E-005
  -3.3099999999999991E-002    -7.4853851401712745E-005
  -3.1999999999999987E-002    -8.8123990281019360E-005
  -3.0899999999999997E-002    -1.0347059287596494E-004
  -2.9799999999999993E-002    -1.2118670565541834E-004
  -2.8699999999999989E-002    -1.4158400881569833E-004
  -2.7599999999999986E-002    -1.6498382319696248E-004
  -2.6499999999999996E-002    -1.9172369502484798E-004
  -2.5399999999999992E-002    -2.2217517835088074E-004
  -2.4299999999999988E-002    -2.5675728102214634E-004
  -2.3199999999999985E-002    -2.9593289946205914E-004
  -2.2099999999999995E-002    -3.4019004669971764E-004
  -2.0999999999999991E-002    -3.9002404082566500E-004
  -1.9899999999999987E-002    -4.4593538041226566E-004
  -1.8799999999999983E-002    -5.0844432553276420E-004
  -1.7699999999999994E-002    -5.7810498401522636E-004
  -1.6599999999999990E-002    -6.5550219733268023E-004
  -1.5499999999999986E-002    -7.4122811201959848E-004
  -1.4399999999999996E-002    -8.3585461834445596E-004
  -1.3299999999999992E-002    -9.3992147594690323E-004
  -1.2199999999999989E-002    -1.0539434151723981E-003
  -1.1099999999999985E-002    -1.1784208472818136E-003
  -9.9999999999999950E-003    -1.3138342183083296E-003
  -8.8999999999999913E-003    -1.4606154290959239E-003
  -7.7999999999999875E-003    -1.6191119793802500E-003
  -6.6999999999999837E-003    -1.7895658966153860E-003
  -5.5999999999999939E-003    -1.9721125718206167E-003
  -4.4999999999999901E-003    -2.1667871624231339E-003
  -3.3999999999999864E-003    -2.3735158611088991E-003
  -2.2999999999999826E-003    -2.5920839980244637E-003
  -1.1999999999999927E-003    -2.8220952954143286E-003
  -9.9999999999988987E-005    -3.0629469547420740E-003
   1.0000000000000148E-003    -3.3138303551822901E-003
   2.1000000000000185E-003    -3.5737382713705301E-003
   3.2000000000000084E-003    -3.8414620794355869E-003
   4.3000000000000121E-003    -4.1155638173222542E-003
   5.4000000000000159E-003    -4.3943417258560658E-003
   6.5000000000000058E-003    -4.6758167445659637E-003
   7.6000000000000234E-003    -4.9577425234019756E-003
   8.7000000000000133E-003    -5.2376291714608669E-003
   9.8000000000000032E-003    -5.5127600207924843E-003
   1.0900000000000021E-002    -5.7801813818514347E-003
   1.2000000000000011E-002    -6.0366904363036156E-003
   1.3100000000000001E-002    -6.2788389623165131E-003
   1.4200000000000018E-002    -6.5029729157686234E-003
   1.5300000000000008E-002    -6.7052822560071945E-003
   1.6400000000000026E-002    -6.8818437866866589E-003
   1.7500000000000016E-002    -7.0286439731717110E-003
   1.8600000000000005E-002    -7.1415919810533524E-003
   1.9700000000000023E-002    -7.2165587916970253E-003
   2.0800000000000013E-002    -7.2494386695325375E-003
   2.1900000000000003E-002    -7.2362292557954788E-003
   2.3000000000000020E-002    -7.1730990894138813E-003
   2.4100000000000010E-002    -7.0564304478466511E-003
   2.5200000000000000E-002    -6.8828579969704151E-003
   2.6300000000000018E-002    -6.6493172198534012E-003
   2.7400000000000008E-002    -6.3531235791742802E-003
   2.8500000000000025E-002    -5.9920540079474449E-003
   2.9600000000000015E-002    -5.5644181556999683E-003
   3.0700000000000005E-002    -5.0691016949713230E-003
   3.1800000000000023E-002    -4.5055937953293324E-003
   3.2900000000000013E-002    -3.8740274030715227E-003
   3.4000000000000002E-002    -3.1752309296280146E-003
   3.5100000000000020E-002    -2.4107876233756542E-003
   3.6200000000000010E-002    -1.5830714255571365E-003
   3.7300000000000028E-002    -6.9525348953902721E-004
   3.8400000000000017E-002     2.4871216737665236E-004
   3.9500000000000007E-002     1.2441020226106048E-003
   4.0600000000000025E-002     2.2854241542518139E-003
   4.1700000000000015E-002     3.3664198126643896E-003
   4.2800000000000005E-002     4.4800871983170509E-003
   4.3900000000000022E-002     5.6187366135418415E-003
   4.5000000000000012E-002     6.7740641534328461E-003
   4.6100000000000002E-002     7.9372338950634003E-003
   4.7200000000000020E-002     9.0989470481872559E-003
   4.8300000000000010E-002     1.0249509476125240E-002
   4.9400000000000027E-002     1.1378919705748558E-002
   5.0500000000000017E-002     1.2476973235607147E-002
   5.1600000000000007E-002     1.3533390127122402E-002
   5.2700000000000025E-002     1.4537945389747620E-002
   5.3800000000000014E-002     1.5480587258934975E-002
   5.4900000000000004E-002     1.6351543366909027E-002
   5.6000000000000022E-002     1.7141424119472504E-002
   5.7100000000000012E-002     1.7841361463069916E-002
   5.8200000000000002E-002     1.8443122506141663E-002
   5.9300000000000019E-002     1.8939241766929626E-002
   6.0400000000000009E-002     1.9323131069540977E-002
   6.1500000000000027E-002     1.9589167088270187E-002
   6.2600000000000017E-002     1.9732762128114700E-002
   6.3700000000000007E-002     1.9750453531742096E-002
   6.4800000000000024E-002     1.9639968872070312E-002
   6.5900000000000014E-002     1.9400276243686676E-002
   6.7000000000000004E-002     1.9031638279557228E-002
   6.8100000000000022E-002     1.8535621464252472E-002
   6.9200000000000012E-002     1.7915081232786179E-002
   7.0300000000000029E-002     1.7174156382679939E-002
   7.1400000000000019E-002     1.6318224370479584E-002
   7.2500000000000009E-002     1.5353864990174770E-002
   7.3600000000000027E-002     1.4288803562521935E-002
   7.4700000000000016E-002     1.3131822459399700E-002
   7.5800000000000006E-002     1.1892657727003098E-002
   7.6900000000000024E-002     1.0581874288618565E-002
   7.8000000000000014E-002     9.2107467353343964E-003
   7.9100000000000004E-002     7.7911312691867352E-003
   8.0200000000000021E-002     6.3353399746119976E-003
   8.1300000000000011E-002     4.8559890128672123E-003
   8.2400000000000029E-002     3.3658382017165422E-003
   8.3500000000000019E-002     1.8776203505694866E-003
   8.4600000000000009E-002     4.0388663182966411E-004
   8.5700000000000026E-002    -1.0431341361254454E-003
   8.6800000000000016E-002    -2.4516603443771601E-003
   8.7900000000000006E-002    -3.8104900158941746E-003
   8.9000000000000024E-002    -5.1091434434056282E-003
   9.0100000000000013E-002    -6.3379947096109390E-003
   9.1200000000000003E-002    -7.4883797205984592E-003
   9.2300000000000021E-002    -8.5526695474982262E-003
   9.3400000000000011E-002    -9.5243193209171295E-003
   9.4500000000000028E-002    -1.0397912003099918E-002
   9.5600000000000018E-002    -1.1169210076332092E-002
   9.6700000000000008E-002    -1.1835202574729919E-002
   9.7800000000000026E-002    -1.2394107878208160E-002
   9.8900000000000016E-002    -1.2845341116189957E-002
  0.10000000000000001         -1.3189460150897503E-002
  0.10110000000000002         -1.3428097590804100E-002
  0.10220000000000001         -1.3563918881118298E-002
  0.10330000000000003         -1.3600578531622887E-002
  0.10440000000000002         -1.3542641885578632E-002
  0.10550000000000001         -1.3395475223660469E-002
  0.10660000000000003         -1.3165109790861607E-002
  0.10770000000000002         -1.2858116999268532E-002
  0.10880000000000001         -1.2481514364480972E-002
  0.10990000000000003         -1.2042683549225330E-002
  0.11100000000000002         -1.1549277231097221E-002
  0.11210000000000001         -1.1009096167981625E-002
  0.11320000000000002         -1.0429946705698967E-002
  0.11430000000000001         -9.8195215687155724E-003
  0.11540000000000003         -9.1853216290473938E-003
  0.11650000000000002         -8.5346084088087082E-003
  0.11760000000000001         -7.8743435442447662E-003
  0.11870000000000003         -7.2111156769096851E-003
  0.11980000000000002         -6.5510496497154236E-003
  0.12090000000000001         -5.8997427113354206E-003
  0.12200000000000003         -5.2622407674789429E-003
  0.12310000000000001         -4.6430435031652451E-003
  0.12420000000000003         -4.0461095049977303E-003
  0.12530000000000002         -3.4748425241559744E-003
  0.12640000000000001         -2.9320705216377974E-003
  0.12750000000000003         -2.4200405459851027E-003
  0.12860000000000002         -1.9404470222070813E-003
  0.12970000000000001         -1.4944802969694138E-003
  0.13080000000000003         -1.0828713420778513E-003
  0.13190000000000002         -7.0591829717159271E-004
  0.13300000000000001         -3.6350637674331665E-004
  0.13410000000000000         -5.5141106713563204E-005
  0.13520000000000004          2.2000048193149269E-004
  0.13630000000000003          4.6301085967570543E-004
  0.13740000000000002          6.7520461743697524E-004
  0.13850000000000001          8.5808662697672844E-004
  0.13960000000000000          1.0133262258023024E-003
  0.14070000000000005          1.1427202261984348E-003
  0.14180000000000004          1.2481440789997578E-003
  0.14290000000000003          1.3315075775608420E-003
  0.14400000000000002          1.3947265688329935E-003
  0.14510000000000001          1.4397092163562775E-003
  0.14620000000000000          1.4683424960821867E-003
  0.14730000000000004          1.4824668178334832E-003
  0.14840000000000003          1.4838456409052014E-003
  0.14950000000000002          1.4741424238309264E-003
  0.15060000000000001          1.4549171319231391E-003
  0.15170000000000000          1.4276335714384913E-003
  0.15280000000000005          1.3936625327914953E-003
  0.15390000000000004          1.3542695669457316E-003
  0.15500000000000003          1.3105991529300809E-003
  0.15610000000000002          1.2636684114113450E-003
  0.15720000000000001          1.2143785133957863E-003
  0.15830000000000000          1.1635340051725507E-003
  0.15940000000000004          1.1118510738015175E-003
  0.16050000000000003          1.0599533561617136E-003
  0.16160000000000002          1.0083641391247511E-003
  0.16270000000000001          9.5751165645197034E-004
  0.16380000000000000          9.0774631826207042E-004
  0.16490000000000005          8.5935933748260140E-004
  0.16600000000000004          8.1258924910798669E-004
  0.16710000000000003          7.6761713717132807E-004
  0.16820000000000002          7.2456442285329103E-004
  0.16930000000000001          6.8350293440744281E-004
  0.17040000000000000          6.4447347540408373E-004
  0.17150000000000004          6.0749799013137817E-004
  0.17260000000000003          5.7257607113569975E-004
  0.17370000000000002          5.3967605344951153E-004
  0.17480000000000001          5.0873530562967062E-004
  0.17590000000000000          4.7967629507184029E-004
  0.17700000000000005          4.5242457417771220E-004
  0.17810000000000004          4.2691262206062675E-004
  0.17920000000000003          4.0306651499122381E-004
  0.18030000000000002          3.8079224759712815E-004
  0.18140000000000001          3.5997966188006103E-004
  0.18250000000000000          3.4052424598485231E-004
  0.18360000000000004          3.2234625541605055E-004
  0.18470000000000003          3.0538672581315041E-004
  0.18580000000000002          2.8958328766748309E-004
  0.18690000000000001          2.7484970632940531E-004
  0.18800000000000000          2.6108266320079565E-004
  0.18910000000000005          2.4819059763103724E-004
  0.19020000000000004          2.3611662618350238E-004
  0.19130000000000003          2.2483136854134500E-004
  0.19240000000000002          2.1430104970932007E-004
  0.19350000000000001          2.0446229609660804E-004
  0.19460000000000005          1.9522954244166613E-004
  0.19570000000000004          1.8652902508620173E-004
  0.19680000000000003          1.7832580488175154E-004
  0.19790000000000002          1.7061571998056024E-004
  0.19900000000000001          1.6338954446837306E-004
  0.20010000000000000          1.5660407370887697E-004
  0.20120000000000005          1.5018926933407784E-004
  0.20230000000000004          1.4408407150767744E-004
  0.20340000000000003          1.3826553185936064E-004
  0.20450000000000002          1.3274193042889237E-004
  0.20560000000000000          1.2751687609124929E-004
  0.20670000000000005          1.2256042100489140E-004
  0.20780000000000004          1.1781549255829304E-004
  0.20890000000000003          1.1323323997203261E-004
