 -0.12000000000000000          0.0000000000000000
 -0.11889999999999999          0.0000000000000000
 -0.11780000000000000          0.0000000000000000
 -0.11670000000000000          4.2031669522657467E-007
 -0.11559999999999999          5.7213384252463584E-007
 -0.11449999999999999         -2.2823385279480135E-006
 -0.11340000000000000         -7.6684964369633235E-006
 -0.11230000000000000         -5.4294714573188685E-006
 -0.11119999999999999          1.5760197129566222E-005
 -0.11009999999999999          4.3636180635076016E-005
 -0.10900000000000000          3.4268545277882367E-005
 -0.10790000000000000         -4.4640593841904774E-005
 -0.10679999999999999         -1.4579616254195571E-004
 -0.10569999999999999         -1.4182555605657399E-004
 -0.10460000000000000          5.2259940275689587E-005
 -0.10349999999999999          3.2684282632544637E-004
 -0.10239999999999999          3.9355011540465057E-004
 -0.10130000000000000          5.0085083785234019E-005
 -0.10020000000000000         -5.1782117225229740E-004
  -9.9099999999999994E-002    -7.6724705286324024E-004
  -9.7999999999999990E-002    -2.8284266591072083E-004
  -9.6899999999999986E-002     6.7680806387215853E-004
  -9.5799999999999996E-002     1.2042778544127941E-003
  -9.4699999999999993E-002     5.3783901967108250E-004
  -9.3599999999999989E-002    -1.0099929058924317E-003
  -9.2499999999999999E-002    -2.0071389153599739E-003
  -9.1399999999999995E-002    -1.0943120578303933E-003
  -9.0299999999999991E-002     1.5026197070255876E-003
  -8.9200000000000002E-002     3.6858050152659416E-003
  -8.8099999999999984E-002     3.0825019348412752E-003
  -8.6999999999999994E-002    -6.3880550442263484E-004
  -8.5899999999999990E-002    -4.9262391403317451E-003
  -8.4799999999999986E-002    -6.1427480541169643E-003
  -8.3699999999999997E-002    -2.7453557122498751E-003
  -8.2599999999999993E-002     3.0038245022296906E-003
  -8.1499999999999989E-002     6.6447313874959946E-003
  -8.0399999999999999E-002     5.3232712671160698E-003
  -7.9299999999999995E-002     4.2291055433452129E-004
  -7.8199999999999992E-002    -3.5599987022578716E-003
  -7.7100000000000002E-002    -3.1114008743315935E-003
  -7.5999999999999984E-002     9.2338997637853026E-004
  -7.4899999999999994E-002     3.9392099715769291E-003
  -7.3799999999999991E-002     1.8103348556905985E-003
  -7.2699999999999987E-002    -5.0616688095033169E-003
  -7.1599999999999997E-002    -1.1743597686290741E-002
  -7.0499999999999993E-002    -1.3013925403356552E-002
  -6.9399999999999989E-002    -8.0695180222392082E-003
  -6.8300000000000000E-002    -1.3649414759129286E-003
  -6.7199999999999996E-002     1.2396830134093761E-003
  -6.6099999999999992E-002    -2.4828410241752863E-003
  -6.5000000000000002E-002    -9.4919735565781593E-003
  -6.3899999999999985E-002    -1.4653155580163002E-002
  -6.2799999999999995E-002    -1.5657568350434303E-002
  -6.1699999999999991E-002    -1.5081868506968021E-002
  -6.0599999999999994E-002    -1.7759725451469421E-002
  -5.9499999999999990E-002    -2.6083488017320633E-002
  -5.8399999999999994E-002    -3.7746559828519821E-002
  -5.7299999999999990E-002    -4.8053856939077377E-002
  -5.6199999999999986E-002    -5.4566863924264908E-002
  -5.5099999999999996E-002    -5.9652004390954971E-002
  -5.3999999999999992E-002    -6.8509556353092194E-002
  -5.2899999999999989E-002    -8.4561705589294434E-002
  -5.1799999999999985E-002   -0.10658600181341171
  -5.0699999999999995E-002   -0.13036969304084778
  -4.9599999999999991E-002   -0.15336686372756958
  -4.8499999999999988E-002   -0.17792214453220367
  -4.7399999999999998E-002   -0.20982377231121063
  -4.6299999999999994E-002   -0.25329819321632385
  -4.5199999999999990E-002   -0.30708113312721252
  -4.4099999999999986E-002   -0.36553373932838440
  -4.2999999999999997E-002   -0.42427629232406616
  -4.1899999999999993E-002   -0.48543268442153931
  -4.0799999999999989E-002   -0.55740767717361450
  -3.9699999999999985E-002   -0.64879453182220459
  -3.8599999999999995E-002   -0.76147633790969849
  -3.7499999999999992E-002   -0.88931977748870850
  -3.6399999999999988E-002    -1.0242801904678345
  -3.5299999999999984E-002    -1.1649734973907471
  -3.4199999999999994E-002    -1.3198646306991577
  -3.3099999999999991E-002    -1.5014630556106567
  -3.1999999999999987E-002    -1.7160770893096924
  -3.0899999999999997E-002    -1.9582791328430176
  -2.9799999999999993E-002    -2.2158625125885010
  -2.8699999999999989E-002    -2.4814093112945557
  -2.7599999999999986E-002    -2.7603759765625000
  -2.6499999999999996E-002    -3.0674386024475098
  -2.5399999999999992E-002    -3.4137396812438965
  -2.4299999999999988E-002    -3.7962999343872070
  -2.3199999999999985E-002    -4.1996312141418457
  -2.2099999999999995E-002    -4.6089310646057129
  -2.0999999999999991E-002    -5.0226125717163086
  -1.9899999999999987E-002    -5.4525561332702637
  -1.8799999999999983E-002    -5.9105501174926758
  -1.7699999999999994E-002    -6.3938207626342773
  -1.6599999999999990E-002    -6.8831915855407715
  -1.5499999999999986E-002    -7.3558707237243652
  -1.4399999999999996E-002    -7.8019752502441406
  -1.3299999999999992E-002    -8.2273254394531250
  -1.2199999999999989E-002    -8.6409463882446289
  -1.1099999999999985E-002    -9.0379505157470703
  -9.9999999999999950E-003    -9.3948831558227539
  -8.8999999999999913E-003    -9.6821336746215820
  -7.7999999999999875E-003    -9.8820667266845703
  -6.6999999999999837E-003    -9.9939250946044922
  -5.5999999999999939E-003    -10.023158073425293
  -4.4999999999999901E-003    -9.9621753692626953
  -3.3999999999999864E-003    -9.7845420837402344
  -2.2999999999999826E-003    -9.4570169448852539
  -1.1999999999999927E-003    -8.9591331481933594
  -9.9999999999988987E-005    -8.2906503677368164
   1.0000000000000148E-003    -7.4584503173828125
   2.1000000000000185E-003    -6.4593501091003418
   3.2000000000000084E-003    -5.2707667350769043
   4.3000000000000121E-003    -3.8648834228515625
   5.4000000000000159E-003    -2.2289667129516602
   6.5000000000000058E-003   -0.37220001220703125
   7.6000000000000234E-003     1.6848833560943604
   8.7000000000000133E-003     3.9304332733154297
   9.8000000000000032E-003     6.3713831901550293
   1.0900000000000021E-002     9.0187664031982422
   1.2000000000000011E-002     11.867950439453125
   1.3100000000000001E-002     14.888250350952148
   1.4200000000000018E-002     18.036884307861328
   1.5300000000000008E-002     21.278917312622070
   1.6400000000000026E-002     24.596483230590820
   1.7500000000000016E-002     27.976617813110352
   1.8600000000000005E-002     31.389709472656250
   1.9700000000000023E-002     34.782524108886719
   2.0800000000000013E-002     38.090236663818359
   2.1900000000000003E-002     41.257076263427734
   2.3000000000000020E-002     44.246440887451172
   2.4100000000000010E-002     47.028308868408203
   2.5200000000000000E-002     49.560165405273438
   2.6300000000000018E-002     51.779350280761719
   2.7400000000000008E-002     53.616283416748047
   2.8500000000000025E-002     55.013423919677734
   2.9600000000000015E-002     55.934700012207031
   3.0700000000000005E-002     56.356384277343750
   3.1800000000000023E-002     56.246849060058594
   3.2900000000000013E-002     55.561801910400391
   3.4000000000000002E-002     54.253700256347656
   3.5100000000000020E-002     52.291732788085938
   3.6200000000000010E-002     49.670867919921875
   3.7300000000000028E-002     46.403099060058594
   3.8400000000000017E-002     42.499301910400391
   3.9500000000000007E-002     37.960567474365234
   4.0600000000000025E-002     32.788135528564453
   4.1700000000000015E-002     27.001600265502930
   4.2800000000000005E-002     20.646133422851562
   4.3900000000000022E-002     13.783733367919922
   4.5000000000000012E-002     6.4808669090270996
   4.6100000000000002E-002    -1.2039999961853027
   4.7200000000000020E-002    -9.2146663665771484
   4.8300000000000010E-002    -17.481332778930664
   4.9400000000000027E-002    -25.915067672729492
   5.0500000000000017E-002    -34.410400390625000
   5.1600000000000007E-002    -42.860401153564453
   5.2700000000000025E-002    -51.168533325195312
   5.3800000000000014E-002    -59.245532989501953
   5.4900000000000004E-002    -67.002136230468750
   5.6000000000000022E-002    -74.334266662597656
   5.7100000000000012E-002    -81.137603759765625
   5.8200000000000002E-002    -87.306800842285156
   5.9300000000000019E-002    -92.752502441406250
   6.0400000000000009E-002    -97.400871276855469
   6.1500000000000027E-002    -101.18938446044922
   6.2600000000000017E-002    -104.05159759521484
   6.3700000000000007E-002    -105.93212127685547
   6.4800000000000024E-002    -106.78283691406250
   6.5900000000000014E-002    -106.56643676757812
   6.7000000000000004E-002    -105.27320098876953
   6.8100000000000022E-002    -102.90995025634766
   6.9200000000000012E-002    -99.492271423339844
   7.0300000000000029E-002    -95.047653198242188
   7.1400000000000019E-002    -89.608833312988281
   7.2500000000000009E-002    -83.224998474121094
   7.3600000000000027E-002    -75.966102600097656
   7.4700000000000016E-002    -67.920730590820312
   7.5800000000000006E-002    -59.188934326171875
   7.6900000000000024E-002    -49.871532440185547
   7.8000000000000014E-002    -40.072132110595703
   7.9100000000000004E-002    -29.897733688354492
   8.0200000000000021E-002    -19.470733642578125
   8.1300000000000011E-002    -8.9256668090820312
   8.2400000000000029E-002     1.5975333452224731
   8.3500000000000019E-002     11.970333099365234
   8.4600000000000009E-002     22.076866149902344
   8.5700000000000026E-002     31.813600540161133
   8.6800000000000016E-002     41.071334838867188
   8.7900000000000006E-002     49.732666015625000
   8.9000000000000024E-002     57.687667846679688
   9.0100000000000013E-002     64.848136901855469
   9.1200000000000003E-002     71.152603149414062
   9.2300000000000021E-002     76.562133789062500
   9.3400000000000011E-002     81.039466857910156
   9.4500000000000028E-002     84.540267944335938
   9.5600000000000018E-002     87.030067443847656
   9.6700000000000008E-002     88.501670837402344
   9.7800000000000026E-002     88.984565734863281
   9.8900000000000016E-002     88.524604797363281
  0.10000000000000001          87.175148010253906
  0.10110000000000002          84.972000122070312
  0.10220000000000001          81.951927185058594
  0.10330000000000003          78.178604125976562
  0.10440000000000002          73.743362426757812
  0.10550000000000001          68.759727478027344
  0.10660000000000003          63.327850341796875
  0.10770000000000002          57.529487609863281
  0.10880000000000001          51.428218841552734
  0.10990000000000003          45.103317260742188
  0.11100000000000002          38.656799316406250
  0.11210000000000001          32.205749511718750
  0.11320000000000002          25.847749710083008
  0.11430000000000001          19.647899627685547
  0.11540000000000003          13.647966384887695
  0.11650000000000002          7.8938336372375488
  0.11760000000000001          2.4485332965850830
  0.11870000000000003         -2.6129999160766602
  0.11980000000000002         -7.2388000488281250
  0.12090000000000001         -11.409067153930664
  0.12200000000000003         -15.127933502197266
  0.12310000000000001         -18.399232864379883
  0.12420000000000003         -21.212699890136719
  0.12530000000000002         -23.549499511718750
  0.12640000000000001         -25.406717300415039
  0.12750000000000003         -26.806882858276367
  0.12860000000000002         -27.790817260742188
  0.12970000000000001         -28.394750595092773
  0.13080000000000003         -28.641267776489258
  0.13190000000000002         -28.546382904052734
  0.13300000000000001         -28.137716293334961
  0.13410000000000000         -27.457599639892578
  0.13520000000000004         -26.554700851440430
  0.13630000000000003         -25.468309402465820
  0.13740000000000002         -24.224575042724609
  0.13850000000000001         -22.844924926757812
  0.13960000000000000         -21.360042572021484
  0.14070000000000005         -19.810071945190430
  0.14180000000000004         -18.231679916381836
  0.14290000000000003         -16.648283004760742
  0.14400000000000002         -15.071376800537109
  0.14510000000000001         -13.511970520019531
  0.14620000000000000         -11.990762710571289
  0.14730000000000004         -10.533481597900391
  0.14840000000000003         -9.1586952209472656
  0.14950000000000002         -7.8695287704467773
  0.15060000000000001         -6.6596755981445312
  0.15170000000000000         -5.5269198417663574
  0.15280000000000005         -4.4808835983276367
  0.15390000000000004         -3.5351042747497559
  0.15500000000000003         -2.6945636272430420
  0.15610000000000002         -1.9495645761489868
  0.15720000000000001         -1.2848666906356812
  0.15830000000000000        -0.69284790754318237
  0.15940000000000004        -0.17753750085830688
  0.16050000000000003         0.25495415925979614
  0.16160000000000002         0.60887086391448975
  0.16270000000000001         0.89846044778823853
  0.16380000000000000          1.1391062736511230
  0.16490000000000005          1.3362646102905273
  0.16600000000000004          1.4859687089920044
  0.16710000000000003          1.5862500667572021
  0.16820000000000002          1.6456478834152222
  0.16930000000000001          1.6793833971023560
  0.17040000000000000          1.6974791288375854
  0.17150000000000004          1.6971677541732788
  0.17260000000000003          1.6709625720977783
  0.17370000000000002          1.6192500591278076
  0.17480000000000001          1.5551542043685913
  0.17590000000000000          1.4936395883560181
  0.17700000000000005          1.4378447532653809
  0.17810000000000004          1.3767167329788208
  0.17920000000000003          1.2990239858627319
  0.18030000000000002          1.2080135345458984
  0.18140000000000001          1.1216490268707275
  0.18250000000000000          1.0557042360305786
  0.18360000000000004          1.0070130825042725
  0.18470000000000003         0.95542085170745850
  0.18580000000000002         0.88420313596725464
  0.18690000000000001         0.79878073930740356
  0.18800000000000000         0.72311508655548096
  0.18910000000000005         0.67611563205718994
  0.19020000000000004         0.65183591842651367
  0.19130000000000003         0.62391614913940430
  0.19240000000000002         0.57153594493865967
  0.19350000000000001         0.50081980228424072
  0.19460000000000005         0.43987137079238892
  0.19570000000000004         0.41098463535308838
  0.19680000000000003         0.40755364298820496
  0.19790000000000002         0.39991328120231628
  0.19900000000000001         0.36423256993293762
  0.20010000000000000         0.30632892251014709
  0.20120000000000005         0.25587135553359985
  0.20230000000000004         0.23691459000110626
  0.20340000000000003         0.24374270439147949
  0.20450000000000002         0.24674218893051147
  0.20560000000000000         0.22197122871875763
  0.20670000000000005         0.17482461035251617
  0.20780000000000004         0.13444583117961884
  0.20890000000000003         0.12429062277078629
