 -0.12000000000000000          0.0000000000000000
 -0.11889999999999999          0.0000000000000000
 -0.11780000000000000          0.0000000000000000
 -0.11670000000000000          0.0000000000000000
 -0.11559999999999999          0.0000000000000000
 -0.11449999999999999          0.0000000000000000
 -0.11340000000000000          0.0000000000000000
 -0.11230000000000000          0.0000000000000000
 -0.11119999999999999          0.0000000000000000
 -0.11009999999999999          0.0000000000000000
 -0.10900000000000000          0.0000000000000000
 -0.10790000000000000         -1.6554549911511660E-028
 -0.10679999999999999         -1.0739827964253897E-027
 -0.10569999999999999          9.1463000467582869E-028
 -0.10460000000000000          2.8355398778479231E-026
 -0.10349999999999999          8.1891083577217608E-026
 -0.10239999999999999         -1.3109710837913837E-025
 -0.10130000000000000         -1.3416849640538079E-024
 -0.10020000000000000         -2.5159075769189049E-024
  -9.9099999999999994E-002     5.1420213888799008E-024
  -9.7999999999999990E-002     3.5118127969950877E-023
  -9.6899999999999986E-002     5.9137569915955601E-023
  -9.5799999999999996E-002    -7.4425435512761898E-023
  -9.4699999999999993E-002    -5.5568190152174192E-022
  -9.3599999999999989E-002    -1.0110402848933696E-021
  -9.2499999999999999E-002     3.4684073349615481E-022
  -9.1399999999999995E-002     5.7427991456709951E-021
  -9.0299999999999991E-002     1.2192563065262067E-020
  -8.9200000000000002E-002     4.0245802235106996E-021
  -8.8099999999999984E-002    -4.0278325619699389E-020
  -8.6999999999999994E-002    -1.0686255860693067E-019
  -8.5899999999999990E-002    -8.9597470378313411E-020
  -8.4799999999999986E-002     1.8093432063906684E-019
  -8.3699999999999997E-002     6.9557829674616064E-019
  -8.2599999999999993E-002     8.9483612844404608E-019
  -8.1499999999999989E-002    -3.0127013923492901E-019
  -8.0399999999999999E-002    -3.3432469010285427E-018
  -7.9299999999999995E-002    -5.9908150545652878E-018
  -7.8199999999999992E-002    -2.6764311734457111E-018
  -7.7100000000000002E-002     1.1127078090108168E-017
  -7.5999999999999984E-002     2.9285098742688466E-017
  -7.4899999999999994E-002     2.8708504224902252E-017
  -7.3799999999999991E-002    -1.8104902422364592E-017
  -7.2699999999999987E-002    -1.0554084785836766E-016
  -7.1599999999999997E-002    -1.5811214625305282E-016
  -7.0499999999999993E-002    -5.2381056779965318E-017
  -6.9399999999999989E-002     2.6221855705013512E-016
  -6.8300000000000000E-002     6.0290772864156632E-016
  -6.7199999999999996E-002     5.3843316888334508E-016
  -6.6099999999999992E-002    -2.9877170802352282E-016
  -6.5000000000000002E-002    -1.6545730892219873E-015
  -6.3899999999999985E-002    -2.3493413821746049E-015
  -6.2799999999999995E-002    -8.7799226617424103E-016
  -6.1699999999999991E-002     3.0117395698940706E-015
  -6.0599999999999994E-002     6.8826860680768539E-015
  -5.9499999999999990E-002     6.2285890149987172E-015
  -5.8399999999999994E-002    -1.8955661388144526E-015
  -5.7299999999999990E-002    -1.4210537077846783E-014
  -5.6199999999999986E-002    -2.0276464426753626E-014
  -5.5099999999999996E-002    -9.1345227348359377E-015
  -5.3999999999999992E-002     1.8809188215740576E-014
  -5.2899999999999989E-002     4.4731867542740014E-014
  -5.1799999999999985E-002     4.0369102375162336E-014
  -5.0699999999999995E-002    -6.9812934086314633E-015
  -4.9599999999999991E-002    -7.1692163924191865E-014
  -4.8499999999999988E-002    -9.6019153457242712E-014
  -4.7399999999999998E-002    -3.5000465253929441E-014
  -4.6299999999999994E-002     8.8219843485514565E-014
  -4.5199999999999990E-002     1.7238852489595557E-013
  -4.4099999999999986E-002     1.0896959604187600E-013
  -4.2999999999999997E-002    -1.0198143870175647E-013
  -4.1899999999999993E-002    -2.9609358042671785E-013
  -4.0799999999999989E-002    -2.4272860739589508E-013
  -3.9699999999999985E-002     1.3162618239283275E-013
  -3.8599999999999995E-002     5.7661677082404550E-013
  -3.7499999999999992E-002     6.2104282220337703E-013
  -3.6399999999999988E-002    -2.7861393747663499E-014
  -3.5299999999999984E-002    -1.0698613219298214E-012
  -3.4199999999999994E-002    -1.6169514728894829E-012
  -3.3099999999999991E-002    -8.1762434279639140E-013
  -3.1999999999999987E-002     1.2541579103367284E-012
  -3.0899999999999997E-002     3.2315075094990764E-012
  -2.9799999999999993E-002     3.2055337117337102E-012
  -2.8699999999999989E-002     3.1887648988329631E-013
  -2.7599999999999986E-002    -4.0156922925804750E-012
  -2.6499999999999996E-002    -6.5802736523568051E-012
  -2.5399999999999992E-002    -4.6485896729175913E-012
  -2.4299999999999988E-002     1.4402188209389211E-012
  -2.3199999999999985E-002     7.7408288112756907E-012
  -2.2099999999999995E-002     9.2723389730209327E-012
  -2.0999999999999991E-002     4.1487997932965204E-012
  -1.9899999999999987E-002    -4.1705801138991472E-012
  -1.8799999999999983E-002    -9.0588951270897944E-012
  -1.7699999999999994E-002    -6.2960869157135946E-012
  -1.6599999999999990E-002     1.5079139109239192E-012
  -1.5499999999999986E-002     6.2137443627985345E-012
  -1.4399999999999996E-002     1.3304996210675157E-012
  -1.3299999999999992E-002    -1.0511203886454101E-011
  -1.2199999999999989E-002    -1.7201849319969931E-011
  -1.1099999999999985E-002    -6.4423926263157405E-012
  -9.9999999999999950E-003     2.1445942244291416E-011
  -8.8999999999999913E-003     4.8480854747401381E-011
  -7.7999999999999875E-003     4.8952553816095090E-011
  -6.6999999999999837E-003     9.7307353147391140E-012
  -5.5999999999999939E-003    -5.4186977821446547E-011
  -4.4999999999999901E-003    -1.0350206802733908E-010
  -3.3999999999999864E-003    -9.9061724101456861E-011
  -2.2999999999999826E-003    -3.1186869059451894E-011
  -1.1999999999999927E-003     6.8467662095450521E-011
  -9.9999999999988987E-005     1.4395661052102326E-010
   1.0000000000000148E-003     1.5086147608922573E-010
   2.1000000000000185E-003     8.5273454963896711E-011
   3.2000000000000084E-003    -1.5701970973447388E-011
   4.3000000000000121E-003    -1.0193319105455956E-010
   5.4000000000000159E-003    -1.4421694394251006E-010
   6.5000000000000058E-003    -1.4693914140995190E-010
   7.6000000000000234E-003    -1.3022002920415332E-010
   8.7000000000000133E-003    -9.9154372212861830E-011
   9.8000000000000032E-003    -3.0927503613664697E-011
   1.0900000000000021E-002     1.0257815430403383E-010
   1.2000000000000011E-002     2.9015023716993937E-010
   1.3100000000000001E-002     4.5275805327094076E-010
   1.4200000000000018E-002     4.6589243574146622E-010
   1.5300000000000008E-002     2.3388480041575122E-010
   1.6400000000000026E-002    -2.2481300154808537E-010
   1.7500000000000016E-002    -7.4240524838842248E-010
   1.8600000000000005E-002    -1.0567251518267540E-009
   1.9700000000000023E-002    -9.4275143247557480E-010
   2.0800000000000013E-002    -3.5242897489240477E-010
   2.1900000000000003E-002     5.2351739610045911E-010
   2.3000000000000020E-002     1.3217286154443286E-009
   2.4100000000000010E-002     1.6760148824346288E-009
   2.5200000000000000E-002     1.3993816105895007E-009
   2.6300000000000018E-002     5.7341270620625551E-010
   2.7400000000000008E-002    -5.0460985390188284E-010
   2.8500000000000025E-002    -1.4754768518088213E-009
   2.9600000000000015E-002    -2.0681436563307898E-009
   3.0700000000000005E-002    -2.1554644735743977E-009
   3.1800000000000023E-002    -1.7090230342020618E-009
   3.2900000000000013E-002    -7.3504469177976262E-010
   3.4000000000000002E-002     7.1141365021176739E-010
   3.5100000000000020E-002     2.4183657298948447E-009
   3.6200000000000010E-002     3.9164338438979485E-009
   3.7300000000000028E-002     4.5344354937526532E-009
   3.8400000000000017E-002     3.6730252173100553E-009
   3.9500000000000007E-002     1.1838623414917038E-009
   4.0600000000000025E-002    -2.3873609755753478E-009
   4.1700000000000015E-002    -5.8994324980687907E-009
   4.2800000000000005E-002    -8.0587803097387223E-009
   4.3900000000000022E-002    -7.9782100925740451E-009
   4.5000000000000012E-002    -5.5354769656901226E-009
   4.6100000000000002E-002    -1.3484081629044908E-009
   4.7200000000000020E-002     3.5604015291568203E-009
   4.8300000000000010E-002     8.1506490445804047E-009
   4.9400000000000027E-002     1.1567863111849874E-008
   5.0500000000000017E-002     1.3129008991086266E-008
   5.1600000000000007E-002     1.2257871162546508E-008
   5.2700000000000025E-002     8.5682012596066670E-009
   5.3800000000000014E-002     2.1259198845768879E-009
   5.4900000000000004E-002    -6.2960192614980315E-009
   5.6000000000000022E-002    -1.5229900895974424E-008
   5.7100000000000012E-002    -2.2899355300864954E-008
   5.8200000000000002E-002    -2.7809132774336831E-008
   5.9300000000000019E-002    -2.9178204741242553E-008
   6.0400000000000009E-002    -2.6908088202048930E-008
   6.1500000000000027E-002    -2.1056129284602321E-008
   6.2600000000000017E-002    -1.1104956954000045E-008
   6.3700000000000007E-002     4.5350532218435546E-009
   6.4800000000000024E-002     2.8492181058936694E-008
   6.5900000000000014E-002     6.3915699399785808E-008
   6.7000000000000004E-002     1.1385284892639902E-007
   6.8100000000000022E-002     1.8099110832281440E-007
   6.9200000000000012E-002     2.6800455543707358E-007
   7.0300000000000029E-002     3.7832259636161325E-007
   7.1400000000000019E-002     5.1682121693374938E-007
   7.2500000000000009E-002     6.8998178903711960E-007
   7.3600000000000027E-002     9.0549826836650027E-007
   7.4700000000000016E-002     1.1718559562723385E-006
   7.5800000000000006E-002     1.4986254655013909E-006
   7.6900000000000024E-002     1.8978521438839380E-006
   7.8000000000000014E-002     2.3861418867454631E-006
   7.9100000000000004E-002     2.9864040698157623E-006
   8.0200000000000021E-002     3.7282591165421763E-006
   8.1300000000000011E-002     4.6469540393445641E-006
   8.2400000000000029E-002     5.7817337619781028E-006
   8.3500000000000019E-002     7.1751805990061257E-006
   8.4600000000000009E-002     8.8745819084579125E-006
   8.5700000000000026E-002     1.0935164937109221E-005
   8.6800000000000016E-002     1.3423946256807540E-005
   8.7900000000000006E-002     1.6422678527305834E-005
   8.9000000000000024E-002     2.0029261577292345E-005
   9.0100000000000013E-002     2.4358192604267970E-005
   9.1200000000000003E-002     2.9541382900788449E-005
   9.2300000000000021E-002     3.5730321542359889E-005
   9.3400000000000011E-002     4.3099626054754481E-005
   9.4500000000000028E-002     5.1851005991920829E-005
   9.5600000000000018E-002     6.2216589867603034E-005
   9.6700000000000008E-002     7.4461087933741510E-005
   9.7800000000000026E-002     8.8883491116575897E-005
   9.8900000000000016E-002     1.0581914830254391E-004
  0.10000000000000001          1.2564327334985137E-004
  0.10110000000000002          1.4877553621772677E-004
  0.10220000000000001          1.7568521434441209E-004
  0.10330000000000003          2.0689550729002804E-004
  0.10440000000000002          2.4298655625898391E-004
  0.10550000000000001          2.8459721943363547E-004
  0.10660000000000003          3.3242636709474027E-004
  0.10770000000000002          3.8723429315723479E-004
  0.10880000000000001          4.4984460691921413E-004
  0.10990000000000003          5.2114599384367466E-004
  0.11100000000000002          6.0209271032363176E-004
  0.11210000000000001          6.9370202254503965E-004
  0.11320000000000002          7.9704925883561373E-004
  0.11430000000000001          9.1326032998040318E-004
  0.11540000000000003          1.0435052681714296E-003
  0.11650000000000002          1.1889905435964465E-003
  0.11760000000000001          1.3509530108422041E-003
  0.11870000000000003          1.5306491404771805E-003
  0.11980000000000002          1.7293400596827269E-003
  0.12090000000000001          1.9482728093862534E-003
  0.12200000000000003          2.1886562462896109E-003
  0.12310000000000001          2.4516386911273003E-003
  0.12420000000000003          2.7382834814488888E-003
  0.12530000000000002          3.0495480168610811E-003
  0.12640000000000001          3.3862544223666191E-003
  0.12750000000000003          3.7490613758563995E-003
  0.12860000000000002          4.1384296491742134E-003
  0.12970000000000001          4.5545902103185654E-003
  0.13080000000000003          4.9975058063864708E-003
  0.13190000000000002          5.4668374359607697E-003
  0.13300000000000001          5.9619117528200150E-003
  0.13410000000000000          6.4816935919225216E-003
  0.13520000000000004          7.0247538387775421E-003
  0.13630000000000003          7.5892424210906029E-003
  0.13740000000000002          8.1728706136345863E-003
  0.13850000000000001          8.7728863582015038E-003
  0.13960000000000000          9.3860570341348648E-003
  0.14070000000000005          1.0008665733039379E-002
  0.14180000000000004          1.0636506602168083E-002
  0.14290000000000003          1.1264896951615810E-002
  0.14400000000000002          1.1888692155480385E-002
  0.14510000000000001          1.2502311728894711E-002
  0.14620000000000000          1.3099772855639458E-002
  0.14730000000000004          1.3674735091626644E-002
  0.14840000000000003          1.4220546931028366E-002
  0.14950000000000002          1.4730315655469894E-002
  0.15060000000000001          1.5196979045867920E-002
  0.15170000000000000          1.5613391064107418E-002
  0.15280000000000005          1.5972401946783066E-002
  0.15390000000000004          1.6266966238617897E-002
  0.15500000000000003          1.6490228474140167E-002
  0.15610000000000002          1.6635632142424583E-002
  0.15720000000000001          1.6697034239768982E-002
  0.15830000000000000          1.6668805852532387E-002
  0.15940000000000004          1.6545958817005157E-002
  0.16050000000000003          1.6324238851666451E-002
  0.16160000000000002          1.6000228002667427E-002
  0.16270000000000001          1.5571423806250095E-002
  0.16380000000000000          1.5036331489682198E-002
  0.16490000000000005          1.4394532889127731E-002
  0.16600000000000004          1.3646751642227173E-002
  0.16710000000000003          1.2794887647032738E-002
  0.16820000000000002          1.1842044070363045E-002
  0.16930000000000001          1.0792533867061138E-002
  0.17040000000000000          9.6518602222204208E-003
  0.17150000000000004          8.4266988560557365E-003
  0.17260000000000003          7.1248468011617661E-003
  0.17370000000000002          5.7551562786102295E-003
  0.17480000000000001          4.3274452909827232E-003
  0.17590000000000000          2.8523858636617661E-003
  0.17700000000000005          1.3413798296824098E-003
  0.17810000000000004         -1.9357353448867798E-004
  0.17920000000000003         -1.7400212818756700E-003
  0.18030000000000002         -3.2852119766175747E-003
  0.18140000000000001         -4.8162625171244144E-003
  0.18250000000000000         -6.3203270547091961E-003
  0.18360000000000004         -7.7847656793892384E-003
  0.18470000000000003         -9.1973096132278442E-003
  0.18580000000000002         -1.0546223260462284E-002
  0.18690000000000001         -1.1820465326309204E-002
  0.18800000000000000         -1.3009832240641117E-002
  0.18910000000000005         -1.4105094596743584E-002
  0.19020000000000004         -1.5098101459443569E-002
  0.19130000000000003         -1.5981880947947502E-002
  0.19240000000000002         -1.6750711947679520E-002
  0.19350000000000001         -1.7400184646248817E-002
  0.19460000000000005         -1.7927248030900955E-002
  0.19570000000000004         -1.8330227583646774E-002
  0.19680000000000003         -1.8608823418617249E-002
  0.19790000000000002         -1.8764063715934753E-002
  0.19900000000000001         -1.8798261880874634E-002
  0.20010000000000000         -1.8714951351284981E-002
  0.20120000000000005         -1.8518816679716110E-002
  0.20230000000000004         -1.8215591087937355E-002
  0.20340000000000003         -1.7811946570873260E-002
  0.20450000000000002         -1.7315367236733437E-002
  0.20560000000000000         -1.6734018921852112E-002
  0.20670000000000005         -1.6076613217592239E-002
  0.20780000000000004         -1.5352294780313969E-002
  0.20890000000000003         -1.4570486731827259E-002
