 -0.12000000000000000          0.0000000000000000
 -0.11889999999999999          0.0000000000000000
 -0.11780000000000000          0.0000000000000000
 -0.11670000000000000          1.1213664025122583E-010
 -0.11559999999999999          7.6593048570217093E-010
 -0.11449999999999999          2.4187720715218575E-009
 -0.11340000000000000          4.0895358210946142E-009
 -0.11230000000000000          1.5018618571005504E-009
 -0.11119999999999999         -1.1959246926096512E-008
 -0.11009999999999999         -3.8352560238763544E-008
 -0.10900000000000000         -6.4904412511168630E-008
 -0.10790000000000000         -6.1129490802613873E-008
 -0.10679999999999999          5.0698214515421114E-009
 -0.10569999999999999          1.3473595572577324E-007
 -0.10460000000000000          2.7231843091612973E-007
 -0.10349999999999999          3.1793780408406747E-007
 -0.10239999999999999          1.8498246845410904E-007
 -0.10130000000000000         -1.3044410707152565E-007
 -0.10020000000000000         -5.2305858844192699E-007
  -9.9099999999999994E-002    -8.2298788584012073E-007
  -9.7999999999999990E-002    -8.8088779648387572E-007
  -9.6899999999999986E-002    -6.2801956346447696E-007
  -9.5799999999999996E-002    -7.5573794333649857E-008
  -9.4699999999999993E-002     7.1210035912372405E-007
  -9.3599999999999989E-002     1.6031541463235044E-006
  -9.2499999999999999E-002     2.3334691832133103E-006
  -9.1399999999999995E-002     2.4851719899743330E-006
  -9.0299999999999991E-002     1.6305102690239437E-006
  -8.9200000000000002E-002    -3.5763991945714224E-007
  -8.8099999999999984E-002    -3.0221272027119994E-006
  -8.6999999999999994E-002    -5.3378921620605979E-006
  -8.5899999999999990E-002    -6.1381706473184749E-006
  -8.4799999999999986E-002    -4.7430976337636821E-006
  -8.3699999999999997E-002    -1.3792156323688687E-006
  -8.2599999999999993E-002     2.9029636152699823E-006
  -8.1499999999999989E-002     6.7350888457440306E-006
  -8.0399999999999999E-002     8.9796831161947921E-006
  -7.9299999999999995E-002     8.9850618678610772E-006
  -7.8199999999999992E-002     6.5522503973625135E-006
  -7.7100000000000002E-002     1.9012969687537407E-006
  -7.5999999999999984E-002    -4.1684556890686508E-006
  -7.4899999999999994E-002    -1.0116556950379163E-005
  -7.3799999999999991E-002    -1.3930183740740176E-005
  -7.2699999999999987E-002    -1.3986851627123542E-005
  -7.1599999999999997E-002    -1.0049318007077090E-005
  -7.0499999999999993E-002    -3.5597879559645662E-006
  -6.9399999999999989E-002     3.2195821404457092E-006
  -6.8300000000000000E-002     8.7259768406511284E-006
  -6.7199999999999996E-002     1.3086435501463711E-005
  -6.6099999999999992E-002     1.7683049009065144E-005
  -6.5000000000000002E-002     2.3567368771182373E-005
  -6.3899999999999985E-002     3.0072907975409180E-005
  -6.2799999999999995E-002     3.4942691854666919E-005
  -6.1699999999999991E-002     3.6072397051611915E-005
  -6.0599999999999994E-002     3.3580428862478584E-005
  -5.9499999999999990E-002     3.0580245947930962E-005
  -5.8399999999999994E-002     3.2053550967248157E-005
  -5.7299999999999990E-002     4.2690662667155266E-005
  -5.6199999999999986E-002     6.5192623878829181E-005
  -5.5099999999999996E-002     9.9872842838522047E-005
  -5.3999999999999992E-002     1.4523474965244532E-004
  -5.2899999999999989E-002     1.9870900723617524E-004
  -5.1799999999999985E-002     2.5726782041601837E-004
  -5.0699999999999995E-002     3.1839043367654085E-004
  -4.9599999999999991E-002     3.8176140515133739E-004
  -4.8499999999999988E-002     4.5104589662514627E-004
  -4.7399999999999998E-002     5.3421955090016127E-004
  -4.6299999999999994E-002     6.4145168289542198E-004
  -4.5199999999999990E-002     7.8138418029993773E-004
  -4.4099999999999986E-002     9.5826812321320176E-004
  -4.2999999999999997E-002     1.1721701594069600E-003
  -4.1899999999999993E-002     1.4222596073523164E-003
  -4.0799999999999989E-002     1.7107968451455235E-003
  -3.9699999999999985E-002     2.0449755247682333E-003
  -3.8599999999999995E-002     2.4356674402952194E-003
  -3.7499999999999992E-002     2.8947000391781330E-003
  -3.6399999999999988E-002     3.4332454670220613E-003
  -3.5299999999999984E-002     4.0624891407787800E-003
  -3.4199999999999994E-002     4.7954446636140347E-003
  -3.3099999999999991E-002     5.6478413753211498E-003
  -3.1999999999999987E-002     6.6372477449476719E-003
  -3.0899999999999997E-002     7.7816345728933811E-003
  -2.9799999999999993E-002     9.0992255136370659E-003
  -2.8699999999999989E-002     1.0610056109726429E-002
  -2.7599999999999986E-002     1.2337629683315754E-002
  -2.6499999999999996E-002     1.4308564364910126E-002
  -2.5399999999999992E-002     1.6549922525882721E-002
  -2.4299999999999988E-002     1.9086321815848351E-002
  -2.3199999999999985E-002     2.1939503028988838E-002
  -2.2099999999999995E-002     2.5131063535809517E-002
  -2.0999999999999991E-002     2.8686255216598511E-002
  -1.9899999999999987E-002     3.2635547220706940E-002
  -1.8799999999999983E-002     3.7012267857789993E-002
  -1.7699999999999994E-002     4.1847679764032364E-002
  -1.6599999999999990E-002     4.7166381031274796E-002
  -1.5499999999999986E-002     5.2984219044446945E-002
  -1.4399999999999996E-002     5.9308655560016632E-002
  -1.3299999999999992E-002     6.6139802336692810E-002
  -1.2199999999999989E-002     7.3470845818519592E-002
  -1.1099999999999985E-002     8.1287577748298645E-002
  -9.9999999999999950E-003     8.9567594230175018E-002
  -8.8999999999999913E-003     9.8279282450675964E-002
  -7.7999999999999875E-003    0.10737950354814529
  -6.6999999999999837E-003    0.11680936813354492
  -5.5999999999999939E-003    0.12648884952068329
  -4.4999999999999901E-003    0.13631215691566467
  -3.3999999999999864E-003    0.14614593982696533
  -2.2999999999999826E-003    0.15583024919033051
  -1.1999999999999927E-003    0.16518020629882812
  -9.9999999999988987E-005    0.17398613691329956
   1.0000000000000148E-003    0.18201135098934174
   2.1000000000000185E-003    0.18898883461952209
   3.2000000000000084E-003    0.19461868703365326
   4.3000000000000121E-003    0.19856740534305573
   5.4000000000000159E-003    0.20046895742416382
   6.5000000000000058E-003    0.19992662966251373
   7.6000000000000234E-003    0.19651551544666290
   8.7000000000000133E-003    0.18978606164455414
   9.8000000000000032E-003    0.17926880717277527
   1.0900000000000021E-002    0.16447900235652924
   1.2000000000000011E-002    0.14492096006870270
   1.3100000000000001E-002    0.12009254842996597
   1.4200000000000018E-002     8.9490957558155060E-002
   1.5300000000000008E-002     5.2622012794017792E-002
   1.6400000000000026E-002     9.0132188051939011E-003
   1.7500000000000016E-002    -4.1771449148654938E-002
   1.8600000000000005E-002   -0.10011741518974304
   1.9700000000000023E-002   -0.16634741425514221
   2.0800000000000013E-002   -0.24071003496646881
   2.1900000000000003E-002   -0.32336780428886414
   2.3000000000000020E-002   -0.41438412666320801
   2.4100000000000010E-002   -0.51370954513549805
   2.5200000000000000E-002   -0.62116819620132446
   2.6300000000000018E-002   -0.73644459247589111
   2.7400000000000008E-002   -0.85907000303268433
   2.8500000000000025E-002   -0.98840832710266113
   2.9600000000000015E-002    -1.1236436367034912
   3.0700000000000005E-002    -1.2637717723846436
   3.1800000000000023E-002    -1.4075988531112671
   3.2900000000000013E-002    -1.5537447929382324
   3.4000000000000002E-002    -1.7006487846374512
   3.5100000000000020E-002    -1.8465744256973267
   3.6200000000000010E-002    -1.9896161556243896
   3.7300000000000028E-002    -2.1277101039886475
   3.8400000000000017E-002    -2.2586498260498047
   3.9500000000000007E-002    -2.3801097869873047
   4.0600000000000025E-002    -2.4896762371063232
   4.1700000000000015E-002    -2.5848779678344727
   4.2800000000000005E-002    -2.6632201671600342
   4.3900000000000022E-002    -2.7222228050231934
   4.5000000000000012E-002    -2.7594623565673828
   4.6100000000000002E-002    -2.7726190090179443
   4.7200000000000020E-002    -2.7595214843750000
   4.8300000000000010E-002    -2.7181906700134277
   4.9400000000000027E-002    -2.6468868255615234
   5.0500000000000017E-002    -2.5441558361053467
   5.1600000000000007E-002    -2.4088754653930664
   5.2700000000000025E-002    -2.2403037548065186
   5.3800000000000014E-002    -2.0381186008453369
   5.4900000000000004E-002    -1.8024494647979736
   5.6000000000000022E-002    -1.5339020490646362
   5.7100000000000012E-002    -1.2335733175277710
   5.8200000000000002E-002   -0.90306442975997925
   5.9300000000000019E-002   -0.54448777437210083
   6.0400000000000009E-002   -0.16046264767646790
   6.1500000000000027E-002    0.24589751660823822
   6.2600000000000017E-002    0.67100739479064941
   6.3700000000000007E-002     1.1108456850051880
   6.4800000000000024E-002     1.5609961748123169
   6.5900000000000014E-002     2.0167005062103271
   6.7000000000000004E-002     2.4729213714599609
   6.8100000000000022E-002     2.9244134426116943
   6.9200000000000012E-002     3.3658027648925781
   7.0300000000000029E-002     3.7916655540466309
   7.1400000000000019E-002     4.1966099739074707
   7.2500000000000009E-002     4.5753617286682129
   7.3600000000000027E-002     4.9228501319885254
   7.4700000000000016E-002     5.2342953681945801
   7.5800000000000006E-002     5.5052928924560547
   7.6900000000000024E-002     5.7318930625915527
   7.8000000000000014E-002     5.9106731414794922
   7.9100000000000004E-002     6.0387997627258301
   8.0200000000000021E-002     6.1140837669372559
   8.1300000000000011E-002     6.1350259780883789
   8.2400000000000029E-002     6.1008501052856445
   8.3500000000000019E-002     6.0115218162536621
   8.4600000000000009E-002     5.8677525520324707
   8.5700000000000026E-002     5.6709904670715332
   8.6800000000000016E-002     5.4234023094177246
   8.7900000000000006E-002     5.1278414726257324
   8.9000000000000024E-002     4.7878036499023438
   9.0100000000000013E-002     4.4073672294616699
   9.1200000000000003E-002     3.9911227226257324
   9.2300000000000021E-002     3.5440955162048340
   9.3400000000000011E-002     3.0716624259948730
   9.4500000000000028E-002     2.5794656276702881
   9.5600000000000018E-002     2.0733227729797363
   9.6700000000000008E-002     1.5591340065002441
   9.7800000000000026E-002     1.0427824258804321
   9.8900000000000016E-002    0.53004002571105957
  0.10000000000000001          2.6484465226531029E-002
  0.10110000000000002        -0.46258097887039185
  0.10220000000000001        -0.93220257759094238
  0.10330000000000003         -1.3778438568115234
  0.10440000000000002         -1.7954471111297607
  0.10550000000000001         -2.1814823150634766
  0.10660000000000003         -2.5329797267913818
  0.10770000000000002         -2.8475511074066162
  0.10880000000000001         -3.1233990192413330
  0.10990000000000003         -3.3593201637268066
  0.11100000000000002         -3.5546975135803223
  0.11210000000000001         -3.7094814777374268
  0.11320000000000002         -3.8241600990295410
  0.11430000000000001         -3.8997199535369873
  0.11540000000000003         -3.9376039505004883
  0.11650000000000002         -3.9396662712097168
  0.11760000000000001         -3.9081218242645264
  0.11870000000000003         -3.8454895019531250
  0.11980000000000002         -3.7545301914215088
  0.12090000000000001         -3.6381816864013672
  0.12200000000000003         -3.4995000362396240
  0.12310000000000001         -3.3416075706481934
  0.12420000000000003         -3.1676435470581055
  0.12530000000000002         -2.9807174205780029
  0.12640000000000001         -2.7838602066040039
  0.12750000000000003         -2.5799813270568848
  0.12860000000000002         -2.3718340396881104
  0.12970000000000001         -2.1619884967803955
  0.13080000000000003         -1.9528120756149292
  0.13190000000000002         -1.7464524507522583
  0.13300000000000001         -1.5448237657546997
  0.13410000000000000         -1.3495979309082031
  0.13520000000000004         -1.1622028350830078
  0.13630000000000003        -0.98382800817489624
  0.13740000000000002        -0.81543296575546265
  0.13850000000000001        -0.65775555372238159
  0.13960000000000000        -0.51132088899612427
  0.14070000000000005        -0.37645229697227478
  0.14180000000000004        -0.25328740477561951
  0.14290000000000003        -0.14179953932762146
  0.14400000000000002         -4.1821934282779694E-002
  0.14510000000000001          4.6931985765695572E-002
  0.14620000000000000         0.12485318630933762
  0.14730000000000004         0.19242115318775177
  0.14840000000000003         0.25018709897994995
  0.14950000000000002         0.29875686764717102
  0.15060000000000001         0.33877524733543396
  0.15170000000000000         0.37091526389122009
  0.15280000000000005         0.39586865901947021
  0.15390000000000004         0.41433390974998474
  0.15500000000000003         0.42700204253196716
  0.15610000000000002         0.43454176187515259
  0.15720000000000001         0.43758943676948547
  0.15830000000000000         0.43674677610397339
  0.15940000000000004         0.43258219957351685
  0.16050000000000003         0.42563048005104065
  0.16160000000000002         0.41638848185539246
  0.16270000000000001         0.40530875325202942
  0.16380000000000000         0.39279553294181824
  0.16490000000000005         0.37920644879341125
  0.16600000000000004         0.36485770344734192
  0.16710000000000003         0.35002830624580383
  0.16820000000000002         0.33495953679084778
  0.16930000000000001         0.31985232234001160
  0.17040000000000000         0.30486789345741272
  0.17150000000000004         0.29013332724571228
  0.17260000000000003         0.27574953436851501
  0.17370000000000002         0.26179587841033936
  0.17480000000000001         0.24833011627197266
  0.17590000000000000         0.23538686335086823
  0.17700000000000005         0.22297897934913635
  0.17810000000000004         0.21110452711582184
  0.17920000000000003         0.19975574314594269
  0.18030000000000002         0.18892447650432587
  0.18140000000000001         0.17860175669193268
  0.18250000000000000         0.16877453029155731
  0.18360000000000004         0.15942433476448059
  0.18470000000000003         0.15052978694438934
  0.18580000000000002         0.14207024872303009
  0.18690000000000001         0.13402719795703888
  0.18800000000000000         0.12638317048549652
  0.18910000000000005         0.11912049353122711
  0.19020000000000004         0.11222255975008011
  0.19130000000000003         0.10567711293697357
  0.19240000000000002          9.9477894604206085E-002
  0.19350000000000001          9.3622237443923950E-002
  0.19460000000000005          8.8106185197830200E-002
  0.19570000000000004          8.2921266555786133E-002
  0.19680000000000003          7.8055784106254578E-002
  0.19790000000000002          7.3498763144016266E-002
  0.19900000000000001          6.9241881370544434E-002
  0.20010000000000000          6.5276861190795898E-002
  0.20120000000000005          6.1591017991304398E-002
  0.20230000000000004          5.8165874332189560E-002
  0.20340000000000003          5.4980829358100891E-002
  0.20450000000000002          5.2018519490957260E-002
  0.20560000000000000          4.9266729503870010E-002
  0.20670000000000005          4.6715177595615387E-002
  0.20780000000000004          4.4350646436214447E-002
  0.20890000000000003          4.2156152427196503E-002
